 +-------------------------------------------------+
 |                                                 |
 |      CCC   AA    SSS  TTTTT  EEEEE  PPPP        |
 |     C     A  A  S       T    E      P   P       |
 |     C     AAAA   SS     T    EEE    PPPP        |
 |     C     A  A     S    T    E      P           |
 |      CCC  A  A  SSS     T    EEEEE  P           |
 |                                                 |
 +-------------------------------------------------+
 |                                                 |
 | Welcome to Academic Release CASTEP version 18.1 |          
 | Ab Initio Total Energy Program                  |
 |                                                 |
 | Authors:                                        |
 | M. Segall, M. Probert, C. Pickard, P. Hasnip,   |
 | S. Clark, K. Refson, J. R. Yates, M. Payne      |
 |                                                 |
 | Contributors:                                   |
 | P. Lindan, P. Haynes, J. White, V. Milman,      |
 | N. Govind, M. Gibson, P. Tulip, V. Cocula,      |
 | B. Montanari, D. Quigley, M. Glover,            |
 | L. Bernasconi, A. Perlov, M. Plummer,           |
 | E. McNellis, J. Meyer, J. Gale, D. Jochym       |
 | J. Aarons, B. Walker, R. Gillen, D. Jones       |
 | T. Green, I. J. Bush, C. J. Armstrong,          |
 | E. J. Higgins, E. L. Brown, M. S. McFly,        |
 | J. Wilkins, B-C. Shih, P. J. P. Byrne           |
 |                                                 |
 | Copyright (c) 2000 - 2017                       |
 |                                                 |
 |     Distributed under the terms of an           |
 |     Agreement between the United Kingdom        |
 |     Car-Parrinello (UKCP) Consortium,           |
 |     Daresbury Laboratory and Accelrys, Inc.     |
 |                                                 |
 | Please cite                                     |
 |                                                 |
 |     "First principles methods using CASTEP"     |
 |                                                 |
 |         Zeitschrift fuer Kristallographie       |
 |           220(5-6) pp. 567-570 (2005)           |
 |                                                 |
 | S. J. Clark, M. D. Segall, C. J. Pickard,       |
 | P. J. Hasnip, M. J. Probert, K. Refson,         |
 | M. C. Payne                                     |
 |                                                 |
 |       in all publications arising from          |
 |              your use of CASTEP                 |
 |                                                 |
 +-------------------------------------------------+


 Compiled for linux_x86_64_gfortran4.8 on Thu, 19 Jul 2018 15:42:32 +0100
 from code version 70483bd0ad64+  Sun, 10 Dec 2017 12:18:29 +0000
 Compiler: GNU Fortran 4.8.5; Optimisation: fast
 MATHLIBS: Intel MKL(2018.0.0) (LAPACK version 3.7.0)
 FFT Lib : mkl
 Fundamental constants values: CODATA 2014

 Run started: Sat, 22 Aug 2020 00:14:17 +0100

 Atomic calculation performed for H: 1s1

 Converged in 41 iterations to an ae energy of -12.488 eV

   ============================================================                
   | Pseudopotential Report - Date of generation 22-08-2020   |                
   ------------------------------------------------------------                
   | Element: H Ionic charge:  1.00 Level of theory: PBE      |                
   | Atomic Solver: Koelling-Harmon                           |                
   |                                                          |                
   |               Reference Electronic Structure             |                
   |         Orbital         Occupation         Energy        |                
   |            1s              1.000           -0.239        |                
   |                                                          |                
   |                 Pseudopotential Definition               |                
   |        Beta     l      e      Rc     scheme   norm       |                
   |         loc     0   -0.239   0.702     qc      1         |                
   |                                                          |                
   | No charge augmentation                                   |                
   | No partial core correction                               |                
   ------------------------------------------------------------                
   | "0|0.7|2|6|8|10L(qc=10)"                                 |                
   ------------------------------------------------------------                
   |      Author: Chris J. Pickard, Cambridge University      |                
   ============================================================                

 Pseudo atomic calculation performed for H 1s1

 Converged in 24 iterations to a total energy of -12.4843 eV

 Calculation parallelised over 16 processes.
 Data is distributed by k-point(16-way)

 ************************************ Title ************************************
 

 ***************************** General Parameters ******************************
  
 output verbosity                               : normal  (1)
 write checkpoint data to                       : P21c.check
 type of calculation                            : geometry optimization
 stress calculation                             : on
 density difference calculation                 : off
 electron localisation func (ELF) calculation   : off
 Hirshfeld analysis                             : off
 unlimited duration calculation
 timing information                             : on
 memory usage estimate                          : on
 write extra output files                       : on
 write final potential to formatted file        : off
 write final density to formatted file          : off
 write structure in CELL formatted file         : on
 write BibTeX reference list                    : on
 write OTFG pseudopotential files               : on
 write electrostatic potential file             : on
 write bands file                               : on
 checkpoint writing                             : both castep_bin and check files
  
 output         length unit                     : A
 output           mass unit                     : amu
 output           time unit                     : ps
 output         charge unit                     : e
 output           spin unit                     : hbar/2
 output         energy unit                     : eV
 output          force unit                     : eV/A
 output       velocity unit                     : A/ps
 output       pressure unit                     : GPa
 output     inv_length unit                     : 1/A
 output      frequency unit                     : cm-1
 output force constant unit                     : eV/A**2
 output         volume unit                     : A**3
 output   IR intensity unit                     : (D/A)**2/amu
 output         dipole unit                     : D
 output         efield unit                     : eV/A/e
 output        entropy unit                     : J/mol/K
  
 wavefunctions paging                           : none
 random number generator seed                   : randomised (1417920)
 data distribution                              : optimal for this architecture
 optimization strategy                          : maximize speed(+++)

 *********************** Exchange-Correlation Parameters ***********************
  
 using functional                               : Perdew Burke Ernzerhof
 relativistic treatment                         : Koelling-Harmon
 DFT+D: Semi-empirical dispersion correction    : off

 ************************* Pseudopotential Parameters **************************
  
 pseudopotential representation                 : reciprocal space
 <beta|phi> representation                      : reciprocal space
 spin-orbit coupling                            : off

 **************************** Basis Set Parameters *****************************
  
 plane wave basis set cut-off                   :  1200.0000   eV
 size of standard grid                          :     2.0000
 size of   fine   gmax                          :    35.4943   1/A
 finite basis set correction                    : automatic
 number of sample energies                      :          3
           sample  spacing                      :     5.0000   eV

 **************************** Electronic Parameters ****************************
  
 number of  electrons                           :  24.00    
 net charge of system                           :  0.000    
 treating system as non-spin-polarized
 number of bands                                :         12

 ********************* Electronic Minimization Parameters **********************
  
 Method: Treating system as non-metallic,
         and number of  SD  steps               :          1
         and number of  CG  steps               :          4
  
 total energy / atom convergence tol.           : 0.1000E-10   eV
 eigen-energy convergence tolerance             : 0.2000E-10   eV
 max force / atom convergence tol.              : ignored
 convergence tolerance window                   :          3   cycles
 max. number of SCF cycles                      :        100
 periodic dipole correction                     : NONE

 ************************** Density Mixing Parameters **************************
  
 density-mixing scheme                          : Broyden
 max. length of mixing history                  :         20
 charge density mixing amplitude                : 0.8000    
 cut-off energy for mixing                      :  1200.       eV

 *********************** Population Analysis Parameters ************************
  
 Population analysis with cutoff                :  3.000       A
 Population analysis output                     : summary and pdos components

 ********************** Geometry Optimization Parameters ***********************
  
 optimization method                            : LBFGS
 max. no. of LBFGS updates                      : unbounded
 variable cell method                           : fixed basis quality
 max. number of steps                           :        200
 estimated bulk modulus                         :  500.0       GPa
 estimated <frequency>                          :  1668.       cm-1
 geom line minimiser                            : on
 with line minimiser tolerance                  :     0.4000
 total energy convergence tolerance             : 0.1000E-08   eV/atom
        max ionic |force| tolerance             : 0.1000E-04   eV/A
 max ionic |displacement| tolerance             : 0.1000E-04   A
   max |stress component| tolerance             : 0.1000E-04   GPa
 convergence tolerance window                   :          2   steps
 backup results every                           :      14400   seconds
 write geom trajectory file                     : on

 *******************************************************************************
  

                           -------------------------------
                                      Unit Cell
                           -------------------------------
        Real Lattice(A)                      Reciprocal Lattice(1/A)
    10.1407288     0.0000000     0.0015047        0.619428399   0.000000000   1.149650353
     0.0000000     2.1135180     0.0000000        0.000000000   2.972856263   0.000000000
    -6.7620471     0.0000000     3.6433721       -0.000255820   0.000000000   1.724077397

                       Lattice parameters(A)       Cell Angles
                    a =     10.140729          alpha =   90.000000
                    b =      2.113518          beta  =  151.675835
                    c =      7.681109          gamma =   90.000000

                       Current cell volume =            78.108489       A**3
                                   density =             0.309705   AMU/A**3
                                           =             0.514277     g/cm^3

                           -------------------------------
                                     Cell Contents
                           -------------------------------
                         Total number of ions in cell =   24
                      Total number of species in cell =    1
                        Max number of any one species =   24

            xxxxxxxxxxxxxxxxxxxxxxxxxxxxxxxxxxxxxxxxxxxxxxxxxxxxxxxxxxxx
            x  Element    Atom        Fractional coordinates of atoms  x
            x            Number           u          v          w      x
            x----------------------------------------------------------x
            x  H            1         0.837343   0.645987   0.106363   x 
            x  H            2         0.162657   0.354013   0.893637   x 
            x  H            3         0.837343   0.854013   0.606363   x 
            x  H            4         0.162657   0.145987   0.393637   x 
            x  H            5         0.881351   0.406826   0.221771   x 
            x  H            6         0.118649   0.593174   0.778229   x 
            x  H            7         0.881351   0.093174   0.721771   x 
            x  H            8         0.118649   0.906826   0.278229   x 
            x  H            9         0.858491   0.114542   0.414439   x 
            x  H           10         0.141509   0.885458   0.585561   x 
            x  H           11         0.858491   0.385458   0.914439   x 
            x  H           12         0.141509   0.614542   0.085561   x 
            x  H           13         0.750756   0.910159   0.249993   x 
            x  H           14         0.249244   0.089841   0.750007   x 
            x  H           15         0.750756   0.589841   0.749993   x 
            x  H           16         0.249244   0.410159   0.250007   x 
            x  H           17         0.572801   0.395793   0.192591   x 
            x  H           18         0.427199   0.604207   0.807409   x 
            x  H           19         0.572801   0.104207   0.692591   x 
            x  H           20         0.427199   0.895793   0.307409   x 
            x  H           21         0.480583   0.595217   0.139076   x 
            x  H           22         0.519417   0.404783   0.860924   x 
            x  H           23         0.480583   0.904783   0.639076   x 
            x  H           24         0.519417   0.095217   0.360924   x 
            xxxxxxxxxxxxxxxxxxxxxxxxxxxxxxxxxxxxxxxxxxxxxxxxxxxxxxxxxxxx


                         No user defined ionic velocities

                           -------------------------------
                                   Details of Species
                           -------------------------------

                               Mass of species in AMU
                                    H    1.0079400

                          Electric Quadrupole Moment (Barn)
                                    H    0.0028600 Isotope  2

                          Files used for pseudopotentials:
                                    H 0|0.7|2|6|8|10L(qc=10)

                           -------------------------------
                              k-Points For BZ Sampling
                           -------------------------------
                       MP grid size for SCF calculation is  8 13 11
                            with an offset of   0.000  0.000  0.000
                       Number of kpoints used =           308

                           -------------------------------
                               Symmetry and Constraints
                           -------------------------------

                      Maximum deviation from symmetry = 0.210207E-13     ANG

                      Number of symmetry operations   =           4
                      Number of ionic constraints     =           3
                      Point group of crystal =     5: C2h, 2/m, 2/m
                      Space group of crystal =    14: P2_1/c, -P 2ybc

             Set iprint > 1 for details on symmetry rotations/translations

                         Centre of mass is constrained
             Set iprint > 1 for details of linear ionic constraints

                         Number of cell constraints= 2
                         Cell constraints are:  1 2 3 0 5 0

                         External pressure/stress (GPa)
                         30.00000   0.00000   0.00000
                                   30.00000   0.00000
                                             30.00000
  
+---------------- MEMORY AND SCRATCH DISK ESTIMATES PER PROCESS --------------+
|                                                     Memory          Disk    |
| Baseline code, static data and system overhead      412.0 MB         0.0 MB |
| BLAS internal memory storage                          0.0 MB         0.0 MB |
| Model and support data                              107.5 MB         0.0 MB |
| Electronic energy minimisation requirements          99.1 MB         0.0 MB |
| Force calculation requirements                       29.7 MB         0.0 MB |
| Stress calculation requirements                      37.6 MB         0.0 MB |
|                                               ----------------------------- |
| Approx. total storage required per process          618.6 MB         0.0 MB |
|                                                                             |
| Requirements will fluctuate during execution and may exceed these estimates |
+-----------------------------------------------------------------------------+
Calculating finite basis set correction with  3 cut-off energies.
Calculating total energy with cut-off of 1190.000 eV.
------------------------------------------------------------------------ <-- SCF
SCF loop      Energy                           Energy gain       Timer   <-- SCF
                                               per atom          (sec)   <-- SCF
------------------------------------------------------------------------ <-- SCF
Initial   6.31561821E+002                                          8.70  <-- SCF
      1  -2.93612539E+002                    3.85489317E+001      35.05  <-- SCF
      2  -3.73584622E+002                    3.33217013E+000      51.17  <-- SCF
      3  -3.75040917E+002                    6.06789393E-002      65.40  <-- SCF
      4  -3.72392343E+002                   -1.10357261E-001      90.23  <-- SCF
      5  -3.72311906E+002                   -3.35153007E-003     114.74  <-- SCF
      6  -3.72316398E+002                    1.87153139E-004     139.10  <-- SCF
      7  -3.72316921E+002                    2.18013302E-005     163.27  <-- SCF
      8  -3.72316923E+002                    7.64258872E-008     187.80  <-- SCF
      9  -3.72316923E+002                    7.44698567E-009     212.58  <-- SCF
     10  -3.72316923E+002                   -2.09259499E-012     229.70  <-- SCF
     11  -3.72316923E+002                    4.74710914E-012     246.97  <-- SCF
------------------------------------------------------------------------ <-- SCF
 
Final energy =  -372.3169229212     eV
(energy not corrected for finite basis set)
 
Calculating total energy with cut-off of 1195.000 eV.
------------------------------------------------------------------------ <-- SCF
SCF loop      Energy                           Energy gain       Timer   <-- SCF
                                               per atom          (sec)   <-- SCF
------------------------------------------------------------------------ <-- SCF
Initial  -3.72316923E+002                                        255.31  <-- SCF
      1  -3.72318559E+002                    6.81737013E-005     274.98  <-- SCF
      2  -3.72318559E+002                    7.92668538E-011     298.56  <-- SCF
      3  -3.72318560E+002                    3.41584049E-008     322.90  <-- SCF
      4  -3.72318560E+002                    1.97035844E-009     346.45  <-- SCF
      5  -3.72318560E+002                    4.11147586E-011     363.18  <-- SCF
      6  -3.72318560E+002                   -4.21137260E-012     380.45  <-- SCF
      7  -3.72318560E+002                    5.57488252E-012     397.97  <-- SCF
------------------------------------------------------------------------ <-- SCF
 
Final energy =  -372.3185599600     eV
(energy not corrected for finite basis set)
 
Calculating total energy with cut-off of 1200.000 eV.
------------------------------------------------------------------------ <-- SCF
SCF loop      Energy                           Energy gain       Timer   <-- SCF
                                               per atom          (sec)   <-- SCF
------------------------------------------------------------------------ <-- SCF
Initial  -3.72318560E+002                                        406.21  <-- SCF
      1  -3.72320159E+002                    6.66458822E-005     425.56  <-- SCF
      2  -3.72320159E+002                    7.72225959E-011     449.06  <-- SCF
      3  -3.72320160E+002                    3.37110467E-008     472.63  <-- SCF
      4  -3.72320160E+002                    1.89488001E-009     496.28  <-- SCF
      5  -3.72320160E+002                    3.92296104E-011     513.01  <-- SCF
      6  -3.72320160E+002                   -4.04420668E-012     530.47  <-- SCF
      7  -3.72320160E+002                    5.69975344E-012     547.98  <-- SCF
------------------------------------------------------------------------ <-- SCF
 
Final energy =  -372.3201603186     eV
(energy not corrected for finite basis set)
 
 For future reference: finite basis dEtot/dlog(Ecut) =      -0.386959eV
 Total energy corrected for finite basis set =    -372.320154 eV
 
+---------------- MEMORY AND SCRATCH DISK ESTIMATES PER PROCESS --------------+
|                                                     Memory          Disk    |
| Model and support data                              106.6 MB         0.0 MB |
| Electronic energy minimisation requirements          99.1 MB         0.0 MB |
| Geometry minimisation requirements                  130.6 MB         0.0 MB |
|                                               ----------------------------- |
| Approx. total storage required per process          336.4 MB         0.0 MB |
|                                                                             |
| Requirements will fluctuate during execution and may exceed these estimates |
+-----------------------------------------------------------------------------+
 

 ******************************** Symmetrised Forces ********************************
 *                                                                                  *
 *                           Cartesian components (eV/A)                            *
 * -------------------------------------------------------------------------------- *
 *                         x                    y                    z              *
 *                                                                                  *
 * H               1     -0.00000              0.00000              0.00000         *
 * H               2      0.00000             -0.00000             -0.00000         *
 * H               3     -0.00000             -0.00000              0.00000         *
 * H               4      0.00000              0.00000             -0.00000         *
 * H               5     -0.00000             -0.00000              0.00000         *
 * H               6      0.00000              0.00000             -0.00000         *
 * H               7     -0.00000              0.00000              0.00000         *
 * H               8      0.00000             -0.00000             -0.00000         *
 * H               9      0.00000              0.00000             -0.00000         *
 * H              10     -0.00000             -0.00000              0.00000         *
 * H              11      0.00000             -0.00000             -0.00000         *
 * H              12     -0.00000              0.00000              0.00000         *
 * H              13      0.00000             -0.00000              0.00000         *
 * H              14     -0.00000              0.00000             -0.00000         *
 * H              15      0.00000              0.00000              0.00000         *
 * H              16     -0.00000             -0.00000             -0.00000         *
 * H              17      0.00000             -0.00000             -0.00000         *
 * H              18     -0.00000              0.00000              0.00000         *
 * H              19      0.00000              0.00000             -0.00000         *
 * H              20     -0.00000             -0.00000              0.00000         *
 * H              21      0.00000              0.00000             -0.00000         *
 * H              22     -0.00000             -0.00000              0.00000         *
 * H              23      0.00000             -0.00000             -0.00000         *
 * H              24     -0.00000              0.00000              0.00000         *
 *                                                                                  *
 ************************************************************************************

 *********** Symmetrised Stress Tensor ***********
 *                                               *
 *          Cartesian components (GPa)           *
 * --------------------------------------------- *
 *             x             y             z     *
 *                                               *
 *  x    -39.983327      0.000000     -0.000010  *
 *  y      0.000000    -39.983331      0.000000  *
 *  z     -0.000010      0.000000    -39.983333  *
 *                                               *
 *  Pressure:   39.9833                          *
 *                                               *
 *************************************************
 LBFGS: finished iteration     0 with enthalpy= -3.57694708E+002 eV
  
 +-----------+-----------------+-----------------+------------+-----+ <-- LBFGS
 | Parameter |      value      |    tolerance    |    units   | OK? | <-- LBFGS
 +-----------+-----------------+-----------------+------------+-----+ <-- LBFGS
 |  dE/ion   |   0.000000E+000 |   1.000000E-009 |         eV | No  | <-- LBFGS
 |  |F|max   |   1.056485E-006 |   1.000000E-005 |       eV/A | Yes | <-- LBFGS
 |  |dR|max  |   0.000000E+000 |   1.000000E-005 |          A | No  | <-- LBFGS
 |   Smax    |   9.983333E+000 |   1.000000E-005 |        GPa | No  | <-- LBFGS
 +-----------+-----------------+-----------------+------------+-----+ <-- LBFGS
  

================================================================================
 Starting LBFGS iteration          1 ...
================================================================================
  
 +------------+-------------+-------------+-----------------+ <-- min LBFGS
 |    Step    |   lambda    |   F.delta'  |    enthalpy     | <-- min LBFGS
 +------------+-------------+-------------+-----------------+ <-- min LBFGS
 |  previous  |    0.000000 |    0.309794 |     -357.694708 | <-- min LBFGS
 +------------+-------------+-------------+-----------------+ <-- min LBFGS
  

--------------------------------------------------------------------------------
 LBFGS: starting iteration         1 with trial guess (lambda=  1.000000)
--------------------------------------------------------------------------------
 
+---------------- MEMORY AND SCRATCH DISK ESTIMATES PER PROCESS --------------+
|                                                     Memory          Disk    |
| Model and support data                              109.3 MB         0.0 MB |
| Electronic energy minimisation requirements         101.7 MB         0.0 MB |
| Geometry minimisation requirements                  133.9 MB         0.0 MB |
|                                               ----------------------------- |
| Approx. total storage required per process          344.9 MB         0.0 MB |
|                                                                             |
| Requirements will fluctuate during execution and may exceed these estimates |
+-----------------------------------------------------------------------------+
 

                           -------------------------------
                                      Unit Cell
                           -------------------------------
        Real Lattice(A)              Reciprocal Lattice(1/A)
    10.2082210     0.0000000     0.0015148        0.615333011   0.000000000   1.142049376
     0.0000000     2.1275847     0.0000000        0.000000000   2.953201074   0.000000000
    -6.8070522     0.0000000     3.6676207       -0.000254140   0.000000000   1.712678570

                       Lattice parameters(A)       Cell Angles
                    a =     10.208221          alpha =   90.000000
                    b =      2.127585          beta  =  151.675835
                    c =      7.732231          gamma =   90.000000

                Current cell volume =            79.678458 A**3

                           -------------------------------
                                     Cell Contents
                           -------------------------------

            xxxxxxxxxxxxxxxxxxxxxxxxxxxxxxxxxxxxxxxxxxxxxxxxxxxxxxxxxxxxxxxxx
            x  Element         Atom        Fractional coordinates of atoms  x
            x                 Number           u          v          w      x
            x---------------------------------------------------------------x
            x  H                 1         0.837343   0.645987   0.106363   x
            x  H                 2         0.162657   0.354013   0.893637   x
            x  H                 3         0.837343   0.854013   0.606363   x
            x  H                 4         0.162657   0.145987   0.393637   x
            x  H                 5         0.881351   0.406826   0.221771   x
            x  H                 6         0.118649   0.593174   0.778229   x
            x  H                 7         0.881351   0.093174   0.721771   x
            x  H                 8         0.118649   0.906826   0.278229   x
            x  H                 9         0.858491   0.114542   0.414439   x
            x  H                10         0.141509   0.885458   0.585561   x
            x  H                11         0.858491   0.385458   0.914439   x
            x  H                12         0.141509   0.614542   0.085561   x
            x  H                13         0.750756   0.910158   0.249993   x
            x  H                14         0.249244   0.089842   0.750007   x
            x  H                15         0.750756   0.589842   0.749993   x
            x  H                16         0.249244   0.410158   0.250007   x
            x  H                17         0.572801   0.395793   0.192591   x
            x  H                18         0.427199   0.604207   0.807409   x
            x  H                19         0.572801   0.104207   0.692591   x
            x  H                20         0.427199   0.895793   0.307409   x
            x  H                21         0.480583   0.595217   0.139076   x
            x  H                22         0.519417   0.404783   0.860924   x
            x  H                23         0.480583   0.904783   0.639076   x
            x  H                24         0.519417   0.095217   0.360924   x
            xxxxxxxxxxxxxxxxxxxxxxxxxxxxxxxxxxxxxxxxxxxxxxxxxxxxxxxxxxxxxxxxx


------------------------------------------------------------------------ <-- SCF
SCF loop      Energy                           Energy gain       Timer   <-- SCF
                                               per atom          (sec)   <-- SCF
------------------------------------------------------------------------ <-- SCF
Initial  -3.72682544E+002                                        563.98  <-- SCF
      1  -3.72697468E+002                    6.21845321E-004     585.30  <-- SCF
      2  -3.72697500E+002                    1.32426982E-006     611.08  <-- SCF
      3  -3.72696805E+002                   -2.89272525E-005     636.79  <-- SCF
      4  -3.72696789E+002                   -6.74157645E-007     662.60  <-- SCF
      5  -3.72696790E+002                    4.35397801E-008     688.25  <-- SCF
      6  -3.72696790E+002                    4.86609703E-009     713.77  <-- SCF
      7  -3.72696790E+002                    1.99571932E-011     731.79  <-- SCF
      8  -3.72696790E+002                    3.04322525E-012     750.27  <-- SCF
      9  -3.72696790E+002                   -4.33020138E-013     768.51  <-- SCF
------------------------------------------------------------------------ <-- SCF
 
Final energy =  -372.6967904537     eV
(energy not corrected for finite basis set)
 

 ******************************** Symmetrised Forces ********************************
 *                                                                                  *
 *                           Cartesian components (eV/A)                            *
 * -------------------------------------------------------------------------------- *
 *                         x                    y                    z              *
 *                                                                                  *
 * H               1     -0.06958             -0.10512              0.08782         *
 * H               2      0.06958              0.10512             -0.08782         *
 * H               3     -0.06958              0.10512              0.08782         *
 * H               4      0.06958             -0.10512             -0.08782         *
 * H               5      0.06894              0.10458             -0.08659         *
 * H               6     -0.06894             -0.10458              0.08659         *
 * H               7      0.06894             -0.10458             -0.08659         *
 * H               8     -0.06894              0.10458              0.08659         *
 * H               9      0.00359             -0.08910             -0.12305         *
 * H              10     -0.00359              0.08910              0.12305         *
 * H              11      0.00359              0.08910             -0.12305         *
 * H              12     -0.00359             -0.08910              0.12305         *
 * H              13     -0.00418              0.08898              0.12374         *
 * H              14      0.00418             -0.08898             -0.12374         *
 * H              15     -0.00418             -0.08898              0.12374         *
 * H              16      0.00418              0.08898             -0.12374         *
 * H              17     -0.11826              0.08693             -0.04044         *
 * H              18      0.11826             -0.08693              0.04044         *
 * H              19     -0.11826             -0.08693             -0.04044         *
 * H              20      0.11826              0.08693              0.04044         *
 * H              21      0.11833             -0.08778              0.04065         *
 * H              22     -0.11833              0.08778             -0.04065         *
 * H              23      0.11833              0.08778              0.04065         *
 * H              24     -0.11833             -0.08778             -0.04065         *
 *                                                                                  *
 ************************************************************************************

 *********** Symmetrised Stress Tensor ***********
 *                                               *
 *          Cartesian components (GPa)           *
 * --------------------------------------------- *
 *             x             y             z     *
 *                                               *
 *  x    -37.169911      0.000000     -0.067098  *
 *  y      0.000000    -36.822883      0.000000  *
 *  z     -0.067098      0.000000    -36.891149  *
 *                                               *
 *  Pressure:   36.9613                          *
 *                                               *
 *************************************************
  
 +------------+-------------+-------------+-----------------+ <-- min LBFGS
 |    Step    |   lambda    |   F.delta'  |    enthalpy     | <-- min LBFGS
 +------------+-------------+-------------+-----------------+ <-- min LBFGS
 |  previous  |    0.000000 |    0.309794 |     -357.694708 | <-- min LBFGS
 | trial step |    1.000000 |    0.218902 |     -357.777398 | <-- min LBFGS
 +------------+-------------+-------------+-----------------+ <-- min LBFGS
  

--------------------------------------------------------------------------------
 LBFGS: improving iteration         1 with line minimization (lambda=  3.408380)
--------------------------------------------------------------------------------
 
+---------------- MEMORY AND SCRATCH DISK ESTIMATES PER PROCESS --------------+
|                                                     Memory          Disk    |
| Model and support data                              111.6 MB         0.0 MB |
| Electronic energy minimisation requirements         105.4 MB         0.0 MB |
| Geometry minimisation requirements                  139.0 MB         0.0 MB |
|                                               ----------------------------- |
| Approx. total storage required per process          356.0 MB         0.0 MB |
|                                                                             |
| Requirements will fluctuate during execution and may exceed these estimates |
+-----------------------------------------------------------------------------+
 

                           -------------------------------
                                      Unit Cell
                           -------------------------------
        Real Lattice(A)              Reciprocal Lattice(1/A)
    10.3707677     0.0000000     0.0015390        0.605688542   0.000000000   1.124149389
     0.0000000     2.1614625     0.0000000        0.000000000   2.906913913   0.000000000
    -6.9154417     0.0000000     3.7260206       -0.000250182   0.000000000   1.685834802

                       Lattice parameters(A)       Cell Angles
                    a =     10.370768          alpha =   90.000000
                    b =      2.161462          beta  =  151.675834
                    c =      7.855352          gamma =   90.000000

                Current cell volume =            83.545576 A**3

                           -------------------------------
                                     Cell Contents
                           -------------------------------

            xxxxxxxxxxxxxxxxxxxxxxxxxxxxxxxxxxxxxxxxxxxxxxxxxxxxxxxxxxxxxxxxx
            x  Element         Atom        Fractional coordinates of atoms  x
            x                 Number           u          v          w      x
            x---------------------------------------------------------------x
            x  H                 1         0.837343   0.645987   0.106363   x
            x  H                 2         0.162657   0.354013   0.893637   x
            x  H                 3         0.837343   0.854013   0.606363   x
            x  H                 4         0.162657   0.145987   0.393637   x
            x  H                 5         0.881351   0.406826   0.221771   x
            x  H                 6         0.118649   0.593174   0.778229   x
            x  H                 7         0.881351   0.093174   0.721771   x
            x  H                 8         0.118649   0.906826   0.278229   x
            x  H                 9         0.858491   0.114542   0.414439   x
            x  H                10         0.141509   0.885458   0.585561   x
            x  H                11         0.858491   0.385458   0.914439   x
            x  H                12         0.141509   0.614542   0.085561   x
            x  H                13         0.750756   0.910158   0.249993   x
            x  H                14         0.249244   0.089842   0.750007   x
            x  H                15         0.750756   0.589842   0.749993   x
            x  H                16         0.249244   0.410158   0.250007   x
            x  H                17         0.572801   0.395793   0.192591   x
            x  H                18         0.427199   0.604207   0.807409   x
            x  H                19         0.572801   0.104207   0.692591   x
            x  H                20         0.427199   0.895793   0.307409   x
            x  H                21         0.480583   0.595217   0.139076   x
            x  H                22         0.519417   0.404783   0.860924   x
            x  H                23         0.480583   0.904783   0.639076   x
            x  H                24         0.519417   0.095217   0.360924   x
            xxxxxxxxxxxxxxxxxxxxxxxxxxxxxxxxxxxxxxxxxxxxxxxxxxxxxxxxxxxxxxxxx


------------------------------------------------------------------------ <-- SCF
SCF loop      Energy                           Energy gain       Timer   <-- SCF
                                               per atom          (sec)   <-- SCF
------------------------------------------------------------------------ <-- SCF
Initial  -3.73442283E+002                                        785.13  <-- SCF
      1  -3.73510279E+002                    2.83313730E-003     806.68  <-- SCF
      2  -3.73510452E+002                    7.24059931E-006     832.62  <-- SCF
      3  -3.73506477E+002                   -1.65637317E-004     858.10  <-- SCF
      4  -3.73506384E+002                   -3.88967408E-006     883.90  <-- SCF
      5  -3.73506390E+002                    2.73378886E-007     909.31  <-- SCF
      6  -3.73506391E+002                    3.15005857E-008     934.80  <-- SCF
      7  -3.73506391E+002                    1.35273477E-010     953.33  <-- SCF
      8  -3.73506391E+002                    1.69562630E-011     971.56  <-- SCF
      9  -3.73506391E+002                    2.96064932E-013     989.92  <-- SCF
     10  -3.73506391E+002                   -3.16205403E-013    1007.89  <-- SCF
------------------------------------------------------------------------ <-- SCF
 
Final energy =  -373.5063909830     eV
(energy not corrected for finite basis set)
 

 ******************************** Symmetrised Forces ********************************
 *                                                                                  *
 *                           Cartesian components (eV/A)                            *
 * -------------------------------------------------------------------------------- *
 *                         x                    y                    z              *
 *                                                                                  *
 * H               1     -0.22900             -0.34599              0.28897         *
 * H               2      0.22900              0.34599             -0.28897         *
 * H               3     -0.22900              0.34599              0.28897         *
 * H               4      0.22900             -0.34599             -0.28897         *
 * H               5      0.22692              0.34426             -0.28500         *
 * H               6     -0.22692             -0.34426              0.28500         *
 * H               7      0.22692             -0.34426             -0.28500         *
 * H               8     -0.22692              0.34426              0.28500         *
 * H               9      0.01189             -0.29324             -0.40497         *
 * H              10     -0.01189              0.29324              0.40497         *
 * H              11      0.01189              0.29324             -0.40497         *
 * H              12     -0.01189             -0.29324              0.40497         *
 * H              13     -0.01371              0.29290              0.40723         *
 * H              14      0.01371             -0.29290             -0.40723         *
 * H              15     -0.01371             -0.29290              0.40723         *
 * H              16      0.01371              0.29290             -0.40723         *
 * H              17     -0.38932              0.28610             -0.13311         *
 * H              18      0.38932             -0.28610              0.13311         *
 * H              19     -0.38932             -0.28610             -0.13311         *
 * H              20      0.38932              0.28610              0.13311         *
 * H              21      0.38943             -0.28891              0.13385         *
 * H              22     -0.38943              0.28891             -0.13385         *
 * H              23      0.38943              0.28891              0.13385         *
 * H              24     -0.38943             -0.28891             -0.13385         *
 *                                                                                  *
 ************************************************************************************

 *********** Symmetrised Stress Tensor ***********
 *                                               *
 *          Cartesian components (GPa)           *
 * --------------------------------------------- *
 *             x             y             z     *
 *                                               *
 *  x    -30.998858      0.000000     -0.214240  *
 *  y      0.000000    -29.901593      0.000000  *
 *  z     -0.214240      0.000000    -30.119075  *
 *                                               *
 *  Pressure:   30.3398                          *
 *                                               *
 *************************************************
  
 +------------+-------------+-------------+-----------------+ <-- min LBFGS
 |    Step    |   lambda    |   F.delta'  |    enthalpy     | <-- min LBFGS
 +------------+-------------+-------------+-----------------+ <-- min LBFGS
 |  previous  |    0.000000 |    0.309794 |     -357.694708 | <-- min LBFGS
 | trial step |    1.000000 |    0.218902 |     -357.777398 | <-- min LBFGS
 |  line step |    3.408380 |    0.011029 |     -357.862884 | <-- min LBFGS
 +------------+-------------+-------------+-----------------+ <-- min LBFGS
  
 LBFGS: finished iteration     1 with enthalpy= -3.57862884E+002 eV
  
 +-----------+-----------------+-----------------+------------+-----+ <-- LBFGS
 | Parameter |      value      |    tolerance    |    units   | OK? | <-- LBFGS
 +-----------+-----------------+-----------------+------------+-----+ <-- LBFGS
 |  dE/ion   |   7.007335E-003 |   1.000000E-009 |         eV | No  | <-- LBFGS
 |  |F|max   |   5.056247E-001 |   1.000000E-005 |       eV/A | No  | <-- LBFGS
 |  |dR|max  |   3.571741E-007 |   1.000000E-005 |          A | Yes | <-- LBFGS
 |   Smax    |   9.988584E-001 |   1.000000E-005 |        GPa | No  | <-- LBFGS
 +-----------+-----------------+-----------------+------------+-----+ <-- LBFGS
  

================================================================================
 Starting LBFGS iteration          2 ...
================================================================================
  
 +------------+-------------+-------------+-----------------+ <-- min LBFGS
 |    Step    |   lambda    |   F.delta'  |    enthalpy     | <-- min LBFGS
 +------------+-------------+-------------+-----------------+ <-- min LBFGS
 |  previous  |    0.000000 |    0.202601 |     -357.862884 | <-- min LBFGS
 +------------+-------------+-------------+-----------------+ <-- min LBFGS
  

--------------------------------------------------------------------------------
 LBFGS: starting iteration         2 with trial guess (lambda=  0.560603)
--------------------------------------------------------------------------------
 
+---------------- MEMORY AND SCRATCH DISK ESTIMATES PER PROCESS --------------+
|                                                     Memory          Disk    |
| Model and support data                              123.9 MB         0.0 MB |
| Electronic energy minimisation requirements         116.5 MB         0.0 MB |
| Geometry minimisation requirements                  153.1 MB         0.0 MB |
|                                               ----------------------------- |
| Approx. total storage required per process          393.6 MB         0.0 MB |
|                                                                             |
| Requirements will fluctuate during execution and may exceed these estimates |
+-----------------------------------------------------------------------------+
 

                           -------------------------------
                                      Unit Cell
                           -------------------------------
        Real Lattice(A)              Reciprocal Lattice(1/A)
    10.6353547     0.0000000     0.0024586        0.590529380   0.000000000   1.096506640
     0.0000000     2.2156674     0.0000000        0.000000000   2.835798067   0.000000000
    -7.0915572     0.0000000     3.8191952       -0.000380150   0.000000000   1.644453650

                       Lattice parameters(A)       Cell Angles
                    a =     10.635355          alpha =   90.000000
                    b =      2.215667          beta  =  151.681838
                    c =      8.054591          gamma =   90.000000

                Current cell volume =            90.035707 A**3

                           -------------------------------
                                     Cell Contents
                           -------------------------------

            xxxxxxxxxxxxxxxxxxxxxxxxxxxxxxxxxxxxxxxxxxxxxxxxxxxxxxxxxxxxxxxxx
            x  Element         Atom        Fractional coordinates of atoms  x
            x                 Number           u          v          w      x
            x---------------------------------------------------------------x
            x  H                 1         0.839089   0.636548   0.110936   x
            x  H                 2         0.160911   0.363452   0.889064   x
            x  H                 3         0.839089   0.863452   0.610936   x
            x  H                 4         0.160911   0.136548   0.389064   x
            x  H                 5         0.879634   0.416218   0.217262   x
            x  H                 6         0.120366   0.583782   0.782738   x
            x  H                 7         0.879634   0.083782   0.717262   x
            x  H                 8         0.120366   0.916218   0.282738   x
            x  H                 9         0.854286   0.106543   0.408032   x
            x  H                10         0.145714   0.893457   0.591968   x
            x  H                11         0.854286   0.393457   0.908032   x
            x  H                12         0.145714   0.606543   0.091968   x
            x  H                13         0.754974   0.918149   0.256436   x
            x  H                14         0.245026   0.081851   0.743564   x
            x  H                15         0.754974   0.581851   0.756436   x
            x  H                16         0.245026   0.418149   0.243564   x
            x  H                17         0.569184   0.403598   0.190486   x
            x  H                18         0.430816   0.596402   0.809514   x
            x  H                19         0.569184   0.096402   0.690486   x
            x  H                20         0.430816   0.903598   0.309514   x
            x  H                21         0.484208   0.587335   0.141193   x
            x  H                22         0.515792   0.412665   0.858807   x
            x  H                23         0.484208   0.912665   0.641193   x
            x  H                24         0.515792   0.087335   0.358807   x
            xxxxxxxxxxxxxxxxxxxxxxxxxxxxxxxxxxxxxxxxxxxxxxxxxxxxxxxxxxxxxxxxx


------------------------------------------------------------------------ <-- SCF
SCF loop      Energy                           Energy gain       Timer   <-- SCF
                                               per atom          (sec)   <-- SCF
------------------------------------------------------------------------ <-- SCF
Initial  -3.72328506E+002                                       1025.97  <-- SCF
      1  -3.74835253E+002                    1.04447774E-001    1052.70  <-- SCF
      2  -3.74842963E+002                    3.21276208E-004    1084.22  <-- SCF
      3  -3.74605110E+002                   -9.91057689E-003    1115.30  <-- SCF
      4  -3.74597369E+002                   -3.22502785E-004    1147.25  <-- SCF
      5  -3.74597584E+002                    8.91905630E-006    1178.70  <-- SCF
      6  -3.74597610E+002                    1.11002470E-006    1210.06  <-- SCF
      7  -3.74597610E+002                    6.86465415E-009    1241.75  <-- SCF
      8  -3.74597610E+002                    7.97584827E-010    1273.54  <-- SCF
      9  -3.74597610E+002                    1.25736964E-011    1295.96  <-- SCF
     10  -3.74597610E+002                    5.19624165E-013    1318.41  <-- SCF
     11  -3.74597610E+002                    3.40373969E-013    1340.89  <-- SCF
------------------------------------------------------------------------ <-- SCF
 
Final energy =  -374.5976103425     eV
(energy not corrected for finite basis set)
 

 ******************************** Symmetrised Forces ********************************
 *                                                                                  *
 *                           Cartesian components (eV/A)                            *
 * -------------------------------------------------------------------------------- *
 *                         x                    y                    z              *
 *                                                                                  *
 * H               1      0.47274              0.70157             -0.58734         *
 * H               2     -0.47274             -0.70157              0.58734         *
 * H               3      0.47274             -0.70157             -0.58734         *
 * H               4     -0.47274              0.70157              0.58734         *
 * H               5     -0.47052             -0.72006              0.59629         *
 * H               6      0.47052              0.72006             -0.59629         *
 * H               7     -0.47052              0.72006              0.59629         *
 * H               8      0.47052             -0.72006             -0.59629         *
 * H               9     -0.02370              0.57770              0.81448         *
 * H              10      0.02370             -0.57770             -0.81448         *
 * H              11     -0.02370             -0.57770              0.81448         *
 * H              12      0.02370              0.57770             -0.81448         *
 * H              13      0.02933             -0.58986             -0.80607         *
 * H              14     -0.02933              0.58986              0.80607         *
 * H              15      0.02933              0.58986             -0.80607         *
 * H              16     -0.02933             -0.58986              0.80607         *
 * H              17      0.79611             -0.58327              0.27085         *
 * H              18     -0.79611              0.58327             -0.27085         *
 * H              19      0.79611              0.58327              0.27085         *
 * H              20     -0.79611             -0.58327             -0.27085         *
 * H              21     -0.79123              0.58015             -0.26860         *
 * H              22      0.79123             -0.58015              0.26860         *
 * H              23     -0.79123             -0.58015             -0.26860         *
 * H              24      0.79123              0.58015              0.26860         *
 *                                                                                  *
 ************************************************************************************

 *********** Symmetrised Stress Tensor ***********
 *                                               *
 *          Cartesian components (GPa)           *
 * --------------------------------------------- *
 *             x             y             z     *
 *                                               *
 *  x    -30.866135      0.000000      0.397416  *
 *  y      0.000000    -32.029196      0.000000  *
 *  z      0.397416      0.000000    -31.648042  *
 *                                               *
 *  Pressure:   31.5145                          *
 *                                               *
 *************************************************
  
 +------------+-------------+-------------+-----------------+ <-- min LBFGS
 |    Step    |   lambda    |   F.delta'  |    enthalpy     | <-- min LBFGS
 +------------+-------------+-------------+-----------------+ <-- min LBFGS
 |  previous  |    0.000000 |    0.202601 |     -357.862884 | <-- min LBFGS
 | trial step |    0.560603 |   -0.371822 |     -357.738857 | <-- min LBFGS
 +------------+-------------+-------------+-----------------+ <-- min LBFGS
  

--------------------------------------------------------------------------------
 LBFGS: improving iteration         2 with line minimization (lambda=  0.197727)
--------------------------------------------------------------------------------

                           -------------------------------
                                      Unit Cell
                           -------------------------------
        Real Lattice(A)              Reciprocal Lattice(1/A)
    10.4640885     0.0000000     0.0018634        0.600253816   0.000000000   1.114241992
     0.0000000     2.1805807     0.0000000        0.000000000   2.881427506   0.000000000
    -6.9775582     0.0000000     3.7588836       -0.000297561   0.000000000   1.671003875

                       Lattice parameters(A)       Cell Angles
                    a =     10.464089          alpha =   90.000000
                    b =      2.180581          beta  =  151.677986
                    c =      7.925625          gamma =   90.000000

                Current cell volume =            85.797767 A**3

                           -------------------------------
                                     Cell Contents
                           -------------------------------

            xxxxxxxxxxxxxxxxxxxxxxxxxxxxxxxxxxxxxxxxxxxxxxxxxxxxxxxxxxxxxxxxx
            x  Element         Atom        Fractional coordinates of atoms  x
            x                 Number           u          v          w      x
            x---------------------------------------------------------------x
            x  H                 1         0.837959   0.642658   0.107976   x
            x  H                 2         0.162041   0.357342   0.892024   x
            x  H                 3         0.837959   0.857342   0.607976   x
            x  H                 4         0.162041   0.142658   0.392024   x
            x  H                 5         0.880745   0.410139   0.220181   x
            x  H                 6         0.119255   0.589861   0.779819   x
            x  H                 7         0.880745   0.089861   0.720181   x
            x  H                 8         0.119255   0.910139   0.279819   x
            x  H                 9         0.857008   0.111721   0.412179   x
            x  H                10         0.142992   0.888279   0.587821   x
            x  H                11         0.857008   0.388279   0.912179   x
            x  H                12         0.142992   0.611721   0.087821   x
            x  H                13         0.752243   0.912977   0.252266   x
            x  H                14         0.247757   0.087023   0.747734   x
            x  H                15         0.752243   0.587023   0.752266   x
            x  H                16         0.247757   0.412977   0.247734   x
            x  H                17         0.571525   0.398546   0.191849   x
            x  H                18         0.428475   0.601454   0.808151   x
            x  H                19         0.571525   0.101454   0.691849   x
            x  H                20         0.428475   0.898546   0.308151   x
            x  H                21         0.481861   0.592437   0.139822   x
            x  H                22         0.518139   0.407563   0.860178   x
            x  H                23         0.481861   0.907563   0.639822   x
            x  H                24         0.518139   0.092437   0.360178   x
            xxxxxxxxxxxxxxxxxxxxxxxxxxxxxxxxxxxxxxxxxxxxxxxxxxxxxxxxxxxxxxxxx


------------------------------------------------------------------------ <-- SCF
SCF loop      Energy                           Energy gain       Timer   <-- SCF
                                               per atom          (sec)   <-- SCF
------------------------------------------------------------------------ <-- SCF
Initial  -3.72980213E+002                                       1359.78  <-- SCF
      1  -3.74108780E+002                    4.70236082E-002    1381.32  <-- SCF
      2  -3.74111934E+002                    1.31429804E-004    1407.23  <-- SCF
      3  -3.74005009E+002                   -4.45523877E-003    1433.20  <-- SCF
      4  -3.74001703E+002                   -1.37728523E-004    1458.97  <-- SCF
      5  -3.74001769E+002                    2.74980749E-006    1484.95  <-- SCF
      6  -3.74001776E+002                    3.05788709E-007    1510.66  <-- SCF
      7  -3.74001776E+002                    1.51295021E-009    1536.37  <-- SCF
      8  -3.74001777E+002                    2.56541270E-010    1560.58  <-- SCF
      9  -3.74001777E+002                    8.48115256E-012    1578.79  <-- SCF
     10  -3.74001777E+002                   -1.00702358E-014    1596.87  <-- SCF
------------------------------------------------------------------------ <-- SCF
 
Final energy =  -374.0017765024     eV
(energy not corrected for finite basis set)
 

 ******************************** Symmetrised Forces ********************************
 *                                                                                  *
 *                           Cartesian components (eV/A)                            *
 * -------------------------------------------------------------------------------- *
 *                         x                    y                    z              *
 *                                                                                  *
 * H               1     -0.01104             -0.02214              0.01751         *
 * H               2      0.01104              0.02214             -0.01751         *
 * H               3     -0.01104              0.02214              0.01751         *
 * H               4      0.01104             -0.02214             -0.01751         *
 * H               5      0.01071              0.01328             -0.01139         *
 * H               6     -0.01071             -0.01328              0.01139         *
 * H               7      0.01071             -0.01328             -0.01139         *
 * H               8     -0.01071              0.01328              0.01139         *
 * H               9      0.00131             -0.02417             -0.02692         *
 * H              10     -0.00131              0.02417              0.02692         *
 * H              11      0.00131              0.02417             -0.02692         *
 * H              12     -0.00131             -0.02417              0.02692         *
 * H              13      0.00003              0.01872              0.03188         *
 * H              14     -0.00003             -0.01872             -0.03188         *
 * H              15      0.00003             -0.01872              0.03188         *
 * H              16     -0.00003              0.01872             -0.03188         *
 * H              17     -0.02143              0.01640             -0.00762         *
 * H              18      0.02143             -0.01640              0.00762         *
 * H              19     -0.02143             -0.01640             -0.00762         *
 * H              20      0.02143              0.01640              0.00762         *
 * H              21      0.02348             -0.01925              0.00905         *
 * H              22     -0.02348              0.01925             -0.00905         *
 * H              23      0.02348              0.01925              0.00905         *
 * H              24     -0.02348             -0.01925             -0.00905         *
 *                                                                                  *
 ************************************************************************************

 *********** Symmetrised Stress Tensor ***********
 *                                               *
 *          Cartesian components (GPa)           *
 * --------------------------------------------- *
 *             x             y             z     *
 *                                               *
 *  x    -30.735548      0.000000     -0.008842  *
 *  y      0.000000    -30.365304      0.000000  *
 *  z     -0.008842      0.000000    -30.389909  *
 *                                               *
 *  Pressure:   30.4969                          *
 *                                               *
 *************************************************
  
 +------------+-------------+-------------+-----------------+ <-- min LBFGS
 |    Step    |   lambda    |   F.delta'  |    enthalpy     | <-- min LBFGS
 +------------+-------------+-------------+-----------------+ <-- min LBFGS
 |  previous  |    0.000000 |    0.202601 |     -357.862884 | <-- min LBFGS
 | trial step |    0.560603 |   -0.371822 |     -357.738857 | <-- min LBFGS
 |  line step |    0.197727 |    0.022919 |     -357.936558 | <-- min LBFGS
 +------------+-------------+-------------+-----------------+ <-- min LBFGS
  
 LBFGS: finished iteration     2 with enthalpy= -3.57936558E+002 eV
  
 +-----------+-----------------+-----------------+------------+-----+ <-- LBFGS
 | Parameter |      value      |    tolerance    |    units   | OK? | <-- LBFGS
 +-----------+-----------------+-----------------+------------+-----+ <-- LBFGS
 |  dE/ion   |   3.069747E-003 |   1.000000E-009 |         eV | No  | <-- LBFGS
 |  |F|max   |   3.696602E-002 |   1.000000E-005 |       eV/A | No  | <-- LBFGS
 |  |dR|max  |   1.060914E-002 |   1.000000E-005 |          A | No  | <-- LBFGS
 |   Smax    |   7.355478E-001 |   1.000000E-005 |        GPa | No  | <-- LBFGS
 +-----------+-----------------+-----------------+------------+-----+ <-- LBFGS
  

================================================================================
 Starting LBFGS iteration          3 ...
================================================================================
  
 +------------+-------------+-------------+-----------------+ <-- min LBFGS
 |    Step    |   lambda    |   F.delta'  |    enthalpy     | <-- min LBFGS
 +------------+-------------+-------------+-----------------+ <-- min LBFGS
 |  previous  |    0.000000 |    0.021962 |     -357.936558 | <-- min LBFGS
 +------------+-------------+-------------+-----------------+ <-- min LBFGS
  

--------------------------------------------------------------------------------
 LBFGS: starting iteration         3 with trial guess (lambda=  1.000000)
--------------------------------------------------------------------------------

                           -------------------------------
                                      Unit Cell
                           -------------------------------
        Real Lattice(A)              Reciprocal Lattice(1/A)
    10.4911507     0.0000000     0.0018746        0.598704719   0.000000000   1.111636340
     0.0000000     2.1856633     0.0000000        0.000000000   2.874726981   0.000000000
    -6.9956011     0.0000000     3.7676885       -0.000297883   0.000000000   1.667096817

                       Lattice parameters(A)       Cell Angles
                    a =     10.491151          alpha =   90.000000
                    b =      2.185663          beta  =  151.683760
                    c =      7.945685          gamma =   90.000000

                Current cell volume =            86.422223 A**3

                           -------------------------------
                                     Cell Contents
                           -------------------------------

            xxxxxxxxxxxxxxxxxxxxxxxxxxxxxxxxxxxxxxxxxxxxxxxxxxxxxxxxxxxxxxxxx
            x  Element         Atom        Fractional coordinates of atoms  x
            x                 Number           u          v          w      x
            x---------------------------------------------------------------x
            x  H                 1         0.838070   0.642163   0.108185   x
            x  H                 2         0.161930   0.357837   0.891815   x
            x  H                 3         0.838070   0.857837   0.608185   x
            x  H                 4         0.161930   0.142163   0.391815   x
            x  H                 5         0.880754   0.410165   0.220156   x
            x  H                 6         0.119246   0.589835   0.779844   x
            x  H                 7         0.880754   0.089835   0.720156   x
            x  H                 8         0.119246   0.910165   0.279844   x
            x  H                 9         0.856773   0.111013   0.411812   x
            x  H                10         0.143227   0.888987   0.588188   x
            x  H                11         0.856773   0.388987   0.911812   x
            x  H                12         0.143227   0.611013   0.088188   x
            x  H                13         0.752595   0.913395   0.252784   x
            x  H                14         0.247405   0.086605   0.747216   x
            x  H                15         0.752595   0.586605   0.752784   x
            x  H                16         0.247405   0.413395   0.247216   x
            x  H                17         0.571393   0.398854   0.191766   x
            x  H                18         0.428607   0.601146   0.808234   x
            x  H                19         0.571393   0.101146   0.691766   x
            x  H                20         0.428607   0.898854   0.308234   x
            x  H                21         0.482046   0.591983   0.139949   x
            x  H                22         0.517954   0.408017   0.860051   x
            x  H                23         0.482046   0.908017   0.639949   x
            x  H                24         0.517954   0.091983   0.360051   x
            xxxxxxxxxxxxxxxxxxxxxxxxxxxxxxxxxxxxxxxxxxxxxxxxxxxxxxxxxxxxxxxxx


------------------------------------------------------------------------ <-- SCF
SCF loop      Energy                           Energy gain       Timer   <-- SCF
                                               per atom          (sec)   <-- SCF
------------------------------------------------------------------------ <-- SCF
Initial  -3.74110442E+002                                       1613.22  <-- SCF
      1  -3.74120933E+002                    4.37137752E-004    1634.93  <-- SCF
      2  -3.74120966E+002                    1.34370320E-006    1660.72  <-- SCF
      3  -3.74120033E+002                   -3.88620152E-005    1686.53  <-- SCF
      4  -3.74120003E+002                   -1.25679816E-006    1712.32  <-- SCF
      5  -3.74120003E+002                    2.84715897E-008    1738.14  <-- SCF
      6  -3.74120003E+002                    3.42211988E-009    1763.93  <-- SCF
      7  -3.74120003E+002                   -4.04622073E-012    1782.58  <-- SCF
      8  -3.74120003E+002                    7.30293498E-012    1800.81  <-- SCF
------------------------------------------------------------------------ <-- SCF
 
Final energy =  -374.1200034784     eV
(energy not corrected for finite basis set)
 

 ******************************** Symmetrised Forces ********************************
 *                                                                                  *
 *                           Cartesian components (eV/A)                            *
 * -------------------------------------------------------------------------------- *
 *                         x                    y                    z              *
 *                                                                                  *
 * H               1     -0.01446             -0.02616              0.02122         *
 * H               2      0.01446              0.02616             -0.02122         *
 * H               3     -0.01446              0.02616              0.02122         *
 * H               4      0.01446             -0.02616             -0.02122         *
 * H               5      0.01356              0.01751             -0.01583         *
 * H               6     -0.01356             -0.01751              0.01583         *
 * H               7      0.01356             -0.01751             -0.01583         *
 * H               8     -0.01356              0.01751              0.01583         *
 * H               9     -0.00162              0.02717              0.04405         *
 * H              10      0.00162             -0.02717             -0.04405         *
 * H              11     -0.00162             -0.02717              0.04405         *
 * H              12      0.00162              0.02717             -0.04405         *
 * H              13      0.00254             -0.03262             -0.03990         *
 * H              14     -0.00254              0.03262              0.03990         *
 * H              15      0.00254              0.03262             -0.03990         *
 * H              16     -0.00254             -0.03262              0.03990         *
 * H              17      0.00096             -0.00008             -0.00014         *
 * H              18     -0.00096              0.00008              0.00014         *
 * H              19      0.00096              0.00008             -0.00014         *
 * H              20     -0.00096             -0.00008              0.00014         *
 * H              21      0.00049             -0.00253              0.00105         *
 * H              22     -0.00049              0.00253             -0.00105         *
 * H              23      0.00049              0.00253              0.00105         *
 * H              24     -0.00049             -0.00253             -0.00105         *
 *                                                                                  *
 ************************************************************************************

 *********** Symmetrised Stress Tensor ***********
 *                                               *
 *          Cartesian components (GPa)           *
 * --------------------------------------------- *
 *             x             y             z     *
 *                                               *
 *  x    -30.183764      0.000000     -0.039734  *
 *  y      0.000000    -29.927241      0.000000  *
 *  z     -0.039734      0.000000    -30.064860  *
 *                                               *
 *  Pressure:   30.0586                          *
 *                                               *
 *************************************************
  
 +------------+-------------+-------------+-----------------+ <-- min LBFGS
 |    Step    |   lambda    |   F.delta'  |    enthalpy     | <-- min LBFGS
 +------------+-------------+-------------+-----------------+ <-- min LBFGS
 |  previous  |    0.000000 |    0.021962 |     -357.936558 | <-- min LBFGS
 | trial step |    1.000000 |   -0.002601 |     -357.937853 | <-- min LBFGS
 +------------+-------------+-------------+-----------------+ <-- min LBFGS
  
 LBFGS: finished iteration     3 with enthalpy= -3.57937853E+002 eV
  
 +-----------+-----------------+-----------------+------------+-----+ <-- LBFGS
 | Parameter |      value      |    tolerance    |    units   | OK? | <-- LBFGS
 +-----------+-----------------+-----------------+------------+-----+ <-- LBFGS
 |  dE/ion   |   5.392972E-005 |   1.000000E-009 |         eV | No  | <-- LBFGS
 |  |F|max   |   5.178703E-002 |   1.000000E-005 |       eV/A | No  | <-- LBFGS
 |  |dR|max  |   2.157277E-003 |   1.000000E-005 |          A | No  | <-- LBFGS
 |   Smax    |   1.837635E-001 |   1.000000E-005 |        GPa | No  | <-- LBFGS
 +-----------+-----------------+-----------------+------------+-----+ <-- LBFGS
  

================================================================================
 Starting LBFGS iteration          4 ...
================================================================================
  
 +------------+-------------+-------------+-----------------+ <-- min LBFGS
 |    Step    |   lambda    |   F.delta'  |    enthalpy     | <-- min LBFGS
 +------------+-------------+-------------+-----------------+ <-- min LBFGS
 |  previous  |    0.000000 |    0.013950 |     -357.937853 | <-- min LBFGS
 +------------+-------------+-------------+-----------------+ <-- min LBFGS
  

--------------------------------------------------------------------------------
 LBFGS: starting iteration         4 with trial guess (lambda=  1.000000)
--------------------------------------------------------------------------------

                           -------------------------------
                                      Unit Cell
                           -------------------------------
        Real Lattice(A)              Reciprocal Lattice(1/A)
    10.5135391     0.0000000     0.0021549        0.597400581   0.000000000   1.109546590
     0.0000000     2.1895388     0.0000000        0.000000000   2.869638710   0.000000000
    -7.0104305     0.0000000     3.7745465       -0.000341054   0.000000000   1.663986466

                       Lattice parameters(A)       Cell Angles
                    a =     10.513539          alpha =   90.000000
                    b =      2.189539          beta  =  151.689406
                    c =      7.961993          gamma =   90.000000

                Current cell volume =            86.922390 A**3

                           -------------------------------
                                     Cell Contents
                           -------------------------------

            xxxxxxxxxxxxxxxxxxxxxxxxxxxxxxxxxxxxxxxxxxxxxxxxxxxxxxxxxxxxxxxxx
            x  Element         Atom        Fractional coordinates of atoms  x
            x                 Number           u          v          w      x
            x---------------------------------------------------------------x
            x  H                 1         0.838405   0.640514   0.108945   x
            x  H                 2         0.161595   0.359486   0.891055   x
            x  H                 3         0.838405   0.859486   0.608945   x
            x  H                 4         0.161595   0.140514   0.391055   x
            x  H                 5         0.880593   0.411084   0.219673   x
            x  H                 6         0.119407   0.588916   0.780327   x
            x  H                 7         0.880593   0.088916   0.719673   x
            x  H                 8         0.119407   0.911084   0.280327   x
            x  H                 9         0.857230   0.111487   0.412507   x
            x  H                10         0.142770   0.888513   0.587493   x
            x  H                11         0.857230   0.388513   0.912507   x
            x  H                12         0.142770   0.611487   0.087493   x
            x  H                13         0.752303   0.912466   0.252308   x
[...]
 *                                                                                  *
 ************************************************************************************

 *********** Symmetrised Stress Tensor ***********
 *                                               *
 *          Cartesian components (GPa)           *
 * --------------------------------------------- *
 *             x             y             z     *
 *                                               *
 *  x    -30.000001      0.000000     -0.000006  *
 *  y      0.000000    -30.000006      0.000000  *
 *  z     -0.000006      0.000000    -29.999992  *
 *                                               *
 *  Pressure:   30.0000                          *
 *                                               *
 *************************************************
  
 +------------+-------------+-------------+-----------------+ <-- min LBFGS
 |    Step    |   lambda    |   F.delta'  |    enthalpy     | <-- min LBFGS
 +------------+-------------+-------------+-----------------+ <-- min LBFGS
 |  previous  |    0.000000 |  3.847E-007 |     -357.938431 | <-- min LBFGS
 | trial step |    1.000000 | -1.917E-007 |     -357.938431 | <-- min LBFGS
 +------------+-------------+-------------+-----------------+ <-- min LBFGS
  
 LBFGS: finished iteration    34 with enthalpy= -3.57938431E+002 eV
  
 +-----------+-----------------+-----------------+------------+-----+ <-- LBFGS
 | Parameter |      value      |    tolerance    |    units   | OK? | <-- LBFGS
 +-----------+-----------------+-----------------+------------+-----+ <-- LBFGS
 |  dE/ion   |   3.564863E-013 |   1.000000E-009 |         eV | Yes | <-- LBFGS
 |  |F|max   |   1.084099E-006 |   1.000000E-005 |       eV/A | Yes | <-- LBFGS
 |  |dR|max  |   4.602778E-007 |   1.000000E-005 |          A | Yes | <-- LBFGS
 |   Smax    |   8.046284E-006 |   1.000000E-005 |        GPa | Yes | <-- LBFGS
 +-----------+-----------------+-----------------+------------+-----+ <-- LBFGS
  
 LBFGS: Geometry optimization completed successfully.

================================================================================
 LBFGS: Final Configuration:
================================================================================

                           -------------------------------
                                      Unit Cell
                           -------------------------------
        Real Lattice(A)              Reciprocal Lattice(1/A)
    10.5123069     0.0000000     0.0019927        0.597487139   0.000000000   1.112624734
     0.0000000     2.1841972     0.0000000        0.000000000   2.876656591   0.000000000
    -7.0096656     0.0000000     3.7642387       -0.000316295   0.000000000   1.668589257

                       Lattice parameters(A)       Cell Angles
                    a =     10.512307          alpha =   90.000000
                    b =      2.184197          beta  =  151.753035
                    c =      7.956438          gamma =   90.000000

                Current cell volume =            86.461010 A**3

                           -------------------------------
                                     Cell Contents
                           -------------------------------

            xxxxxxxxxxxxxxxxxxxxxxxxxxxxxxxxxxxxxxxxxxxxxxxxxxxxxxxxxxxxxxxxx
            x  Element         Atom        Fractional coordinates of atoms  x
            x                 Number           u          v          w      x
            x---------------------------------------------------------------x
            x  H                 1         0.839269   0.638241   0.109457   x
            x  H                 2         0.160731   0.361759   0.890543   x
            x  H                 3         0.839269   0.861759   0.609457   x
            x  H                 4         0.160731   0.138241   0.390543   x
            x  H                 5         0.880096   0.407786   0.220035   x
            x  H                 6         0.119904   0.592214   0.779965   x
            x  H                 7         0.880096   0.092214   0.720035   x
            x  H                 8         0.119904   0.907786   0.279965   x
            x  H                 9         0.856808   0.109795   0.412135   x
            x  H                10         0.143192   0.890205   0.587865   x
            x  H                11         0.856808   0.390205   0.912135   x
            x  H                12         0.143192   0.609795   0.087865   x
            x  H                13         0.752606   0.911680   0.252673   x
            x  H                14         0.247394   0.088320   0.747327   x
            x  H                15         0.752606   0.588320   0.752673   x
            x  H                16         0.247394   0.411680   0.247327   x
            x  H                17         0.571470   0.399275   0.191612   x
            x  H                18         0.428530   0.600725   0.808388   x
            x  H                19         0.571470   0.100725   0.691612   x
            x  H                20         0.428530   0.899275   0.308388   x
            x  H                21         0.482559   0.590910   0.140840   x
            x  H                22         0.517441   0.409090   0.859160   x
            x  H                23         0.482559   0.909090   0.640840   x
            x  H                24         0.517441   0.090910   0.359160   x
            xxxxxxxxxxxxxxxxxxxxxxxxxxxxxxxxxxxxxxxxxxxxxxxxxxxxxxxxxxxxxxxxx


 LBFGS: Final Enthalpy     = -3.57938431E+002 eV
 LBFGS: Final <frequency>  =     671.48503 cm-1
 LBFGS: Final bulk modulus =      86.14250 GPa

 ******************************** Symmetrised Forces ********************************
 *                                                                                  *
 *                           Cartesian components (eV/A)                            *
 * -------------------------------------------------------------------------------- *
 *                         x                    y                    z              *
 *                                                                                  *
 * H               1     -0.00000              0.00000              0.00000         *
 * H               2      0.00000             -0.00000             -0.00000         *
 * H               3     -0.00000             -0.00000              0.00000         *
 * H               4      0.00000              0.00000             -0.00000         *
 * H               5      0.00000              0.00000             -0.00000         *
 * H               6     -0.00000             -0.00000              0.00000         *
 * H               7      0.00000             -0.00000             -0.00000         *
 * H               8     -0.00000              0.00000              0.00000         *
 * H               9      0.00000              0.00000             -0.00000         *
 * H              10     -0.00000             -0.00000              0.00000         *
 * H              11      0.00000             -0.00000             -0.00000         *
 * H              12     -0.00000              0.00000              0.00000         *
 * H              13     -0.00000             -0.00000              0.00000         *
 * H              14      0.00000              0.00000             -0.00000         *
 * H              15     -0.00000              0.00000              0.00000         *
 * H              16      0.00000             -0.00000             -0.00000         *
 * H              17     -0.00000             -0.00000              0.00000         *
 * H              18      0.00000              0.00000             -0.00000         *
 * H              19     -0.00000              0.00000              0.00000         *
 * H              20      0.00000             -0.00000             -0.00000         *
 * H              21      0.00000              0.00000             -0.00000         *
 * H              22     -0.00000             -0.00000              0.00000         *
 * H              23      0.00000             -0.00000             -0.00000         *
 * H              24     -0.00000              0.00000              0.00000         *
 *                                                                                  *
 ************************************************************************************

 *********** Symmetrised Stress Tensor ***********
 *                                               *
 *          Cartesian components (GPa)           *
 * --------------------------------------------- *
 *             x             y             z     *
 *                                               *
 *  x    -30.000001      0.000000     -0.000006  *
 *  y      0.000000    -30.000006      0.000000  *
 *  z     -0.000006      0.000000    -29.999992  *
 *                                               *
 *  Pressure:   30.0000                          *
 *                                               *
 *************************************************

 Pseudo atomic calculation performed for H 1s1

 Converged in 24 iterations to a total energy of -12.4843 eV

Charge spilling parameter for spin component 1 = 0.77%

            Orbital Populations       
     Ion    Atom   Orbital             Charge
  -------------------------------------------
      H     1      S                    0.987
      H     2      S                    0.987
      H     3      S                    0.987
      H     4      S                    0.987
      H     5      S                    1.012
      H     6      S                    1.012
      H     7      S                    1.013
      H     8      S                    1.013
      H     9      S                    1.009
      H    10      S                    1.009
      H    11      S                    1.010
      H    12      S                    1.010
      H    13      S                    0.991
      H    14      S                    0.991
      H    15      S                    0.991
      H    16      S                    0.991
      H    17      S                    1.001
      H    18      S                    1.001
      H    19      S                    1.001
      H    20      S                    1.001
      H    21      S                    0.999
      H    22      S                    0.999
      H    23      S                    0.999
      H    24      S                    0.999
  -------------------------------------------
                           Total:      24.000
  -------------------------------------------

     Atomic Populations (Mulliken)
     -----------------------------
Species          Ion     s      p      d      f     Total  Charge (e)
=====================================================================
  H               1     0.99   0.00   0.00   0.00   0.99     0.01
  H               2     0.99   0.00   0.00   0.00   0.99     0.01
  H               3     0.99   0.00   0.00   0.00   0.99     0.01
  H               4     0.99   0.00   0.00   0.00   0.99     0.01
  H               5     1.01   0.00   0.00   0.00   1.01    -0.01
  H               6     1.01   0.00   0.00   0.00   1.01    -0.01
  H               7     1.01   0.00   0.00   0.00   1.01    -0.01
  H               8     1.01   0.00   0.00   0.00   1.01    -0.01
  H               9     1.01   0.00   0.00   0.00   1.01    -0.01
  H              10     1.01   0.00   0.00   0.00   1.01    -0.01
  H              11     1.01   0.00   0.00   0.00   1.01    -0.01
  H              12     1.01   0.00   0.00   0.00   1.01    -0.01
  H              13     0.99   0.00   0.00   0.00   0.99     0.01
  H              14     0.99   0.00   0.00   0.00   0.99     0.01
  H              15     0.99   0.00   0.00   0.00   0.99     0.01
  H              16     0.99   0.00   0.00   0.00   0.99     0.01
  H              17     1.00   0.00   0.00   0.00   1.00    -0.00
  H              18     1.00   0.00   0.00   0.00   1.00    -0.00
  H              19     1.00   0.00   0.00   0.00   1.00    -0.00
  H              20     1.00   0.00   0.00   0.00   1.00    -0.00
  H              21     1.00   0.00   0.00   0.00   1.00     0.00
  H              22     1.00   0.00   0.00   0.00   1.00     0.00
  H              23     1.00   0.00   0.00   0.00   1.00     0.00
  H              24     1.00   0.00   0.00   0.00   1.00     0.00
=====================================================================

                 Bond                   Population      Length (A)
======================================================================
              H 2  -- H 6                    1.22        0.73916
              H 3  -- H 7                    1.22        0.73916
              H 1  -- H 5                    1.22        0.73916
              H 4  -- H 8                    1.22        0.73916
              H 19 -- H 23                   1.23        0.73943
              H 17 -- H 21                   1.23        0.73943
              H 18 -- H 22                   1.23        0.73943
              H 20 -- H 24                   1.23        0.73943
              H 11 -- H 15                   1.22        0.74047
              H 10 -- H 14                   1.22        0.74047
              H 9  -- H 13                   1.22        0.74047
              H 12 -- H 16                   1.22        0.74047
              H 5  -- H 10                  -0.11        1.75042
              H 7  -- H 12                  -0.11        1.75042
              H 8  -- H 11                  -0.11        1.75042
              H 6  -- H 9                   -0.11        1.75042
              H 9  -- H 17                  -0.10        1.78976
              H 11 -- H 19                  -0.10        1.78976
              H 12 -- H 20                  -0.10        1.78976
              H 10 -- H 18                  -0.10        1.78976
              H 21 -- H 24                  -0.11        1.79507
              H 22 -- H 23                  -0.11        1.79507
              H 3  -- H 9                   -0.06        1.81723
              H 1  -- H 11                  -0.06        1.81723
              H 4  -- H 10                  -0.06        1.81723
              H 2  -- H 12                  -0.06        1.81723
              H 16 -- H 19                  -0.09        1.82918
              H 14 -- H 17                  -0.09        1.82918
              H 13 -- H 18                  -0.09        1.82918
              H 15 -- H 20                  -0.09        1.82918
              H 14 -- H 18                  -0.10        1.83472
              H 16 -- H 20                  -0.10        1.83472
              H 15 -- H 19                  -0.10        1.83472
              H 13 -- H 17                  -0.10        1.83472
              H 16 -- H 23                  -0.10        1.85954
              H 13 -- H 22                  -0.10        1.85954
              H 15 -- H 24                  -0.10        1.85954
              H 14 -- H 21                  -0.10        1.85954
              H 8  -- H 12                  -0.10        1.86518
              H 6  -- H 10                  -0.10        1.86518
              H 5  -- H 9                   -0.10        1.86518
              H 7  -- H 11                  -0.10        1.86518
              H 7  -- H 24                  -0.05        1.86887
              H 5  -- H 22                  -0.05        1.86887
              H 6  -- H 21                  -0.05        1.86887
              H 8  -- H 23                  -0.05        1.86887
              H 4  -- H 18                  -0.10        1.87322
              H 1  -- H 19                  -0.10        1.87322
              H 3  -- H 17                  -0.10        1.87322
              H 2  -- H 20                  -0.10        1.87322
              H 2  -- H 9                   -0.10        1.89030
              H 3  -- H 12                  -0.10        1.89030
              H 1  -- H 10                  -0.10        1.89030
              H 4  -- H 11                  -0.10        1.89030
              H 5  -- H 13                  -0.10        1.91075
              H 8  -- H 16                  -0.10        1.91075
              H 7  -- H 15                  -0.10        1.91075
              H 6  -- H 14                  -0.10        1.91075
              H 17 -- H 18                  -0.05        1.91739
              H 19 -- H 20                  -0.05        1.91739
              H 4  -- H 22                  -0.09        1.91842
              H 2  -- H 24                  -0.09        1.91842
              H 3  -- H 21                  -0.09        1.91842
              H 1  -- H 23                  -0.09        1.91842
              H 2  -- H 21                  -0.04        1.94729
              H 3  -- H 24                  -0.04        1.94729
              H 4  -- H 23                  -0.04        1.94729
              H 1  -- H 22                  -0.04        1.94729
              H 11 -- H 12                  -0.04        1.95762
              H 9  -- H 10                  -0.04        1.95762
              H 3  -- H 6                   -0.08        1.95934
              H 1  -- H 8                   -0.08        1.95934
              H 4  -- H 5                   -0.08        1.95934
              H 2  -- H 7                   -0.08        1.95934
              H 17 -- H 24                  -0.10        1.97163
              H 19 -- H 22                  -0.10        1.97163
              H 20 -- H 21                  -0.10        1.97163
              H 18 -- H 23                  -0.10        1.97163
              H 1  -- H 4                   -0.09        2.07335
              H 2  -- H 3                   -0.09        2.07335
              H 2  -- H 14                  -0.09        2.07704
              H 4  -- H 16                  -0.09        2.07704
              H 1  -- H 13                  -0.09        2.07704
              H 3  -- H 15                  -0.09        2.07704
              H 4  -- H 14                  -0.05        2.08419
              H 1  -- H 15                  -0.05        2.08419
              H 3  -- H 13                  -0.05        2.08419
              H 2  -- H 16                  -0.05        2.08419
              H 8  -- H 15                  -0.08        2.11108
              H 5  -- H 14                  -0.08        2.11108
              H 6  -- H 13                  -0.08        2.11108
              H 7  -- H 16                  -0.08        2.11108
              H 7  -- H 17                  -0.08        2.14945
              H 6  -- H 20                  -0.08        2.14945
              H 5  -- H 19                  -0.08        2.14945
              H 8  -- H 18                  -0.08        2.14945
              H 20 -- H 23                  -0.04        2.16169
              H 18 -- H 21                  -0.04        2.16169
              H 17 -- H 22                  -0.04        2.16169
              H 19 -- H 24                  -0.04        2.16169
              H 10 -- H 13                  -0.04        2.16357
              H 12 -- H 15                  -0.04        2.16357
              H 11 -- H 16                  -0.04        2.16357
              H 9  -- H 14                  -0.04        2.16357
======================================================================


Writing analysis data to P21c.castep_bin

Writing model to P21c.check
 
 A BibTeX formatted list of references used in this run has been written to 
 P21c.bib
 
Initialisation time =      4.04 s
Calculation time    =  10415.36 s
Finalisation time   =     20.62 s
Total time          =  10440.02 s
Peak Memory Use     = 709628 kB
  
Overall parallel efficiency rating: Excellent (95%)                             
  
Data was distributed by:-
k-point (16-way); efficiency rating: Excellent (95%)                            
