 +-------------------------------------------------+
 |                                                 |
 |      CCC   AA    SSS  TTTTT  EEEEE  PPPP        |
 |     C     A  A  S       T    E      P   P       |
 |     C     AAAA   SS     T    EEE    PPPP        |
 |     C     A  A     S    T    E      P           |
 |      CCC  A  A  SSS     T    EEEEE  P           |
 |                                                 |
 +-------------------------------------------------+
 |                                                 |
 | Welcome to Academic Release CASTEP version 18.1 |          
 | Ab Initio Total Energy Program                  |
 |                                                 |
 | Authors:                                        |
 | M. Segall, M. Probert, C. Pickard, P. Hasnip,   |
 | S. Clark, K. Refson, J. R. Yates, M. Payne      |
 |                                                 |
 | Contributors:                                   |
 | P. Lindan, P. Haynes, J. White, V. Milman,      |
 | N. Govind, M. Gibson, P. Tulip, V. Cocula,      |
 | B. Montanari, D. Quigley, M. Glover,            |
 | L. Bernasconi, A. Perlov, M. Plummer,           |
 | E. McNellis, J. Meyer, J. Gale, D. Jochym       |
 | J. Aarons, B. Walker, R. Gillen, D. Jones       |
 | T. Green, I. J. Bush, C. J. Armstrong,          |
 | E. J. Higgins, E. L. Brown, M. S. McFly,        |
 | J. Wilkins, B-C. Shih, P. J. P. Byrne           |
 |                                                 |
 | Copyright (c) 2000 - 2017                       |
 |                                                 |
 |     Distributed under the terms of an           |
 |     Agreement between the United Kingdom        |
 |     Car-Parrinello (UKCP) Consortium,           |
 |     Daresbury Laboratory and Accelrys, Inc.     |
 |                                                 |
 | Please cite                                     |
 |                                                 |
 |     "First principles methods using CASTEP"     |
 |                                                 |
 |         Zeitschrift fuer Kristallographie       |
 |           220(5-6) pp. 567-570 (2005)           |
 |                                                 |
 | S. J. Clark, M. D. Segall, C. J. Pickard,       |
 | P. J. Hasnip, M. J. Probert, K. Refson,         |
 | M. C. Payne                                     |
 |                                                 |
 |       in all publications arising from          |
 |              your use of CASTEP                 |
 |                                                 |
 +-------------------------------------------------+


 Compiled for linux_x86_64_gfortran4.8 on Thu, 19 Jul 2018 15:42:32 +0100
 from code version 70483bd0ad64+  Sun, 10 Dec 2017 12:18:29 +0000
 Compiler: GNU Fortran 4.8.5; Optimisation: fast
 MATHLIBS: Intel MKL(2018.0.0) (LAPACK version 3.7.0)
 FFT Lib : mkl
 Fundamental constants values: CODATA 2014

 Run started: Fri, 21 Aug 2020 19:29:10 +0100

 Atomic calculation performed for H: 1s1

 Converged in 41 iterations to an ae energy of -12.488 eV

   ============================================================                
   | Pseudopotential Report - Date of generation 21-08-2020   |                
   ------------------------------------------------------------                
   | Element: H Ionic charge:  1.00 Level of theory: PBE      |                
   | Atomic Solver: Koelling-Harmon                           |                
   |                                                          |                
   |               Reference Electronic Structure             |                
   |         Orbital         Occupation         Energy        |                
   |            1s              1.000           -0.239        |                
   |                                                          |                
   |                 Pseudopotential Definition               |                
   |        Beta     l      e      Rc     scheme   norm       |                
   |         loc     0   -0.239   0.702     qc      1         |                
   |                                                          |                
   | No charge augmentation                                   |                
   | No partial core correction                               |                
   ------------------------------------------------------------                
   | "0|0.7|2|6|8|10L(qc=10)"                                 |                
   ------------------------------------------------------------                
   |      Author: Chris J. Pickard, Cambridge University      |                
   ============================================================                

 Pseudo atomic calculation performed for H 1s1

 Converged in 24 iterations to a total energy of -12.4843 eV

 Calculation parallelised over 16 processes.
 Data is distributed by k-point(16-way)

 ************************************ Title ************************************
 

 ***************************** General Parameters ******************************
  
 output verbosity                               : normal  (1)
 write checkpoint data to                       : P21c.check
 type of calculation                            : geometry optimization
 stress calculation                             : on
 density difference calculation                 : off
 electron localisation func (ELF) calculation   : off
 Hirshfeld analysis                             : off
 unlimited duration calculation
 timing information                             : on
 memory usage estimate                          : on
 write extra output files                       : on
 write final potential to formatted file        : off
 write final density to formatted file          : off
 write structure in CELL formatted file         : on
 write BibTeX reference list                    : on
 write OTFG pseudopotential files               : on
 write electrostatic potential file             : on
 write bands file                               : on
 checkpoint writing                             : both castep_bin and check files
  
 output         length unit                     : A
 output           mass unit                     : amu
 output           time unit                     : ps
 output         charge unit                     : e
 output           spin unit                     : hbar/2
 output         energy unit                     : eV
 output          force unit                     : eV/A
 output       velocity unit                     : A/ps
 output       pressure unit                     : GPa
 output     inv_length unit                     : 1/A
 output      frequency unit                     : cm-1
 output force constant unit                     : eV/A**2
 output         volume unit                     : A**3
 output   IR intensity unit                     : (D/A)**2/amu
 output         dipole unit                     : D
 output         efield unit                     : eV/A/e
 output        entropy unit                     : J/mol/K
  
 wavefunctions paging                           : none
 random number generator seed                   : randomised (192911061)
 data distribution                              : optimal for this architecture
 optimization strategy                          : maximize speed(+++)

 *********************** Exchange-Correlation Parameters ***********************
  
 using functional                               : Perdew Burke Ernzerhof
 relativistic treatment                         : Koelling-Harmon
 DFT+D: Semi-empirical dispersion correction    : off

 ************************* Pseudopotential Parameters **************************
  
 pseudopotential representation                 : reciprocal space
 <beta|phi> representation                      : reciprocal space
 spin-orbit coupling                            : off

 **************************** Basis Set Parameters *****************************
  
 plane wave basis set cut-off                   :  1200.0000   eV
 size of standard grid                          :     2.0000
 size of   fine   gmax                          :    35.4943   1/A
 finite basis set correction                    : automatic
 number of sample energies                      :          3
           sample  spacing                      :     5.0000   eV

 **************************** Electronic Parameters ****************************
  
 number of  electrons                           :  24.00    
 net charge of system                           :  0.000    
 treating system as non-spin-polarized
 number of bands                                :         12

 ********************* Electronic Minimization Parameters **********************
  
 Method: Treating system as non-metallic,
         and number of  SD  steps               :          1
         and number of  CG  steps               :          4
  
 total energy / atom convergence tol.           : 0.1000E-10   eV
 eigen-energy convergence tolerance             : 0.2000E-10   eV
 max force / atom convergence tol.              : ignored
 convergence tolerance window                   :          3   cycles
 max. number of SCF cycles                      :        100
 periodic dipole correction                     : NONE

 ************************** Density Mixing Parameters **************************
  
 density-mixing scheme                          : Broyden
 max. length of mixing history                  :         20
 charge density mixing amplitude                : 0.8000    
 cut-off energy for mixing                      :  1200.       eV

 *********************** Population Analysis Parameters ************************
  
 Population analysis with cutoff                :  3.000       A
 Population analysis output                     : summary and pdos components

 ********************** Geometry Optimization Parameters ***********************
  
 optimization method                            : LBFGS
 max. no. of LBFGS updates                      : unbounded
 variable cell method                           : fixed basis quality
 max. number of steps                           :        200
 estimated bulk modulus                         :  500.0       GPa
 estimated <frequency>                          :  1668.       cm-1
 geom line minimiser                            : on
 with line minimiser tolerance                  :     0.4000
 total energy convergence tolerance             : 0.1000E-08   eV/atom
        max ionic |force| tolerance             : 0.1000E-04   eV/A
 max ionic |displacement| tolerance             : 0.1000E-04   A
   max |stress component| tolerance             : 0.1000E-04   GPa
 convergence tolerance window                   :          2   steps
 backup results every                           :      14400   seconds
 write geom trajectory file                     : on

 *******************************************************************************
  

                           -------------------------------
                                      Unit Cell
                           -------------------------------
        Real Lattice(A)                      Reciprocal Lattice(1/A)
     9.6177220     0.0000000     0.0015268        0.653101097   0.000000000   1.205435576
     0.0000000     2.0149483     0.0000000        0.000000000   3.118286161   0.000000000
    -6.4132621     0.0000000     3.4746847       -0.000286985   0.000000000   1.807745284

                       Lattice parameters(A)       Cell Angles
                    a =      9.617722          alpha =   90.000000
                    b =      2.014948          beta  =  151.542213
                    c =      7.294064          gamma =   90.000000

                       Current cell volume =            67.356382       A**3
                                   density =             0.359143   AMU/A**3
                                           =             0.596371     g/cm^3

                           -------------------------------
                                     Cell Contents
                           -------------------------------
                         Total number of ions in cell =   24
                      Total number of species in cell =    1
                        Max number of any one species =   24

            xxxxxxxxxxxxxxxxxxxxxxxxxxxxxxxxxxxxxxxxxxxxxxxxxxxxxxxxxxxx
            x  Element    Atom        Fractional coordinates of atoms  x
            x            Number           u          v          w      x
            x----------------------------------------------------------x
            x  H            1         0.833949   0.659165   0.101315   x 
            x  H            2         0.166051   0.340835   0.898685   x 
            x  H            3         0.833949   0.840835   0.601315   x 
            x  H            4         0.166051   0.159165   0.398685   x 
            x  H            5         0.883669   0.406014   0.224479   x 
            x  H            6         0.116331   0.593986   0.775521   x 
            x  H            7         0.883669   0.093986   0.724479   x 
            x  H            8         0.116331   0.906014   0.275521   x 
            x  H            9         0.861064   0.122743   0.417782   x 
            x  H           10         0.138936   0.877257   0.582218   x 
            x  H           11         0.861064   0.377257   0.917782   x 
            x  H           12         0.138936   0.622743   0.082218   x 
            x  H           13         0.748113   0.907922   0.246271   x 
            x  H           14         0.251887   0.092078   0.753729   x 
            x  H           15         0.748113   0.592078   0.746271   x 
            x  H           16         0.251887   0.407922   0.253729   x 
            x  H           17         0.574603   0.389160   0.194071   x 
            x  H           18         0.425397   0.610840   0.805929   x 
            x  H           19         0.574603   0.110840   0.694071   x 
            x  H           20         0.425397   0.889160   0.305929   x 
            x  H           21         0.477389   0.602142   0.135901   x 
            x  H           22         0.522611   0.397858   0.864099   x 
            x  H           23         0.477389   0.897858   0.635901   x 
            x  H           24         0.522611   0.102142   0.364099   x 
            xxxxxxxxxxxxxxxxxxxxxxxxxxxxxxxxxxxxxxxxxxxxxxxxxxxxxxxxxxxx


                         No user defined ionic velocities

                           -------------------------------
                                   Details of Species
                           -------------------------------

                               Mass of species in AMU
                                    H    1.0079400

                          Electric Quadrupole Moment (Barn)
                                    H    0.0028600 Isotope  2

                          Files used for pseudopotentials:
                                    H 0|0.7|2|6|8|10L(qc=10)

                           -------------------------------
                              k-Points For BZ Sampling
                           -------------------------------
                       MP grid size for SCF calculation is  8 13 11
                            with an offset of   0.000  0.000  0.000
                       Number of kpoints used =           308

                           -------------------------------
                               Symmetry and Constraints
                           -------------------------------

                      Maximum deviation from symmetry = 0.197540E-13     ANG

                      Number of symmetry operations   =           4
                      Number of ionic constraints     =           3
                      Point group of crystal =     5: C2h, 2/m, 2/m
                      Space group of crystal =    14: P2_1/c, -P 2ybc

             Set iprint > 1 for details on symmetry rotations/translations

                         Centre of mass is constrained
             Set iprint > 1 for details of linear ionic constraints

                         Number of cell constraints= 2
                         Cell constraints are:  1 2 3 0 5 0

                         External pressure/stress (GPa)
                         50.00000   0.00000   0.00000
                                   50.00000   0.00000
                                             50.00000
  
+---------------- MEMORY AND SCRATCH DISK ESTIMATES PER PROCESS --------------+
|                                                     Memory          Disk    |
| Baseline code, static data and system overhead      412.0 MB         0.0 MB |
| BLAS internal memory storage                          0.0 MB         0.0 MB |
| Model and support data                              101.0 MB         0.0 MB |
| Electronic energy minimisation requirements          89.0 MB         0.0 MB |
| Force calculation requirements                       29.7 MB         0.0 MB |
| Stress calculation requirements                      37.6 MB         0.0 MB |
|                                               ----------------------------- |
| Approx. total storage required per process          602.0 MB         0.0 MB |
|                                                                             |
| Requirements will fluctuate during execution and may exceed these estimates |
+-----------------------------------------------------------------------------+
Calculating finite basis set correction with  3 cut-off energies.
Calculating total energy with cut-off of 1190.000 eV.
------------------------------------------------------------------------ <-- SCF
SCF loop      Energy                           Energy gain       Timer   <-- SCF
                                               per atom          (sec)   <-- SCF
------------------------------------------------------------------------ <-- SCF
Initial   6.16890938E+002                                          8.69  <-- SCF
      1  -2.98107980E+002                    3.81249549E+001      33.65  <-- SCF
      2  -3.70120871E+002                    3.00053712E+000      50.18  <-- SCF
      3  -3.71328464E+002                    5.03163840E-002      63.43  <-- SCF
      4  -3.69094646E+002                   -9.30757355E-002      86.34  <-- SCF
      5  -3.69017808E+002                   -3.20158243E-003     109.42  <-- SCF
      6  -3.69020727E+002                    1.21636924E-004     132.55  <-- SCF
      7  -3.69021038E+002                    1.29488434E-005     155.42  <-- SCF
      8  -3.69021039E+002                    3.79962946E-008     179.57  <-- SCF
      9  -3.69021039E+002                    2.67111392E-009     202.68  <-- SCF
     10  -3.69021039E+002                    2.13227172E-011     219.39  <-- SCF
     11  -3.69021039E+002                    1.70388389E-012     236.06  <-- SCF
     12  -3.69021039E+002                    3.02107073E-014     252.86  <-- SCF
------------------------------------------------------------------------ <-- SCF
 
Final energy =  -369.0210392329     eV
(energy not corrected for finite basis set)
 
Calculating total energy with cut-off of 1195.000 eV.
------------------------------------------------------------------------ <-- SCF
SCF loop      Energy                           Energy gain       Timer   <-- SCF
                                               per atom          (sec)   <-- SCF
------------------------------------------------------------------------ <-- SCF
Initial  -3.69021039E+002                                        261.03  <-- SCF
      1  -3.69022793E+002                    7.30882719E-005     280.40  <-- SCF
      2  -3.69022793E+002                    9.77719190E-011     303.84  <-- SCF
      3  -3.69022794E+002                    3.27807724E-008     327.62  <-- SCF
      4  -3.69022794E+002                    2.04550053E-009     351.15  <-- SCF
      5  -3.69022794E+002                    2.56368062E-011     368.28  <-- SCF
      6  -3.69022794E+002                   -5.11567977E-013     385.83  <-- SCF
      7  -3.69022794E+002                    1.66561700E-012     402.61  <-- SCF
------------------------------------------------------------------------ <-- SCF
 
Final energy =  -369.0227941902     eV
(energy not corrected for finite basis set)
 
Calculating total energy with cut-off of 1200.000 eV.
------------------------------------------------------------------------ <-- SCF
SCF loop      Energy                           Energy gain       Timer   <-- SCF
                                               per atom          (sec)   <-- SCF
------------------------------------------------------------------------ <-- SCF
Initial  -3.69022794E+002                                        410.65  <-- SCF
      1  -3.69024471E+002                    6.98691168E-005     429.90  <-- SCF
      2  -3.69024471E+002                    9.04810684E-011     452.53  <-- SCF
      3  -3.69024472E+002                    3.08855742E-008     475.39  <-- SCF
      4  -3.69024472E+002                    1.89213688E-009     498.63  <-- SCF
      5  -3.69024472E+002                    2.38704869E-011     515.17  <-- SCF
      6  -3.69024472E+002                   -5.23652260E-014     532.69  <-- SCF
      7  -3.69024472E+002                    1.94758360E-012     549.66  <-- SCF
------------------------------------------------------------------------ <-- SCF
 
Final energy =  -369.0244718385     eV
(energy not corrected for finite basis set)
 
 For future reference: finite basis dEtot/dlog(Ecut) =      -0.412954eV
 Total energy corrected for finite basis set =    -369.024493 eV
 
+---------------- MEMORY AND SCRATCH DISK ESTIMATES PER PROCESS --------------+
|                                                     Memory          Disk    |
| Model and support data                              100.1 MB         0.0 MB |
| Electronic energy minimisation requirements          89.0 MB         0.0 MB |
| Geometry minimisation requirements                  116.9 MB         0.0 MB |
|                                               ----------------------------- |
| Approx. total storage required per process          306.0 MB         0.0 MB |
|                                                                             |
| Requirements will fluctuate during execution and may exceed these estimates |
+-----------------------------------------------------------------------------+
 

 ******************************** Symmetrised Forces ********************************
 *                                                                                  *
 *                           Cartesian components (eV/A)                            *
 * -------------------------------------------------------------------------------- *
 *                         x                    y                    z              *
 *                                                                                  *
 * H               1     -0.00000              0.00000              0.00000         *
 * H               2      0.00000             -0.00000             -0.00000         *
 * H               3     -0.00000             -0.00000              0.00000         *
 * H               4      0.00000              0.00000             -0.00000         *
 * H               5      0.00000             -0.00000              0.00000         *
 * H               6     -0.00000              0.00000             -0.00000         *
 * H               7      0.00000              0.00000              0.00000         *
 * H               8     -0.00000             -0.00000             -0.00000         *
 * H               9     -0.00000              0.00000              0.00000         *
 * H              10      0.00000             -0.00000             -0.00000         *
 * H              11     -0.00000             -0.00000              0.00000         *
 * H              12      0.00000              0.00000             -0.00000         *
 * H              13     -0.00000             -0.00000             -0.00000         *
 * H              14      0.00000              0.00000              0.00000         *
 * H              15     -0.00000              0.00000             -0.00000         *
 * H              16      0.00000             -0.00000              0.00000         *
 * H              17     -0.00000             -0.00000             -0.00000         *
 * H              18      0.00000              0.00000              0.00000         *
 * H              19     -0.00000              0.00000             -0.00000         *
 * H              20      0.00000             -0.00000              0.00000         *
 * H              21      0.00000              0.00000              0.00000         *
 * H              22     -0.00000             -0.00000             -0.00000         *
 * H              23      0.00000             -0.00000              0.00000         *
 * H              24     -0.00000              0.00000             -0.00000         *
 *                                                                                  *
 ************************************************************************************

 *********** Symmetrised Stress Tensor ***********
 *                                               *
 *          Cartesian components (GPa)           *
 * --------------------------------------------- *
 *             x             y             z     *
 *                                               *
 *  x    -59.983073      0.000000     -0.000009  *
 *  y      0.000000    -59.983063      0.000000  *
 *  z     -0.000009      0.000000    -59.983069  *
 *                                               *
 *  Pressure:   59.9831                          *
 *                                               *
 *************************************************
 LBFGS: finished iteration     0 with enthalpy= -3.48004220E+002 eV
  
 +-----------+-----------------+-----------------+------------+-----+ <-- LBFGS
 | Parameter |      value      |    tolerance    |    units   | OK? | <-- LBFGS
 +-----------+-----------------+-----------------+------------+-----+ <-- LBFGS
 |  dE/ion   |   0.000000E+000 |   1.000000E-009 |         eV | No  | <-- LBFGS
 |  |F|max   |   7.365886E-007 |   1.000000E-005 |       eV/A | Yes | <-- LBFGS
 |  |dR|max  |   0.000000E+000 |   1.000000E-005 |          A | No  | <-- LBFGS
 |   Smax    |   9.983073E+000 |   1.000000E-005 |        GPa | No  | <-- LBFGS
 +-----------+-----------------+-----------------+------------+-----+ <-- LBFGS
  

================================================================================
 Starting LBFGS iteration          1 ...
================================================================================
  
 +------------+-------------+-------------+-----------------+ <-- min LBFGS
 |    Step    |   lambda    |   F.delta'  |    enthalpy     | <-- min LBFGS
 +------------+-------------+-------------+-----------------+ <-- min LBFGS
 |  previous  |    0.000000 |    0.267142 |     -348.004220 | <-- min LBFGS
 +------------+-------------+-------------+-----------------+ <-- min LBFGS
  

--------------------------------------------------------------------------------
 LBFGS: starting iteration         1 with trial guess (lambda=  1.000000)
--------------------------------------------------------------------------------
 
+---------------- MEMORY AND SCRATCH DISK ESTIMATES PER PROCESS --------------+
|                                                     Memory          Disk    |
| Model and support data                              100.9 MB         0.0 MB |
| Electronic energy minimisation requirements          90.2 MB         0.0 MB |
| Geometry minimisation requirements                  118.4 MB         0.0 MB |
|                                               ----------------------------- |
| Approx. total storage required per process          309.5 MB         0.0 MB |
|                                                                             |
| Requirements will fluctuate during execution and may exceed these estimates |
+-----------------------------------------------------------------------------+
 

                           -------------------------------
                                      Unit Cell
                           -------------------------------
        Real Lattice(A)              Reciprocal Lattice(1/A)
     9.6817316     0.0000000     0.0015371        0.648783190   0.000000000   1.197465982
     0.0000000     2.0283585     0.0000000        0.000000000   3.097670004   0.000000000
    -6.4559448     0.0000000     3.4978100       -0.000285098   0.000000000   1.795793597

                       Lattice parameters(A)       Cell Angles
                    a =      9.681732          alpha =   90.000000
                    b =      2.028359          beta  =  151.542213
                    c =      7.342608          gamma =   90.000000

                Current cell volume =            68.710199 A**3

                           -------------------------------
                                     Cell Contents
                           -------------------------------

            xxxxxxxxxxxxxxxxxxxxxxxxxxxxxxxxxxxxxxxxxxxxxxxxxxxxxxxxxxxxxxxxx
            x  Element         Atom        Fractional coordinates of atoms  x
            x                 Number           u          v          w      x
            x---------------------------------------------------------------x
            x  H                 1         0.833949   0.659165   0.101315   x
            x  H                 2         0.166051   0.340835   0.898685   x
            x  H                 3         0.833949   0.840835   0.601315   x
            x  H                 4         0.166051   0.159165   0.398685   x
            x  H                 5         0.883669   0.406014   0.224479   x
            x  H                 6         0.116331   0.593986   0.775521   x
            x  H                 7         0.883669   0.093986   0.724479   x
            x  H                 8         0.116331   0.906014   0.275521   x
            x  H                 9         0.861064   0.122743   0.417782   x
            x  H                10         0.138936   0.877257   0.582218   x
            x  H                11         0.861064   0.377257   0.917782   x
            x  H                12         0.138936   0.622743   0.082218   x
            x  H                13         0.748113   0.907922   0.246271   x
            x  H                14         0.251887   0.092078   0.753729   x
            x  H                15         0.748113   0.592078   0.746271   x
            x  H                16         0.251887   0.407922   0.253729   x
            x  H                17         0.574603   0.389160   0.194071   x
            x  H                18         0.425397   0.610840   0.805929   x
            x  H                19         0.574603   0.110840   0.694071   x
            x  H                20         0.425397   0.889160   0.305929   x
            x  H                21         0.477389   0.602142   0.135901   x
            x  H                22         0.522611   0.397858   0.864099   x
            x  H                23         0.477389   0.897858   0.635901   x
            x  H                24         0.522611   0.102142   0.364099   x
            xxxxxxxxxxxxxxxxxxxxxxxxxxxxxxxxxxxxxxxxxxxxxxxxxxxxxxxxxxxxxxxxx


------------------------------------------------------------------------ <-- SCF
SCF loop      Energy                           Energy gain       Timer   <-- SCF
                                               per atom          (sec)   <-- SCF
------------------------------------------------------------------------ <-- SCF
Initial  -3.69499450E+002                                        565.07  <-- SCF
      1  -3.69514152E+002                    6.12575446E-004     585.13  <-- SCF
      2  -3.69514183E+002                    1.27978001E-006     609.47  <-- SCF
      3  -3.69513652E+002                   -2.21227935E-005     633.68  <-- SCF
      4  -3.69513638E+002                   -5.54093714E-007     657.59  <-- SCF
      5  -3.69513639E+002                    2.74706989E-008     681.66  <-- SCF
      6  -3.69513639E+002                    2.79741684E-009     705.49  <-- SCF
      7  -3.69513639E+002                    1.02615702E-011     722.21  <-- SCF
      8  -3.69513639E+002                    8.03604814E-013     739.17  <-- SCF
      9  -3.69513639E+002                   -9.46602162E-014     756.08  <-- SCF
------------------------------------------------------------------------ <-- SCF
 
Final energy =  -369.5136391900     eV
(energy not corrected for finite basis set)
 

 ******************************** Symmetrised Forces ********************************
 *                                                                                  *
 *                           Cartesian components (eV/A)                            *
 * -------------------------------------------------------------------------------- *
 *                         x                    y                    z              *
 *                                                                                  *
 * H               1     -0.06385             -0.10429              0.08778         *
 * H               2      0.06385              0.10429             -0.08778         *
 * H               3     -0.06385              0.10429              0.08778         *
 * H               4      0.06385             -0.10429             -0.08778         *
 * H               5      0.06300              0.10363             -0.08649         *
 * H               6     -0.06300             -0.10363              0.08649         *
 * H               7      0.06300             -0.10363             -0.08649         *
 * H               8     -0.06300              0.10363              0.08649         *
 * H               9      0.00222             -0.08771             -0.11988         *
 * H              10     -0.00222              0.08771              0.11988         *
 * H              11      0.00222              0.08771             -0.11988         *
 * H              12     -0.00222             -0.08771              0.11988         *
 * H              13     -0.00305              0.08746              0.12053         *
 * H              14      0.00305             -0.08746             -0.12053         *
 * H              15     -0.00305             -0.08746              0.12053         *
 * H              16      0.00305              0.08746             -0.12053         *
 * H              17     -0.11348              0.08705             -0.04104         *
 * H              18      0.11348             -0.08705              0.04104         *
 * H              19     -0.11348             -0.08705             -0.04104         *
 * H              20      0.11348              0.08705              0.04104         *
 * H              21      0.11363             -0.08781              0.04141         *
 * H              22     -0.11363              0.08781             -0.04141         *
 * H              23      0.11363              0.08781              0.04141         *
 * H              24     -0.11363             -0.08781             -0.04141         *
 *                                                                                  *
 ************************************************************************************

 *********** Symmetrised Stress Tensor ***********
 *                                               *
 *          Cartesian components (GPa)           *
 * --------------------------------------------- *
 *             x             y             z     *
 *                                               *
 *  x    -56.184017      0.000000     -0.051108  *
 *  y      0.000000    -55.694707      0.000000  *
 *  z     -0.051108      0.000000    -55.782695  *
 *                                               *
 *  Pressure:   55.8871                          *
 *                                               *
 *************************************************
  
 +------------+-------------+-------------+-----------------+ <-- min LBFGS
 |    Step    |   lambda    |   F.delta'  |    enthalpy     | <-- min LBFGS
 +------------+-------------+-------------+-----------------+ <-- min LBFGS
 |  previous  |    0.000000 |    0.267142 |     -348.004220 | <-- min LBFGS
 | trial step |    1.000000 |    0.159641 |     -348.070867 | <-- min LBFGS
 +------------+-------------+-------------+-----------------+ <-- min LBFGS
  

--------------------------------------------------------------------------------
 LBFGS: improving iteration         1 with line minimization (lambda=  2.485009)
--------------------------------------------------------------------------------
 
+---------------- MEMORY AND SCRATCH DISK ESTIMATES PER PROCESS --------------+
|                                                     Memory          Disk    |
| Model and support data                              102.1 MB         0.0 MB |
| Electronic energy minimisation requirements          92.1 MB         0.0 MB |
| Geometry minimisation requirements                  121.1 MB         0.0 MB |
|                                               ----------------------------- |
| Approx. total storage required per process          315.4 MB         0.0 MB |
|                                                                             |
| Requirements will fluctuate during execution and may exceed these estimates |
+-----------------------------------------------------------------------------+
 

                           -------------------------------
                                      Unit Cell
                           -------------------------------
        Real Lattice(A)              Reciprocal Lattice(1/A)
     9.7767865     0.0000000     0.0015522        0.642475381   0.000000000   1.185823609
     0.0000000     2.0482728     0.0000000        0.000000000   3.067552914   0.000000000
    -6.5193290     0.0000000     3.5321513       -0.000282341   0.000000000   1.778333986

                       Lattice parameters(A)       Cell Angles
                    a =      9.776787          alpha =   90.000000
                    b =      2.048273          beta  =  151.542212
                    c =      7.414698          gamma =   90.000000

                Current cell volume =            70.753915 A**3

                           -------------------------------
                                     Cell Contents
                           -------------------------------

            xxxxxxxxxxxxxxxxxxxxxxxxxxxxxxxxxxxxxxxxxxxxxxxxxxxxxxxxxxxxxxxxx
            x  Element         Atom        Fractional coordinates of atoms  x
            x                 Number           u          v          w      x
            x---------------------------------------------------------------x
            x  H                 1         0.833949   0.659165   0.101315   x
            x  H                 2         0.166051   0.340835   0.898685   x
            x  H                 3         0.833949   0.840835   0.601315   x
            x  H                 4         0.166051   0.159165   0.398685   x
            x  H                 5         0.883669   0.406014   0.224479   x
            x  H                 6         0.116331   0.593986   0.775521   x
            x  H                 7         0.883669   0.093986   0.724479   x
            x  H                 8         0.116331   0.906014   0.275521   x
            x  H                 9         0.861064   0.122743   0.417782   x
            x  H                10         0.138936   0.877257   0.582218   x
            x  H                11         0.861064   0.377257   0.917782   x
            x  H                12         0.138936   0.622743   0.082218   x
            x  H                13         0.748113   0.907922   0.246271   x
            x  H                14         0.251887   0.092078   0.753729   x
            x  H                15         0.748113   0.592078   0.746271   x
            x  H                16         0.251887   0.407922   0.253729   x
            x  H                17         0.574603   0.389160   0.194071   x
            x  H                18         0.425397   0.610840   0.805929   x
            x  H                19         0.574603   0.110840   0.694071   x
            x  H                20         0.425397   0.889160   0.305929   x
            x  H                21         0.477389   0.602142   0.135901   x
            x  H                22         0.522611   0.397858   0.864099   x
            x  H                23         0.477389   0.897858   0.635901   x
            x  H                24         0.522611   0.102142   0.364099   x
            xxxxxxxxxxxxxxxxxxxxxxxxxxxxxxxxxxxxxxxxxxxxxxxxxxxxxxxxxxxxxxxxx


------------------------------------------------------------------------ <-- SCF
SCF loop      Energy                           Energy gain       Timer   <-- SCF
                                               per atom          (sec)   <-- SCF
------------------------------------------------------------------------ <-- SCF
Initial  -3.70162354E+002                                        771.43  <-- SCF
      1  -3.70190402E+002                    1.16865797E-003     791.35  <-- SCF
      2  -3.70190468E+002                    2.74636499E-006     814.42  <-- SCF
      3  -3.70189302E+002                   -4.85738679E-005     837.91  <-- SCF
      4  -3.70189273E+002                   -1.21532407E-006     862.17  <-- SCF
      5  -3.70189274E+002                    6.36650254E-008     886.15  <-- SCF
      6  -3.70189275E+002                    6.59270945E-009     909.78  <-- SCF
      7  -3.70189275E+002                    2.38745150E-011     926.50  <-- SCF
      8  -3.70189275E+002                    2.50950275E-012     943.01  <-- SCF
      9  -3.70189275E+002                   -2.61826130E-013     959.57  <-- SCF
------------------------------------------------------------------------ <-- SCF
 
Final energy =  -370.1892746058     eV
(energy not corrected for finite basis set)
 

 ******************************** Symmetrised Forces ********************************
 *                                                                                  *
 *                           Cartesian components (eV/A)                            *
 * -------------------------------------------------------------------------------- *
 *                         x                    y                    z              *
 *                                                                                  *
 * H               1     -0.15528             -0.25365              0.21351         *
 * H               2      0.15528              0.25365             -0.21351         *
 * H               3     -0.15528              0.25365              0.21351         *
 * H               4      0.15528             -0.25365             -0.21351         *
 * H               5      0.15325              0.25202             -0.21038         *
 * H               6     -0.15325             -0.25202              0.21038         *
 * H               7      0.15325             -0.25202             -0.21038         *
 * H               8     -0.15325              0.25202              0.21038         *
 * H               9      0.00536             -0.21330             -0.29165         *
 * H              10     -0.00536              0.21330              0.29165         *
 * H              11      0.00536              0.21330             -0.29165         *
 * H              12     -0.00536             -0.21330              0.29165         *
 * H              13     -0.00740              0.21272              0.29322         *
 * H              14      0.00740             -0.21272             -0.29322         *
 * H              15     -0.00740             -0.21272              0.29322         *
 * H              16      0.00740              0.21272             -0.29322         *
 * H              17     -0.27603              0.21168             -0.09983         *
 * H              18      0.27603             -0.21168              0.09983         *
 * H              19     -0.27603             -0.21168             -0.09983         *
 * H              20      0.27603              0.21168              0.09983         *
 * H              21      0.27647             -0.21356              0.10073         *
 * H              22     -0.27647              0.21356             -0.10073         *
 * H              23      0.27647              0.21356              0.10073         *
 * H              24     -0.27647             -0.21356             -0.10073         *
 *                                                                                  *
 ************************************************************************************

 *********** Symmetrised Stress Tensor ***********
 *                                               *
 *          Cartesian components (GPa)           *
 * --------------------------------------------- *
 *             x             y             z     *
 *                                               *
 *  x    -50.907935      0.000000     -0.121780  *
 *  y      0.000000    -49.744205      0.000000  *
 *  z     -0.121780      0.000000    -49.954611  *
 *                                               *
 *  Pressure:   50.2023                          *
 *                                               *
 *************************************************
  
 +------------+-------------+-------------+-----------------+ <-- min LBFGS
 |    Step    |   lambda    |   F.delta'  |    enthalpy     | <-- min LBFGS
 +------------+-------------+-------------+-----------------+ <-- min LBFGS
 |  previous  |    0.000000 |    0.267142 |     -348.004220 | <-- min LBFGS
 | trial step |    1.000000 |    0.159641 |     -348.070867 | <-- min LBFGS
 |  line step |    2.485009 |    0.005592 |     -348.108717 | <-- min LBFGS
 +------------+-------------+-------------+-----------------+ <-- min LBFGS
  
 LBFGS: finished iteration     1 with enthalpy= -3.48108717E+002 eV
  
 +-----------+-----------------+-----------------+------------+-----+ <-- LBFGS
 | Parameter |      value      |    tolerance    |    units   | OK? | <-- LBFGS
 +-----------+-----------------+-----------------+------------+-----+ <-- LBFGS
 |  dE/ion   |   4.354058E-003 |   1.000000E-009 |         eV | No  | <-- LBFGS
 |  |F|max   |   3.661110E-001 |   1.000000E-005 |       eV/A | No  | <-- LBFGS
 |  |dR|max  |   1.804695E-007 |   1.000000E-005 |          A | Yes | <-- LBFGS
 |   Smax    |   9.079352E-001 |   1.000000E-005 |        GPa | No  | <-- LBFGS
 +-----------+-----------------+-----------------+------------+-----+ <-- LBFGS
  

================================================================================
 Starting LBFGS iteration          2 ...
================================================================================
  
 +------------+-------------+-------------+-----------------+ <-- min LBFGS
 |    Step    |   lambda    |   F.delta'  |    enthalpy     | <-- min LBFGS
 +------------+-------------+-------------+-----------------+ <-- min LBFGS
 |  previous  |    0.000000 |    0.149186 |     -348.108717 | <-- min LBFGS
 +------------+-------------+-------------+-----------------+ <-- min LBFGS
  

--------------------------------------------------------------------------------
 LBFGS: starting iteration         2 with trial guess (lambda=  1.000000)
--------------------------------------------------------------------------------
 
+---------------- MEMORY AND SCRATCH DISK ESTIMATES PER PROCESS --------------+
|                                                     Memory          Disk    |
| Model and support data                              105.6 MB         0.0 MB |
| Electronic energy minimisation requirements          97.6 MB         0.0 MB |
| Geometry minimisation requirements                  128.6 MB         0.0 MB |
|                                               ----------------------------- |
| Approx. total storage required per process          331.8 MB         0.0 MB |
|                                                                             |
| Requirements will fluctuate during execution and may exceed these estimates |
+-----------------------------------------------------------------------------+
 

                           -------------------------------
                                      Unit Cell
                           -------------------------------
        Real Lattice(A)              Reciprocal Lattice(1/A)
    10.0376372     0.0000000     0.0024170        0.625684305   0.000000000   1.155698744
     0.0000000     2.1012720     0.0000000        0.000000000   2.990181774   0.000000000
    -6.6929707     0.0000000     3.6235107       -0.000417345   0.000000000   1.733234028

                       Lattice parameters(A)       Cell Angles
                    a =     10.037637          alpha =   90.000000
                    b =      2.101272          beta  =  151.555511
                    c =      7.610893          gamma =   90.000000

                Current cell volume =            76.460377 A**3

                           -------------------------------
                                     Cell Contents
                           -------------------------------

            xxxxxxxxxxxxxxxxxxxxxxxxxxxxxxxxxxxxxxxxxxxxxxxxxxxxxxxxxxxxxxxxx
            x  Element         Atom        Fractional coordinates of atoms  x
            x                 Number           u          v          w      x
            x---------------------------------------------------------------x
            x  H                 1         0.836449   0.646488   0.107502   x
            x  H                 2         0.163551   0.353512   0.892498   x
            x  H                 3         0.836449   0.853512   0.607502   x
            x  H                 4         0.163551   0.146488   0.392498   x
            x  H                 5         0.881209   0.418609   0.218383   x
            x  H                 6         0.118791   0.581391   0.781617   x
            x  H                 7         0.881209   0.081391   0.718383   x
            x  H                 8         0.118791   0.918609   0.281617   x
            x  H                 9         0.855486   0.112083   0.409332   x
            x  H                10         0.144514   0.887917   0.590668   x
            x  H                11         0.855486   0.387917   0.909332   x
            x  H                12         0.144514   0.612083   0.090668   x
            x  H                13         0.753701   0.918553   0.254767   x
            x  H                14         0.246299   0.081447   0.745233   x
            x  H                15         0.753701   0.581447   0.754767   x
            x  H                16         0.246299   0.418553   0.245233   x
            x  H                17         0.569785   0.399739   0.191180   x
            x  H                18         0.430215   0.600261   0.808820   x
            x  H                19         0.569785   0.100261   0.691180   x
            x  H                20         0.430215   0.899739   0.308820   x
            x  H                21         0.482230   0.591469   0.138819   x
            x  H                22         0.517770   0.408531   0.861181   x
            x  H                23         0.482230   0.908531   0.638819   x
            x  H                24         0.517770   0.091469   0.361181   x
            xxxxxxxxxxxxxxxxxxxxxxxxxxxxxxxxxxxxxxxxxxxxxxxxxxxxxxxxxxxxxxxxx


------------------------------------------------------------------------ <-- SCF
SCF loop      Energy                           Energy gain       Timer   <-- SCF
                                               per atom          (sec)   <-- SCF
------------------------------------------------------------------------ <-- SCF
Initial  -3.67957297E+002                                        974.88  <-- SCF
      1  -3.71720395E+002                    1.56795767E-001     994.87  <-- SCF
      2  -3.71732203E+002                    4.92011689E-004    1018.66  <-- SCF
      3  -3.71413688E+002                   -1.32714752E-002    1042.41  <-- SCF
      4  -3.71402622E+002                   -4.61066140E-004    1067.18  <-- SCF
      5  -3.71402840E+002                    9.07643059E-006    1092.45  <-- SCF
      6  -3.71402865E+002                    1.02995594E-006    1115.95  <-- SCF
      7  -3.71402865E+002                    6.39529859E-009    1139.49  <-- SCF
      8  -3.71402865E+002                    5.91082558E-010    1163.24  <-- SCF
      9  -3.71402865E+002                    1.42896646E-011    1180.02  <-- SCF
     10  -3.71402865E+002                    1.36753802E-012    1197.00  <-- SCF
     11  -3.71402865E+002                    3.78640865E-013    1213.97  <-- SCF
------------------------------------------------------------------------ <-- SCF
 
Final energy =  -371.4028650364     eV
(energy not corrected for finite basis set)
 

 ******************************** Symmetrised Forces ********************************
 *                                                                                  *
 *                           Cartesian components (eV/A)                            *
 * -------------------------------------------------------------------------------- *
 *                         x                    y                    z              *
 *                                                                                  *
 * H               1      0.80918              1.29768             -1.09750         *
 * H               2     -0.80918             -1.29768              1.09750         *
 * H               3      0.80918             -1.29768             -1.09750         *
 * H               4     -0.80918              1.29768              1.09750         *
 * H               5     -0.80505             -1.33212              1.11160         *
 * H               6      0.80505              1.33212             -1.11160         *
 * H               7     -0.80505              1.33212              1.11160         *
 * H               8      0.80505             -1.33212             -1.11160         *
 * H               9     -0.02837              1.06506              1.49110         *
 * H              10      0.02837             -1.06506             -1.49110         *
 * H              11     -0.02837             -1.06506              1.49110         *
 * H              12      0.02837              1.06506             -1.49110         *
 * H              13      0.03946             -1.08900             -1.47850         *
 * H              14     -0.03946              1.08900              1.47850         *
 * H              15      0.03946              1.08900             -1.47850         *
 * H              16     -0.03946             -1.08900              1.47850         *
 * H              17      1.43319             -1.08692              0.51592         *
 * H              18     -1.43319              1.08692             -0.51592         *
 * H              19      1.43319              1.08692              0.51592         *
 * H              20     -1.43319             -1.08692             -0.51592         *
 * H              21     -1.42335              1.08550             -0.51085         *
 * H              22      1.42335             -1.08550              0.51085         *
 * H              23     -1.42335             -1.08550             -0.51085         *
 * H              24      1.42335              1.08550              0.51085         *
 *                                                                                  *
 ************************************************************************************

 *********** Symmetrised Stress Tensor ***********
 *                                               *
 *          Cartesian components (GPa)           *
 * --------------------------------------------- *
 *             x             y             z     *
 *                                               *
 *  x    -50.472558      0.000000      0.575368  *
 *  y      0.000000    -53.826789      0.000000  *
 *  z      0.575368      0.000000    -52.970572  *
 *                                               *
 *  Pressure:   52.4233                          *
 *                                               *
 *************************************************
  
 +------------+-------------+-------------+-----------------+ <-- min LBFGS
 |    Step    |   lambda    |   F.delta'  |    enthalpy     | <-- min LBFGS
 +------------+-------------+-------------+-----------------+ <-- min LBFGS
 |  previous  |    0.000000 |    0.149186 |     -348.108717 | <-- min LBFGS
 | trial step |    1.000000 |   -0.730261 |     -347.541453 | <-- min LBFGS
 +------------+-------------+-------------+-----------------+ <-- min LBFGS
  

--------------------------------------------------------------------------------
 LBFGS: improving iteration         2 with line minimization (lambda=  0.169636)
--------------------------------------------------------------------------------

                           -------------------------------
                                      Unit Cell
                           -------------------------------
        Real Lattice(A)              Reciprocal Lattice(1/A)
     9.8210362     0.0000000     0.0016989        0.639563836   0.000000000   1.180603220
     0.0000000     2.0572634     0.0000000        0.000000000   3.054147219   0.000000000
    -6.5487849     0.0000000     3.5476491       -0.000306279   0.000000000   1.770518833

                       Lattice parameters(A)       Cell Angles
                    a =      9.821036          alpha =   90.000000
                    b =      2.057263          beta  =  151.544517
                    c =      7.447979          gamma =   90.000000

                Current cell volume =            71.701217 A**3

                           -------------------------------
                                     Cell Contents
                           -------------------------------

            xxxxxxxxxxxxxxxxxxxxxxxxxxxxxxxxxxxxxxxxxxxxxxxxxxxxxxxxxxxxxxxxx
            x  Element         Atom        Fractional coordinates of atoms  x
            x                 Number           u          v          w      x
            x---------------------------------------------------------------x
            x  H                 1         0.834373   0.657014   0.102365   x
            x  H                 2         0.165627   0.342986   0.897635   x
            x  H                 3         0.834373   0.842986   0.602365   x
            x  H                 4         0.165627   0.157014   0.397635   x
            x  H                 5         0.883252   0.408150   0.223445   x
            x  H                 6         0.116748   0.591850   0.776555   x
            x  H                 7         0.883252   0.091850   0.723445   x
            x  H                 8         0.116748   0.908150   0.276555   x
            x  H                 9         0.860118   0.120935   0.416348   x
            x  H                10         0.139882   0.879065   0.583652   x
            x  H                11         0.860118   0.379065   0.916348   x
            x  H                12         0.139882   0.620935   0.083652   x
            x  H                13         0.749061   0.909726   0.247712   x
            x  H                14         0.250939   0.090274   0.752288   x
            x  H                15         0.749061   0.590274   0.747712   x
            x  H                16         0.250939   0.409726   0.252288   x
            x  H                17         0.573786   0.390954   0.193581   x
            x  H                18         0.426214   0.609046   0.806419   x
            x  H                19         0.573786   0.109046   0.693581   x
            x  H                20         0.426214   0.890954   0.306419   x
            x  H                21         0.478211   0.600331   0.136396   x
            x  H                22         0.521789   0.399669   0.863604   x
            x  H                23         0.478211   0.899669   0.636396   x
            x  H                24         0.521789   0.100331   0.363604   x
            xxxxxxxxxxxxxxxxxxxxxxxxxxxxxxxxxxxxxxxxxxxxxxxxxxxxxxxxxxxxxxxxx


------------------------------------------------------------------------ <-- SCF
SCF loop      Energy                           Energy gain       Timer   <-- SCF
                                               per atom          (sec)   <-- SCF
------------------------------------------------------------------------ <-- SCF
Initial  -3.67940431E+002                                       1229.42  <-- SCF
      1  -3.70752353E+002                    1.17163403E-001    1249.35  <-- SCF
      2  -3.70760627E+002                    3.44763491E-004    1273.06  <-- SCF
      3  -3.70525997E+002                   -9.77624139E-003    1296.64  <-- SCF
      4  -3.70518305E+002                   -3.20523832E-004    1320.29  <-- SCF
      5  -3.70518396E+002                    3.82649127E-006    1343.76  <-- SCF
      6  -3.70518405E+002                    3.66299438E-007    1367.56  <-- SCF
      7  -3.70518405E+002                    1.78640746E-009    1391.01  <-- SCF
      8  -3.70518405E+002                    2.71952759E-010    1413.60  <-- SCF
      9  -3.70518405E+002                    1.03703288E-011    1430.52  <-- SCF
     10  -3.70518405E+002                   -3.68570629E-013    1447.61  <-- SCF
     11  -3.70518405E+002                    2.39671611E-013    1464.39  <-- SCF
------------------------------------------------------------------------ <-- SCF
 
Final energy =  -370.5184052768     eV
(energy not corrected for finite basis set)
 

 ******************************** Symmetrised Forces ********************************
 *                                                                                  *
 *                           Cartesian components (eV/A)                            *
 * -------------------------------------------------------------------------------- *
 *                         x                    y                    z              *
 *                                                                                  *
 * H               1     -0.02353             -0.04387              0.03536         *
 * H               2      0.02353              0.04387             -0.03536         *
 * H               3     -0.02353              0.04387              0.03536         *
 * H               4      0.02353             -0.04387             -0.03536         *
 * H               5      0.02273              0.03505             -0.02992         *
 * H               6     -0.02273             -0.03505              0.02992         *
 * H               7      0.02273             -0.03505             -0.02992         *
 * H               8     -0.02273              0.03505              0.02992         *
 * H               9      0.00139             -0.04049             -0.04881         *
 * H              10     -0.00139              0.04049              0.04881         *
 * H              11      0.00139              0.04049             -0.04881         *
 * H              12     -0.00139             -0.04049              0.04881         *
 * H              13     -0.00045              0.03463              0.05287         *
 * H              14      0.00045             -0.03463             -0.05287         *
 * H              15     -0.00045             -0.03463              0.05287         *
 * H              16      0.00045              0.03463             -0.05287         *
 * H              17     -0.04279              0.03480             -0.01558         *
 * H              18      0.04279             -0.03480              0.01558         *
 * H              19     -0.04279             -0.03480             -0.01558         *
 * H              20      0.04279              0.03480              0.01558         *
 * H              21      0.04504             -0.03629              0.01750         *
 * H              22     -0.04504              0.03629             -0.01750         *
 * H              23      0.04504              0.03629              0.01750         *
 * H              24     -0.04504             -0.03629             -0.01750         *
 *                                                                                  *
 ************************************************************************************

 *********** Symmetrised Stress Tensor ***********
 *                                               *
 *          Cartesian components (GPa)           *
 * --------------------------------------------- *
 *             x             y             z     *
 *                                               *
 *  x    -50.593573      0.000000     -0.017093  *
 *  y      0.000000    -50.080445      0.000000  *
 *  z     -0.017093      0.000000    -50.140463  *
 *                                               *
 *  Pressure:   50.2715                          *
 *                                               *
 *************************************************
  
 +------------+-------------+-------------+-----------------+ <-- min LBFGS
 |    Step    |   lambda    |   F.delta'  |    enthalpy     | <-- min LBFGS
 +------------+-------------+-------------+-----------------+ <-- min LBFGS
 |  previous  |    0.000000 |    0.149186 |     -348.108717 | <-- min LBFGS
 | trial step |    1.000000 |   -0.730261 |     -347.541453 | <-- min LBFGS
 |  line step |    0.169636 |    0.028329 |     -348.142207 | <-- min LBFGS
 +------------+-------------+-------------+-----------------+ <-- min LBFGS
  
 LBFGS: finished iteration     2 with enthalpy= -3.48142207E+002 eV
  
 +-----------+-----------------+-----------------+------------+-----+ <-- LBFGS
 | Parameter |      value      |    tolerance    |    units   | OK? | <-- LBFGS
 +-----------+-----------------+-----------------+------------+-----+ <-- LBFGS
 |  dE/ion   |   1.395426E-003 |   1.000000E-009 |         eV | No  | <-- LBFGS
 |  |F|max   |   6.343198E-002 |   1.000000E-005 |       eV/A | No  | <-- LBFGS
 |  |dR|max  |   6.385648E-003 |   1.000000E-005 |          A | No  | <-- LBFGS
 |   Smax    |   5.935727E-001 |   1.000000E-005 |        GPa | No  | <-- LBFGS
 +-----------+-----------------+-----------------+------------+-----+ <-- LBFGS
  

================================================================================
 Starting LBFGS iteration          3 ...
================================================================================
  
 +------------+-------------+-------------+-----------------+ <-- min LBFGS
 |    Step    |   lambda    |   F.delta'  |    enthalpy     | <-- min LBFGS
 +------------+-------------+-------------+-----------------+ <-- min LBFGS
 |  previous  |    0.000000 |    0.024868 |     -348.142207 | <-- min LBFGS
 +------------+-------------+-------------+-----------------+ <-- min LBFGS
  

--------------------------------------------------------------------------------
 LBFGS: starting iteration         3 with trial guess (lambda=  1.000000)
--------------------------------------------------------------------------------

                           -------------------------------
                                      Unit Cell
                           -------------------------------
        Real Lattice(A)              Reciprocal Lattice(1/A)
     9.8381430     0.0000000     0.0017114        0.638450547   0.000000000   1.178874791
     0.0000000     2.0602222     0.0000000        0.000000000   3.049760949   0.000000000
    -6.5601883     0.0000000     3.5528419       -0.000307544   0.000000000   1.767927725

                       Lattice parameters(A)       Cell Angles
                    a =      9.838143          alpha =   90.000000
                    b =      2.060222          beta  =  151.551111
                    c =      7.460480          gamma =   90.000000

                Current cell volume =            72.034834 A**3

                           -------------------------------
                                     Cell Contents
                           -------------------------------

            xxxxxxxxxxxxxxxxxxxxxxxxxxxxxxxxxxxxxxxxxxxxxxxxxxxxxxxxxxxxxxxxx
            x  Element         Atom        Fractional coordinates of atoms  x
            x                 Number           u          v          w      x
            x---------------------------------------------------------------x
            x  H                 1         0.834507   0.656365   0.102627   x
            x  H                 2         0.165493   0.343635   0.897373   x
            x  H                 3         0.834507   0.843635   0.602627   x
            x  H                 4         0.165493   0.156365   0.397373   x
            x  H                 5         0.883230   0.408278   0.223360   x
            x  H                 6         0.116770   0.591722   0.776640   x
            x  H                 7         0.883230   0.091722   0.723360   x
            x  H                 8         0.116770   0.908278   0.276640   x
            x  H                 9         0.859876   0.120170   0.415973   x
            x  H                10         0.140124   0.879830   0.584027   x
            x  H                11         0.859876   0.379830   0.915973   x
            x  H                12         0.140124   0.620170   0.084027   x
            x  H                13         0.749409   0.910139   0.248224   x
            x  H                14         0.250591   0.089861   0.751776   x
            x  H                15         0.749409   0.589861   0.748224   x
            x  H                16         0.250591   0.410139   0.251776   x
            x  H                17         0.573642   0.391386   0.193492   x
            x  H                18         0.426358   0.608614   0.806508   x
            x  H                19         0.573642   0.108614   0.693492   x
            x  H                20         0.426358   0.891386   0.306508   x
            x  H                21         0.478425   0.599823   0.136549   x
            x  H                22         0.521575   0.400177   0.863451   x
            x  H                23         0.478425   0.900177   0.636549   x
            x  H                24         0.521575   0.099823   0.363451   x
            xxxxxxxxxxxxxxxxxxxxxxxxxxxxxxxxxxxxxxxxxxxxxxxxxxxxxxxxxxxxxxxxx


------------------------------------------------------------------------ <-- SCF
SCF loop      Energy                           Energy gain       Timer   <-- SCF
                                               per atom          (sec)   <-- SCF
------------------------------------------------------------------------ <-- SCF
Initial  -3.70615708E+002                                       1479.73  <-- SCF
      1  -3.70624376E+002                    3.61159218E-004    1499.80  <-- SCF
      2  -3.70624404E+002                    1.16568705E-006    1524.97  <-- SCF
      3  -3.70623743E+002                   -2.75216788E-005    1549.09  <-- SCF
      4  -3.70623720E+002                   -9.55016086E-007    1572.74  <-- SCF
      5  -3.70623721E+002                    1.30891474E-008    1596.72  <-- SCF
      6  -3.70623721E+002                    1.45754578E-009    1620.62  <-- SCF
      7  -3.70623721E+002                    2.92439647E-012    1637.59  <-- SCF
      8  -3.70623721E+002                    4.09254382E-012    1654.71  <-- SCF
------------------------------------------------------------------------ <-- SCF
 
Final energy =  -370.6237205629     eV
(energy not corrected for finite basis set)
 

 ******************************** Symmetrised Forces ********************************
 *                                                                                  *
 *                           Cartesian components (eV/A)                            *
 * -------------------------------------------------------------------------------- *
 *                         x                    y                    z              *
 *                                                                                  *
 * H               1     -0.00938             -0.01990              0.01532         *
 * H               2      0.00938              0.01990             -0.01532         *
 * H               3     -0.00938              0.01990              0.01532         *
 * H               4      0.00938             -0.01990             -0.01532         *
 * H               5      0.00809              0.01081             -0.01079         *
 * H               6     -0.00809             -0.01081              0.01079         *
 * H               7      0.00809             -0.01081             -0.01079         *
 * H               8     -0.00809              0.01081              0.01079         *
 * H               9     -0.00114              0.01869              0.03243         *
 * H              10      0.00114             -0.01869             -0.03243         *
 * H              11     -0.00114             -0.01869              0.03243         *
 * H              12      0.00114              0.01869             -0.03243         *
 * H              13      0.00168             -0.02482             -0.02932         *
 * H              14     -0.00168              0.02482              0.02932         *
 * H              15      0.00168              0.02482             -0.02932         *
 * H              16     -0.00168             -0.02482              0.02932         *
 * H              17      0.00047              0.00175             -0.00012         *
 * H              18     -0.00047             -0.00175              0.00012         *
 * H              19      0.00047             -0.00175             -0.00012         *
 * H              20     -0.00047              0.00175              0.00012         *
 * H              21      0.00108             -0.00291              0.00151         *
 * H              22     -0.00108              0.00291             -0.00151         *
 * H              23      0.00108              0.00291              0.00151         *
 * H              24     -0.00108             -0.00291             -0.00151         *
 *                                                                                  *
 ************************************************************************************

 *********** Symmetrised Stress Tensor ***********
 *                                               *
 *          Cartesian components (GPa)           *
 * --------------------------------------------- *
 *             x             y             z     *
 *                                               *
 *  x    -50.190635      0.000000     -0.029507  *
 *  y      0.000000    -49.886131      0.000000  *
 *  z     -0.029507      0.000000    -50.018168  *
 *                                               *
 *  Pressure:   50.0316                          *
 *                                               *
 *************************************************
  
 +------------+-------------+-------------+-----------------+ <-- min LBFGS
 |    Step    |   lambda    |   F.delta'  |    enthalpy     | <-- min LBFGS
 +------------+-------------+-------------+-----------------+ <-- min LBFGS
 |  previous  |    0.000000 |    0.024868 |     -348.142207 | <-- min LBFGS
 | trial step |    1.000000 |   -0.002322 |     -348.143406 | <-- min LBFGS
 +------------+-------------+-------------+-----------------+ <-- min LBFGS
  
 LBFGS: finished iteration     3 with enthalpy= -3.48143406E+002 eV
  
 +-----------+-----------------+-----------------+------------+-----+ <-- LBFGS
 | Parameter |      value      |    tolerance    |    units   | OK? | <-- LBFGS
 +-----------+-----------------+-----------------+------------+-----+ <-- LBFGS
 |  dE/ion   |   4.995925E-005 |   1.000000E-009 |         eV | No  | <-- LBFGS
 |  |F|max   |   3.845076E-002 |   1.000000E-005 |       eV/A | No  | <-- LBFGS
 |  |dR|max  |   2.066144E-003 |   1.000000E-005 |          A | No  | <-- LBFGS
 |   Smax    |   1.906350E-001 |   1.000000E-005 |        GPa | No  | <-- LBFGS
 +-----------+-----------------+-----------------+------------+-----+ <-- LBFGS
  

================================================================================
 Starting LBFGS iteration          4 ...
================================================================================
  
 +------------+-------------+-------------+-----------------+ <-- min LBFGS
 |    Step    |   lambda    |   F.delta'  |    enthalpy     | <-- min LBFGS
 +------------+-------------+-------------+-----------------+ <-- min LBFGS
 |  previous  |    0.000000 |    0.010573 |     -348.143406 | <-- min LBFGS
 +------------+-------------+-------------+-----------------+ <-- min LBFGS
  

--------------------------------------------------------------------------------
 LBFGS: starting iteration         4 with trial guess (lambda=  1.000000)
--------------------------------------------------------------------------------

                           -------------------------------
                                      Unit Cell
                           -------------------------------
        Real Lattice(A)              Reciprocal Lattice(1/A)
     9.8469215     0.0000000     0.0019057        0.637858259   0.000000000   1.178091054
     0.0000000     2.0613731     0.0000000        0.000000000   3.048058275   0.000000000
    -6.5659721     0.0000000     3.5550389       -0.000341934   0.000000000   1.766771158

                       Lattice parameters(A)       Cell Angles
                    a =      9.846922          alpha =   90.000000
                    b =      2.061373          beta  =  151.556301
                    c =      7.466612          gamma =   90.000000

                Current cell volume =            72.186609 A**3

                           -------------------------------
                                     Cell Contents
                           -------------------------------

            xxxxxxxxxxxxxxxxxxxxxxxxxxxxxxxxxxxxxxxxxxxxxxxxxxxxxxxxxxxxxxxxx
            x  Element         Atom        Fractional coordinates of atoms  x
            x                 Number           u          v          w      x
            x---------------------------------------------------------------x
            x  H                 1         0.834768   0.655058   0.103203   x
            x  H                 2         0.165232   0.344942   0.896797   x
            x  H                 3         0.834768   0.844942   0.603203   x
            x  H                 4         0.165232   0.155058   0.396797   x
            x  H                 5         0.883085   0.408940   0.222983   x
            x  H                 6         0.116915   0.591060   0.777017   x
            x  H                 7         0.883085   0.091060   0.722983   x
            x  H                 8         0.116915   0.908940   0.277017   x
            x  H                 9         0.860269   0.120567   0.416570   x
            x  H                10         0.139731   0.879433   0.583430   x
            x  H                11         0.860269   0.379433   0.916570   x
            x  H                12         0.139731   0.620567   0.083430   x
[...]
 *                                                                                  *
 ************************************************************************************

 *********** Symmetrised Stress Tensor ***********
 *                                               *
 *          Cartesian components (GPa)           *
 * --------------------------------------------- *
 *             x             y             z     *
 *                                               *
 *  x    -49.999997      0.000000     -0.000009  *
 *  y      0.000000    -49.999996      0.000000  *
 *  z     -0.000009      0.000000    -49.999999  *
 *                                               *
 *  Pressure:   50.0000                          *
 *                                               *
 *************************************************
  
 +------------+-------------+-------------+-----------------+ <-- min LBFGS
 |    Step    |   lambda    |   F.delta'  |    enthalpy     | <-- min LBFGS
 +------------+-------------+-------------+-----------------+ <-- min LBFGS
 |  previous  |    0.000000 |  4.225E-007 |     -348.143814 | <-- min LBFGS
 | trial step |    1.000000 | -4.317E-007 |     -348.143814 | <-- min LBFGS
 +------------+-------------+-------------+-----------------+ <-- min LBFGS
  
 LBFGS: finished iteration    29 with enthalpy= -3.48143814E+002 eV
  
 +-----------+-----------------+-----------------+------------+-----+ <-- LBFGS
 | Parameter |      value      |    tolerance    |    units   | OK? | <-- LBFGS
 +-----------+-----------------+-----------------+------------+-----+ <-- LBFGS
 |  dE/ion   |   4.863924E-013 |   1.000000E-009 |         eV | Yes | <-- LBFGS
 |  |F|max   |   1.423970E-006 |   1.000000E-005 |       eV/A | Yes | <-- LBFGS
 |  |dR|max  |   7.115491E-007 |   1.000000E-005 |          A | Yes | <-- LBFGS
 |   Smax    |   9.432097E-006 |   1.000000E-005 |        GPa | Yes | <-- LBFGS
 +-----------+-----------------+-----------------+------------+-----+ <-- LBFGS
  
 LBFGS: Geometry optimization completed successfully.

================================================================================
 LBFGS: Final Configuration:
================================================================================

                           -------------------------------
                                      Unit Cell
                           -------------------------------
        Real Lattice(A)              Reciprocal Lattice(1/A)
     9.8527088     0.0000000     0.0013851        0.637545602   0.000000000   1.179803365
     0.0000000     2.0591232     0.0000000        0.000000000   3.051388680   0.000000000
    -6.5700185     0.0000000     3.5503259       -0.000248727   0.000000000   1.769288619

                       Lattice parameters(A)       Cell Angles
                    a =      9.852709          alpha =   90.000000
                    b =      2.059123          beta  =  151.605915
                    c =      7.467929          gamma =   90.000000

                Current cell volume =            72.047542 A**3

                           -------------------------------
                                     Cell Contents
                           -------------------------------

            xxxxxxxxxxxxxxxxxxxxxxxxxxxxxxxxxxxxxxxxxxxxxxxxxxxxxxxxxxxxxxxxx
            x  Element         Atom        Fractional coordinates of atoms  x
            x                 Number           u          v          w      x
            x---------------------------------------------------------------x
            x  H                 1         0.835574   0.652874   0.103678   x
            x  H                 2         0.164426   0.347126   0.896322   x
            x  H                 3         0.835574   0.847126   0.603678   x
            x  H                 4         0.164426   0.152874   0.396322   x
            x  H                 5         0.882546   0.406307   0.223230   x
            x  H                 6         0.117454   0.593693   0.776770   x
            x  H                 7         0.882546   0.093693   0.723230   x
            x  H                 8         0.117454   0.906307   0.276770   x
            x  H                 9         0.859883   0.118795   0.416269   x
            x  H                10         0.140117   0.881205   0.583731   x
            x  H                11         0.859883   0.381205   0.916269   x
            x  H                12         0.140117   0.618795   0.083731   x
            x  H                13         0.749293   0.908967   0.247917   x
            x  H                14         0.250707   0.091033   0.752083   x
            x  H                15         0.749293   0.591033   0.747917   x
            x  H                16         0.250707   0.408967   0.252083   x
            x  H                17         0.573808   0.392445   0.193389   x
            x  H                18         0.426192   0.607555   0.806611   x
            x  H                19         0.573808   0.107555   0.693389   x
            x  H                20         0.426192   0.892445   0.306611   x
            x  H                21         0.478883   0.598862   0.137443   x
            x  H                22         0.521117   0.401138   0.862557   x
            x  H                23         0.478883   0.901138   0.637443   x
            x  H                24         0.521117   0.098862   0.362557   x
            xxxxxxxxxxxxxxxxxxxxxxxxxxxxxxxxxxxxxxxxxxxxxxxxxxxxxxxxxxxxxxxxx


 LBFGS: Final Enthalpy     = -3.48143814E+002 eV
 LBFGS: Final <frequency>  =     792.01009 cm-1
 LBFGS: Final bulk modulus =     137.20566 GPa

 ******************************** Symmetrised Forces ********************************
 *                                                                                  *
 *                           Cartesian components (eV/A)                            *
 * -------------------------------------------------------------------------------- *
 *                         x                    y                    z              *
 *                                                                                  *
 * H               1     -0.00000             -0.00000              0.00000         *
 * H               2      0.00000              0.00000             -0.00000         *
 * H               3     -0.00000              0.00000              0.00000         *
 * H               4      0.00000             -0.00000             -0.00000         *
 * H               5      0.00000              0.00000             -0.00000         *
 * H               6     -0.00000             -0.00000              0.00000         *
 * H               7      0.00000             -0.00000             -0.00000         *
 * H               8     -0.00000              0.00000              0.00000         *
 * H               9     -0.00000              0.00000             -0.00000         *
 * H              10      0.00000             -0.00000              0.00000         *
 * H              11     -0.00000             -0.00000             -0.00000         *
 * H              12      0.00000              0.00000              0.00000         *
 * H              13      0.00000              0.00000             -0.00000         *
 * H              14     -0.00000             -0.00000              0.00000         *
 * H              15      0.00000             -0.00000             -0.00000         *
 * H              16     -0.00000              0.00000              0.00000         *
 * H              17      0.00000             -0.00000             -0.00000         *
 * H              18     -0.00000              0.00000              0.00000         *
 * H              19      0.00000              0.00000             -0.00000         *
 * H              20     -0.00000             -0.00000              0.00000         *
 * H              21      0.00000              0.00000              0.00000         *
 * H              22     -0.00000             -0.00000             -0.00000         *
 * H              23      0.00000             -0.00000              0.00000         *
 * H              24     -0.00000              0.00000             -0.00000         *
 *                                                                                  *
 ************************************************************************************

 *********** Symmetrised Stress Tensor ***********
 *                                               *
 *          Cartesian components (GPa)           *
 * --------------------------------------------- *
 *             x             y             z     *
 *                                               *
 *  x    -49.999997      0.000000     -0.000009  *
 *  y      0.000000    -49.999996      0.000000  *
 *  z     -0.000009      0.000000    -49.999999  *
 *                                               *
 *  Pressure:   50.0000                          *
 *                                               *
 *************************************************

 Pseudo atomic calculation performed for H 1s1

 Converged in 24 iterations to a total energy of -12.4843 eV

Charge spilling parameter for spin component 1 = 0.64%

            Orbital Populations       
     Ion    Atom   Orbital             Charge
  -------------------------------------------
      H     1      S                    0.987
      H     2      S                    0.987
      H     3      S                    0.987
      H     4      S                    0.987
      H     5      S                    1.013
      H     6      S                    1.013
      H     7      S                    1.013
      H     8      S                    1.013
      H     9      S                    1.009
      H    10      S                    1.009
      H    11      S                    1.009
      H    12      S                    1.009
      H    13      S                    0.991
      H    14      S                    0.991
      H    15      S                    0.991
      H    16      S                    0.991
      H    17      S                    1.001
      H    18      S                    1.001
      H    19      S                    1.002
      H    20      S                    1.002
      H    21      S                    0.998
      H    22      S                    0.998
      H    23      S                    0.998
      H    24      S                    0.998
  -------------------------------------------
                           Total:      24.000
  -------------------------------------------

     Atomic Populations (Mulliken)
     -----------------------------
Species          Ion     s      p      d      f     Total  Charge (e)
=====================================================================
  H               1     0.99   0.00   0.00   0.00   0.99     0.01
  H               2     0.99   0.00   0.00   0.00   0.99     0.01
  H               3     0.99   0.00   0.00   0.00   0.99     0.01
  H               4     0.99   0.00   0.00   0.00   0.99     0.01
  H               5     1.01   0.00   0.00   0.00   1.01    -0.01
  H               6     1.01   0.00   0.00   0.00   1.01    -0.01
  H               7     1.01   0.00   0.00   0.00   1.01    -0.01
  H               8     1.01   0.00   0.00   0.00   1.01    -0.01
  H               9     1.01   0.00   0.00   0.00   1.01    -0.01
  H              10     1.01   0.00   0.00   0.00   1.01    -0.01
  H              11     1.01   0.00   0.00   0.00   1.01    -0.01
  H              12     1.01   0.00   0.00   0.00   1.01    -0.01
  H              13     0.99   0.00   0.00   0.00   0.99     0.01
  H              14     0.99   0.00   0.00   0.00   0.99     0.01
  H              15     0.99   0.00   0.00   0.00   0.99     0.01
  H              16     0.99   0.00   0.00   0.00   0.99     0.01
  H              17     1.00   0.00   0.00   0.00   1.00    -0.00
  H              18     1.00   0.00   0.00   0.00   1.00    -0.00
  H              19     1.00   0.00   0.00   0.00   1.00    -0.00
  H              20     1.00   0.00   0.00   0.00   1.00    -0.00
  H              21     1.00   0.00   0.00   0.00   1.00     0.00
  H              22     1.00   0.00   0.00   0.00   1.00     0.00
  H              23     1.00   0.00   0.00   0.00   1.00     0.00
  H              24     1.00   0.00   0.00   0.00   1.00     0.00
=====================================================================

                 Bond                   Population      Length (A)
======================================================================
              H 2  -- H 6                    1.30        0.73627
              H 4  -- H 8                    1.30        0.73627
              H 3  -- H 7                    1.30        0.73627
              H 1  -- H 5                    1.30        0.73627
              H 19 -- H 23                   1.31        0.73651
              H 17 -- H 21                   1.31        0.73651
              H 18 -- H 22                   1.31        0.73651
              H 20 -- H 24                   1.31        0.73651
              H 9  -- H 13                   1.30        0.73782
              H 11 -- H 15                   1.30        0.73782
              H 12 -- H 16                   1.30        0.73782
              H 10 -- H 14                   1.30        0.73782
              H 5  -- H 10                  -0.11        1.61986
              H 7  -- H 12                  -0.11        1.61986
              H 8  -- H 11                  -0.11        1.61986
              H 6  -- H 9                   -0.11        1.61986
              H 9  -- H 17                  -0.12        1.66685
              H 11 -- H 19                  -0.12        1.66685
              H 12 -- H 20                  -0.12        1.66685
              H 10 -- H 18                  -0.12        1.66685
              H 21 -- H 24                  -0.13        1.68184
              H 22 -- H 23                  -0.13        1.68184
              H 13 -- H 17                  -0.11        1.70518
              H 14 -- H 18                  -0.11        1.70518
              H 16 -- H 20                  -0.11        1.70518
              H 15 -- H 19                  -0.11        1.70518
              H 3  -- H 9                   -0.06        1.70846
              H 1  -- H 11                  -0.06        1.70846
              H 4  -- H 10                  -0.06        1.70846
              H 2  -- H 12                  -0.06        1.70846
              H 14 -- H 17                  -0.10        1.70941
              H 16 -- H 19                  -0.10        1.70941
              H 15 -- H 20                  -0.10        1.70941
              H 13 -- H 18                  -0.10        1.70941
              H 16 -- H 23                  -0.10        1.72634
              H 13 -- H 22                  -0.10        1.72634
              H 15 -- H 24                  -0.10        1.72634
              H 14 -- H 21                  -0.10        1.72634
              H 4  -- H 18                  -0.12        1.73581
              H 1  -- H 19                  -0.12        1.73581
              H 3  -- H 17                  -0.12        1.73581
              H 2  -- H 20                  -0.12        1.73581
              H 8  -- H 12                  -0.12        1.74497
              H 6  -- H 10                  -0.12        1.74497
              H 5  -- H 9                   -0.12        1.74497
              H 7  -- H 11                  -0.12        1.74497
              H 7  -- H 24                  -0.05        1.74945
              H 5  -- H 22                  -0.05        1.74945
              H 6  -- H 21                  -0.05        1.74945
              H 8  -- H 23                  -0.05        1.74945
              H 2  -- H 9                   -0.14        1.77505
              H 3  -- H 12                  -0.14        1.77505
              H 1  -- H 10                  -0.14        1.77505
              H 4  -- H 11                  -0.14        1.77505
              H 4  -- H 22                  -0.12        1.79068
              H 2  -- H 24                  -0.12        1.79068
              H 3  -- H 21                  -0.12        1.79068
              H 1  -- H 23                  -0.12        1.79068
              H 7  -- H 15                  -0.11        1.79787
              H 5  -- H 13                  -0.11        1.79787
              H 8  -- H 16                  -0.11        1.79787
              H 6  -- H 14                  -0.11        1.79787
              H 17 -- H 18                  -0.06        1.80648
              H 19 -- H 20                  -0.06        1.80648
              H 2  -- H 21                  -0.05        1.81514
              H 3  -- H 24                  -0.05        1.81514
              H 4  -- H 23                  -0.05        1.81514
              H 1  -- H 22                  -0.05        1.81514
              H 3  -- H 6                   -0.10        1.82764
              H 1  -- H 8                   -0.10        1.82764
              H 4  -- H 5                   -0.10        1.82764
              H 2  -- H 7                   -0.10        1.82764
              H 11 -- H 12                  -0.04        1.83075
              H 9  -- H 10                  -0.04        1.83075
              H 17 -- H 24                  -0.13        1.83981
              H 19 -- H 22                  -0.13        1.83981
              H 20 -- H 21                  -0.13        1.83981
              H 18 -- H 23                  -0.13        1.83981
              H 2  -- H 14                  -0.12        1.94220
              H 4  -- H 16                  -0.12        1.94220
              H 3  -- H 15                  -0.12        1.94220
              H 1  -- H 13                  -0.12        1.94220
              H 3  -- H 13                  -0.07        1.95545
              H 1  -- H 15                  -0.07        1.95545
              H 4  -- H 14                  -0.07        1.95545
              H 2  -- H 16                  -0.07        1.95545
              H 1  -- H 4                   -0.12        1.96875
              H 2  -- H 3                   -0.12        1.96875
              H 6  -- H 13                  -0.11        1.99301
              H 8  -- H 15                  -0.11        1.99301
              H 5  -- H 14                  -0.11        1.99301
              H 7  -- H 16                  -0.11        1.99301
              H 6  -- H 20                  -0.10        2.02768
              H 8  -- H 18                  -0.10        2.02768
              H 7  -- H 17                  -0.10        2.02768
              H 5  -- H 19                  -0.10        2.02768
              H 20 -- H 23                  -0.06        2.02909
              H 17 -- H 22                  -0.06        2.02909
              H 18 -- H 21                  -0.06        2.02909
              H 19 -- H 24                  -0.06        2.02909
              H 12 -- H 15                  -0.05        2.03224
              H 10 -- H 13                  -0.05        2.03224
              H 11 -- H 16                  -0.05        2.03224
              H 9  -- H 14                  -0.05        2.03224
======================================================================


Writing analysis data to P21c.castep_bin

Writing model to P21c.check
 
 A BibTeX formatted list of references used in this run has been written to 
 P21c.bib
 
Initialisation time =      4.05 s
Calculation time    =   8488.81 s
Finalisation time   =     31.63 s
Total time          =   8524.50 s
Peak Memory Use     = 696580 kB
  
Overall parallel efficiency rating: Excellent (96%)                             
  
Data was distributed by:-
k-point (16-way); efficiency rating: Excellent (96%)                            
