 +-------------------------------------------------+
 |                                                 |
 |      CCC   AA    SSS  TTTTT  EEEEE  PPPP        |
 |     C     A  A  S       T    E      P   P       |
 |     C     AAAA   SS     T    EEE    PPPP        |
 |     C     A  A     S    T    E      P           |
 |      CCC  A  A  SSS     T    EEEEE  P           |
 |                                                 |
 +-------------------------------------------------+
 |                                                 |
 | Welcome to Academic Release CASTEP version 18.1 |          
 | Ab Initio Total Energy Program                  |
 |                                                 |
 | Authors:                                        |
 | M. Segall, M. Probert, C. Pickard, P. Hasnip,   |
 | S. Clark, K. Refson, J. R. Yates, M. Payne      |
 |                                                 |
 | Contributors:                                   |
 | P. Lindan, P. Haynes, J. White, V. Milman,      |
 | N. Govind, M. Gibson, P. Tulip, V. Cocula,      |
 | B. Montanari, D. Quigley, M. Glover,            |
 | L. Bernasconi, A. Perlov, M. Plummer,           |
 | E. McNellis, J. Meyer, J. Gale, D. Jochym       |
 | J. Aarons, B. Walker, R. Gillen, D. Jones       |
 | T. Green, I. J. Bush, C. J. Armstrong,          |
 | E. J. Higgins, E. L. Brown, M. S. McFly,        |
 | J. Wilkins, B-C. Shih, P. J. P. Byrne           |
 |                                                 |
 | Copyright (c) 2000 - 2017                       |
 |                                                 |
 |     Distributed under the terms of an           |
 |     Agreement between the United Kingdom        |
 |     Car-Parrinello (UKCP) Consortium,           |
 |     Daresbury Laboratory and Accelrys, Inc.     |
 |                                                 |
 | Please cite                                     |
 |                                                 |
 |     "First principles methods using CASTEP"     |
 |                                                 |
 |         Zeitschrift fuer Kristallographie       |
 |           220(5-6) pp. 567-570 (2005)           |
 |                                                 |
 | S. J. Clark, M. D. Segall, C. J. Pickard,       |
 | P. J. Hasnip, M. J. Probert, K. Refson,         |
 | M. C. Payne                                     |
 |                                                 |
 |       in all publications arising from          |
 |              your use of CASTEP                 |
 |                                                 |
 +-------------------------------------------------+


 Compiled for linux_x86_64_gfortran4.8 on Thu, 19 Jul 2018 15:42:32 +0100
 from code version 70483bd0ad64+  Sun, 10 Dec 2017 12:18:29 +0000
 Compiler: GNU Fortran 4.8.5; Optimisation: fast
 MATHLIBS: Intel MKL(2018.0.0) (LAPACK version 3.7.0)
 FFT Lib : mkl
 Fundamental constants values: CODATA 2014

 Run started: Fri, 21 Aug 2020 21:51:16 +0100

 Atomic calculation performed for H: 1s1

 Converged in 41 iterations to an ae energy of -12.488 eV

   ============================================================                
   | Pseudopotential Report - Date of generation 21-08-2020   |                
   ------------------------------------------------------------                
   | Element: H Ionic charge:  1.00 Level of theory: PBE      |                
   | Atomic Solver: Koelling-Harmon                           |                
   |                                                          |                
   |               Reference Electronic Structure             |                
   |         Orbital         Occupation         Energy        |                
   |            1s              1.000           -0.239        |                
   |                                                          |                
   |                 Pseudopotential Definition               |                
   |        Beta     l      e      Rc     scheme   norm       |                
   |         loc     0   -0.239   0.702     qc      1         |                
   |                                                          |                
   | No charge augmentation                                   |                
   | No partial core correction                               |                
   ------------------------------------------------------------                
   | "0|0.7|2|6|8|10L(qc=10)"                                 |                
   ------------------------------------------------------------                
   |      Author: Chris J. Pickard, Cambridge University      |                
   ============================================================                

 Pseudo atomic calculation performed for H 1s1

 Converged in 24 iterations to a total energy of -12.4843 eV

 Calculation parallelised over 16 processes.
 Data is distributed by k-point(16-way)

 ************************************ Title ************************************
 

 ***************************** General Parameters ******************************
  
 output verbosity                               : normal  (1)
 write checkpoint data to                       : P21c.check
 type of calculation                            : geometry optimization
 stress calculation                             : on
 density difference calculation                 : off
 electron localisation func (ELF) calculation   : off
 Hirshfeld analysis                             : off
 unlimited duration calculation
 timing information                             : on
 memory usage estimate                          : on
 write extra output files                       : on
 write final potential to formatted file        : off
 write final density to formatted file          : off
 write structure in CELL formatted file         : on
 write BibTeX reference list                    : on
 write OTFG pseudopotential files               : on
 write electrostatic potential file             : on
 write bands file                               : on
 checkpoint writing                             : both castep_bin and check files
  
 output         length unit                     : A
 output           mass unit                     : amu
 output           time unit                     : ps
 output         charge unit                     : e
 output           spin unit                     : hbar/2
 output         energy unit                     : eV
 output          force unit                     : eV/A
 output       velocity unit                     : A/ps
 output       pressure unit                     : GPa
 output     inv_length unit                     : 1/A
 output      frequency unit                     : cm-1
 output force constant unit                     : eV/A**2
 output         volume unit                     : A**3
 output   IR intensity unit                     : (D/A)**2/amu
 output         dipole unit                     : D
 output         efield unit                     : eV/A/e
 output        entropy unit                     : J/mol/K
  
 wavefunctions paging                           : none
 random number generator seed                   : randomised (215116543)
 data distribution                              : optimal for this architecture
 optimization strategy                          : maximize speed(+++)

 *********************** Exchange-Correlation Parameters ***********************
  
 using functional                               : Perdew Burke Ernzerhof
 relativistic treatment                         : Koelling-Harmon
 DFT+D: Semi-empirical dispersion correction    : off

 ************************* Pseudopotential Parameters **************************
  
 pseudopotential representation                 : reciprocal space
 <beta|phi> representation                      : reciprocal space
 spin-orbit coupling                            : off

 **************************** Basis Set Parameters *****************************
  
 plane wave basis set cut-off                   :  1200.0000   eV
 size of standard grid                          :     2.0000
 size of   fine   gmax                          :    35.4943   1/A
 finite basis set correction                    : automatic
 number of sample energies                      :          3
           sample  spacing                      :     5.0000   eV

 **************************** Electronic Parameters ****************************
  
 number of  electrons                           :  24.00    
 net charge of system                           :  0.000    
 treating system as non-spin-polarized
 number of bands                                :         12

 ********************* Electronic Minimization Parameters **********************
  
 Method: Treating system as non-metallic,
         and number of  SD  steps               :          1
         and number of  CG  steps               :          4
  
 total energy / atom convergence tol.           : 0.1000E-10   eV
 eigen-energy convergence tolerance             : 0.2000E-10   eV
 max force / atom convergence tol.              : ignored
 convergence tolerance window                   :          3   cycles
 max. number of SCF cycles                      :        100
 periodic dipole correction                     : NONE

 ************************** Density Mixing Parameters **************************
  
 density-mixing scheme                          : Broyden
 max. length of mixing history                  :         20
 charge density mixing amplitude                : 0.8000    
 cut-off energy for mixing                      :  1200.       eV

 *********************** Population Analysis Parameters ************************
  
 Population analysis with cutoff                :  3.000       A
 Population analysis output                     : summary and pdos components

 ********************** Geometry Optimization Parameters ***********************
  
 optimization method                            : LBFGS
 max. no. of LBFGS updates                      : unbounded
 variable cell method                           : fixed basis quality
 max. number of steps                           :        200
 estimated bulk modulus                         :  500.0       GPa
 estimated <frequency>                          :  1668.       cm-1
 geom line minimiser                            : on
 with line minimiser tolerance                  :     0.4000
 total energy convergence tolerance             : 0.1000E-08   eV/atom
        max ionic |force| tolerance             : 0.1000E-04   eV/A
 max ionic |displacement| tolerance             : 0.1000E-04   A
   max |stress component| tolerance             : 0.1000E-04   GPa
 convergence tolerance window                   :          2   steps
 backup results every                           :      14400   seconds
 write geom trajectory file                     : on

 *******************************************************************************
  

                           -------------------------------
                                      Unit Cell
                           -------------------------------
        Real Lattice(A)                      Reciprocal Lattice(1/A)
     9.8527088     0.0000000     0.0013851        0.637545602   0.000000000   1.179803365
     0.0000000     2.0591232     0.0000000        0.000000000   3.051388680   0.000000000
    -6.5700185     0.0000000     3.5503259       -0.000248727   0.000000000   1.769288619

                       Lattice parameters(A)       Cell Angles
                    a =      9.852709          alpha =   90.000000
                    b =      2.059123          beta  =  151.605915
                    c =      7.467929          gamma =   90.000000

                       Current cell volume =            72.047542       A**3
                                   density =             0.335758   AMU/A**3
                                           =             0.557540     g/cm^3

                           -------------------------------
                                     Cell Contents
                           -------------------------------
                         Total number of ions in cell =   24
                      Total number of species in cell =    1
                        Max number of any one species =   24

            xxxxxxxxxxxxxxxxxxxxxxxxxxxxxxxxxxxxxxxxxxxxxxxxxxxxxxxxxxxx
            x  Element    Atom        Fractional coordinates of atoms  x
            x            Number           u          v          w      x
            x----------------------------------------------------------x
            x  H            1         0.835574   0.652874   0.103678   x 
            x  H            2         0.164426   0.347126   0.896322   x 
            x  H            3         0.835574   0.847126   0.603678   x 
            x  H            4         0.164426   0.152874   0.396322   x 
            x  H            5         0.882546   0.406307   0.223230   x 
            x  H            6         0.117454   0.593693   0.776770   x 
            x  H            7         0.882546   0.093693   0.723230   x 
            x  H            8         0.117454   0.906307   0.276770   x 
            x  H            9         0.859883   0.118795   0.416269   x 
            x  H           10         0.140117   0.881205   0.583731   x 
            x  H           11         0.859883   0.381205   0.916269   x 
            x  H           12         0.140117   0.618795   0.083731   x 
            x  H           13         0.749293   0.908967   0.247917   x 
            x  H           14         0.250707   0.091033   0.752083   x 
            x  H           15         0.749293   0.591033   0.747917   x 
            x  H           16         0.250707   0.408967   0.252083   x 
            x  H           17         0.573808   0.392445   0.193389   x 
            x  H           18         0.426192   0.607555   0.806611   x 
            x  H           19         0.573808   0.107555   0.693389   x 
            x  H           20         0.426192   0.892445   0.306611   x 
            x  H           21         0.478883   0.598862   0.137443   x 
            x  H           22         0.521117   0.401138   0.862557   x 
            x  H           23         0.478883   0.901138   0.637443   x 
            x  H           24         0.521117   0.098862   0.362557   x 
            xxxxxxxxxxxxxxxxxxxxxxxxxxxxxxxxxxxxxxxxxxxxxxxxxxxxxxxxxxxx


                         No user defined ionic velocities

                           -------------------------------
                                   Details of Species
                           -------------------------------

                               Mass of species in AMU
                                    H    1.0079400

                          Electric Quadrupole Moment (Barn)
                                    H    0.0028600 Isotope  2

                          Files used for pseudopotentials:
                                    H 0|0.7|2|6|8|10L(qc=10)

                           -------------------------------
                              k-Points For BZ Sampling
                           -------------------------------
                       MP grid size for SCF calculation is  8 13 11
                            with an offset of   0.000  0.000  0.000
                       Number of kpoints used =           308

                           -------------------------------
                               Symmetry and Constraints
                           -------------------------------

                      Maximum deviation from symmetry = 0.204191E-13     ANG

                      Number of symmetry operations   =           4
                      Number of ionic constraints     =           3
                      Point group of crystal =     5: C2h, 2/m, 2/m
                      Space group of crystal =    14: P2_1/c, -P 2ybc

             Set iprint > 1 for details on symmetry rotations/translations

                         Centre of mass is constrained
             Set iprint > 1 for details of linear ionic constraints

                         Number of cell constraints= 2
                         Cell constraints are:  1 2 3 0 5 0

                         External pressure/stress (GPa)
                         40.00000   0.00000   0.00000
                                   40.00000   0.00000
                                             40.00000
  
+---------------- MEMORY AND SCRATCH DISK ESTIMATES PER PROCESS --------------+
|                                                     Memory          Disk    |
| Baseline code, static data and system overhead      412.0 MB         0.0 MB |
| BLAS internal memory storage                          0.0 MB         0.0 MB |
| Model and support data                              103.7 MB         0.0 MB |
| Electronic energy minimisation requirements          93.3 MB         0.0 MB |
| Force calculation requirements                       29.7 MB         0.0 MB |
| Stress calculation requirements                      37.6 MB         0.0 MB |
|                                               ----------------------------- |
| Approx. total storage required per process          609.0 MB         0.0 MB |
|                                                                             |
| Requirements will fluctuate during execution and may exceed these estimates |
+-----------------------------------------------------------------------------+
Calculating finite basis set correction with  3 cut-off energies.
Calculating total energy with cut-off of 1190.000 eV.
------------------------------------------------------------------------ <-- SCF
SCF loop      Energy                           Energy gain       Timer   <-- SCF
                                               per atom          (sec)   <-- SCF
------------------------------------------------------------------------ <-- SCF
Initial   6.23247346E+002                                          9.21  <-- SCF
      1  -2.96624193E+002                    3.83279808E+001      34.53  <-- SCF
      2  -3.71840233E+002                    3.13400165E+000      50.65  <-- SCF
      3  -3.73119523E+002                    5.33037436E-002      64.48  <-- SCF
      4  -3.70699589E+002                   -1.00830558E-001      87.75  <-- SCF
      5  -3.70620781E+002                   -3.28369362E-003     111.47  <-- SCF
      6  -3.70624346E+002                    1.48572873E-004     134.97  <-- SCF
      7  -3.70624742E+002                    1.64722794E-005     158.55  <-- SCF
      8  -3.70624743E+002                    5.23623016E-008     182.58  <-- SCF
      9  -3.70624743E+002                    4.31576872E-009     207.89  <-- SCF
     10  -3.70624743E+002                    1.21930415E-011     225.97  <-- SCF
     11  -3.70624743E+002                    3.13184332E-012     243.89  <-- SCF
     12  -3.70624743E+002                   -2.77938507E-013     262.02  <-- SCF
------------------------------------------------------------------------ <-- SCF
 
Final energy =  -370.6247431538     eV
(energy not corrected for finite basis set)
 
Calculating total energy with cut-off of 1195.000 eV.
------------------------------------------------------------------------ <-- SCF
SCF loop      Energy                           Energy gain       Timer   <-- SCF
                                               per atom          (sec)   <-- SCF
------------------------------------------------------------------------ <-- SCF
Initial  -3.70624743E+002                                        270.58  <-- SCF
      1  -3.70626452E+002                    7.11922578E-005     291.83  <-- SCF
      2  -3.70626452E+002                    8.97539973E-011     317.00  <-- SCF
      3  -3.70626453E+002                    3.39199095E-008     341.78  <-- SCF
      4  -3.70626453E+002                    1.92818429E-009     366.31  <-- SCF
      5  -3.70626453E+002                    3.52095723E-011     383.87  <-- SCF
      6  -3.70626453E+002                   -1.53067584E-012     401.74  <-- SCF
      7  -3.70626453E+002                    3.34734637E-012     419.87  <-- SCF
------------------------------------------------------------------------ <-- SCF
 
Final energy =  -370.6264526314     eV
(energy not corrected for finite basis set)
 
Calculating total energy with cut-off of 1200.000 eV.
------------------------------------------------------------------------ <-- SCF
SCF loop      Energy                           Energy gain       Timer   <-- SCF
                                               per atom          (sec)   <-- SCF
------------------------------------------------------------------------ <-- SCF
Initial  -3.70626453E+002                                        428.40  <-- SCF
      1  -3.70628102E+002                    6.87189209E-005     449.55  <-- SCF
      2  -3.70628102E+002                    8.53674026E-011     474.32  <-- SCF
      3  -3.70628103E+002                    3.25662684E-008     499.59  <-- SCF
      4  -3.70628103E+002                    1.84072228E-009     524.56  <-- SCF
      5  -3.70628103E+002                    3.39689193E-011     542.01  <-- SCF
      6  -3.70628103E+002                   -1.88514814E-012     560.81  <-- SCF
      7  -3.70628103E+002                    3.69376248E-012     578.86  <-- SCF
------------------------------------------------------------------------ <-- SCF
 
Final energy =  -370.6281027142     eV
(energy not corrected for finite basis set)
 
 For future reference: finite basis dEtot/dlog(Ecut) =      -0.399151eV
 Total energy corrected for finite basis set =    -370.628084 eV
 
+---------------- MEMORY AND SCRATCH DISK ESTIMATES PER PROCESS --------------+
|                                                     Memory          Disk    |
| Model and support data                              102.9 MB         0.0 MB |
| Electronic energy minimisation requirements          93.3 MB         0.0 MB |
| Geometry minimisation requirements                  122.7 MB         0.0 MB |
|                                               ----------------------------- |
| Approx. total storage required per process          318.8 MB         0.0 MB |
|                                                                             |
| Requirements will fluctuate during execution and may exceed these estimates |
+-----------------------------------------------------------------------------+
 

 ******************************** Symmetrised Forces ********************************
 *                                                                                  *
 *                           Cartesian components (eV/A)                            *
 * -------------------------------------------------------------------------------- *
 *                         x                    y                    z              *
 *                                                                                  *
 * H               1     -0.00000             -0.00000              0.00000         *
 * H               2      0.00000              0.00000             -0.00000         *
 * H               3     -0.00000              0.00000              0.00000         *
 * H               4      0.00000             -0.00000             -0.00000         *
 * H               5      0.00000              0.00000             -0.00000         *
 * H               6     -0.00000             -0.00000              0.00000         *
 * H               7      0.00000             -0.00000             -0.00000         *
 * H               8     -0.00000              0.00000              0.00000         *
 * H               9     -0.00000              0.00000             -0.00000         *
 * H              10      0.00000             -0.00000              0.00000         *
 * H              11     -0.00000             -0.00000             -0.00000         *
 * H              12      0.00000              0.00000              0.00000         *
 * H              13     -0.00000             -0.00000             -0.00000         *
 * H              14      0.00000              0.00000              0.00000         *
 * H              15     -0.00000              0.00000             -0.00000         *
 * H              16      0.00000             -0.00000              0.00000         *
 * H              17      0.00000             -0.00000             -0.00000         *
 * H              18     -0.00000              0.00000              0.00000         *
 * H              19      0.00000              0.00000             -0.00000         *
 * H              20     -0.00000             -0.00000              0.00000         *
 * H              21      0.00000              0.00000              0.00000         *
 * H              22     -0.00000             -0.00000             -0.00000         *
 * H              23      0.00000             -0.00000              0.00000         *
 * H              24     -0.00000              0.00000             -0.00000         *
 *                                                                                  *
 ************************************************************************************

 *********** Symmetrised Stress Tensor ***********
 *                                               *
 *          Cartesian components (GPa)           *
 * --------------------------------------------- *
 *             x             y             z     *
 *                                               *
 *  x    -49.979535      0.000000     -0.000009  *
 *  y      0.000000    -49.979535      0.000000  *
 *  z     -0.000009      0.000000    -49.979540  *
 *                                               *
 *  Pressure:   49.9795                          *
 *                                               *
 *************************************************
 LBFGS: finished iteration     0 with enthalpy= -3.52640669E+002 eV
  
 +-----------+-----------------+-----------------+------------+-----+ <-- LBFGS
 | Parameter |      value      |    tolerance    |    units   | OK? | <-- LBFGS
 +-----------+-----------------+-----------------+------------+-----+ <-- LBFGS
 |  dE/ion   |   0.000000E+000 |   1.000000E-009 |         eV | No  | <-- LBFGS
 |  |F|max   |   9.344808E-007 |   1.000000E-005 |       eV/A | Yes | <-- LBFGS
 |  |dR|max  |   0.000000E+000 |   1.000000E-005 |          A | No  | <-- LBFGS
 |   Smax    |   9.979540E+000 |   1.000000E-005 |        GPa | No  | <-- LBFGS
 +-----------+-----------------+-----------------+------------+-----+ <-- LBFGS
  

================================================================================
 Starting LBFGS iteration          1 ...
================================================================================
  
 +------------+-------------+-------------+-----------------+ <-- min LBFGS
 |    Step    |   lambda    |   F.delta'  |    enthalpy     | <-- min LBFGS
 +------------+-------------+-------------+-----------------+ <-- min LBFGS
 |  previous  |    0.000000 |    0.285647 |     -352.640669 | <-- min LBFGS
 +------------+-------------+-------------+-----------------+ <-- min LBFGS
  

--------------------------------------------------------------------------------
 LBFGS: starting iteration         1 with trial guess (lambda=  1.000000)
--------------------------------------------------------------------------------
 
+---------------- MEMORY AND SCRATCH DISK ESTIMATES PER PROCESS --------------+
|                                                     Memory          Disk    |
| Model and support data                              103.8 MB         0.0 MB |
| Electronic energy minimisation requirements          94.7 MB         0.0 MB |
| Geometry minimisation requirements                  124.6 MB         0.0 MB |
|                                               ----------------------------- |
| Approx. total storage required per process          323.0 MB         0.0 MB |
|                                                                             |
| Requirements will fluctuate during execution and may exceed these estimates |
+-----------------------------------------------------------------------------+
 

                           -------------------------------
                                      Unit Cell
                           -------------------------------
        Real Lattice(A)              Reciprocal Lattice(1/A)
     9.9182591     0.0000000     0.0013944        0.633332022   0.000000000   1.172005975
     0.0000000     2.0728226     0.0000000        0.000000000   3.031221890   0.000000000
    -6.6137290     0.0000000     3.5739462       -0.000247093   0.000000000   1.757595292

                       Lattice parameters(A)       Cell Angles
                    a =      9.918259          alpha =   90.000000
                    b =      2.072823          beta  =  151.605915
                    c =      7.517613          gamma =   90.000000

                Current cell volume =            73.495133 A**3

                           -------------------------------
                                     Cell Contents
                           -------------------------------

            xxxxxxxxxxxxxxxxxxxxxxxxxxxxxxxxxxxxxxxxxxxxxxxxxxxxxxxxxxxxxxxxx
            x  Element         Atom        Fractional coordinates of atoms  x
            x                 Number           u          v          w      x
            x---------------------------------------------------------------x
            x  H                 1         0.835574   0.652874   0.103678   x
            x  H                 2         0.164426   0.347126   0.896322   x
            x  H                 3         0.835574   0.847126   0.603678   x
            x  H                 4         0.164426   0.152874   0.396322   x
            x  H                 5         0.882546   0.406307   0.223230   x
            x  H                 6         0.117454   0.593693   0.776770   x
            x  H                 7         0.882546   0.093693   0.723230   x
            x  H                 8         0.117454   0.906307   0.276770   x
            x  H                 9         0.859883   0.118795   0.416269   x
            x  H                10         0.140117   0.881205   0.583731   x
            x  H                11         0.859883   0.381205   0.916269   x
            x  H                12         0.140117   0.618795   0.083731   x
            x  H                13         0.749293   0.908967   0.247917   x
            x  H                14         0.250707   0.091033   0.752083   x
            x  H                15         0.749293   0.591033   0.747917   x
            x  H                16         0.250707   0.408967   0.252083   x
            x  H                17         0.573808   0.392445   0.193389   x
            x  H                18         0.426192   0.607555   0.806611   x
            x  H                19         0.573808   0.107555   0.693389   x
            x  H                20         0.426192   0.892445   0.306611   x
            x  H                21         0.478883   0.598862   0.137443   x
            x  H                22         0.521117   0.401138   0.862557   x
            x  H                23         0.478883   0.901138   0.637443   x
            x  H                24         0.521117   0.098862   0.362557   x
            xxxxxxxxxxxxxxxxxxxxxxxxxxxxxxxxxxxxxxxxxxxxxxxxxxxxxxxxxxxxxxxxx


------------------------------------------------------------------------ <-- SCF
SCF loop      Energy                           Energy gain       Timer   <-- SCF
                                               per atom          (sec)   <-- SCF
------------------------------------------------------------------------ <-- SCF
Initial  -3.71049020E+002                                        594.75  <-- SCF
      1  -3.71063761E+002                    6.14210801E-004     616.01  <-- SCF
      2  -3.71063792E+002                    1.29938902E-006     640.56  <-- SCF
      3  -3.71063189E+002                   -2.51166894E-005     664.72  <-- SCF
      4  -3.71063175E+002                   -6.09986619E-007     688.98  <-- SCF
      5  -3.71063176E+002                    3.39636022E-008     713.07  <-- SCF
      6  -3.71063176E+002                    3.60400244E-009     737.24  <-- SCF
      7  -3.71063176E+002                    1.33672310E-011     754.55  <-- SCF
      8  -3.71063176E+002                    1.10369784E-012     771.81  <-- SCF
      9  -3.71063176E+002                    3.46416110E-013     788.82  <-- SCF
------------------------------------------------------------------------ <-- SCF
 
Final energy =  -371.0631756173     eV
(energy not corrected for finite basis set)
 

 ******************************** Symmetrised Forces ********************************
 *                                                                                  *
 *                           Cartesian components (eV/A)                            *
 * -------------------------------------------------------------------------------- *
 *                         x                    y                    z              *
 *                                                                                  *
 * H               1     -0.06659             -0.10462              0.08781         *
 * H               2      0.06659              0.10462             -0.08781         *
 * H               3     -0.06659              0.10462              0.08781         *
 * H               4      0.06659             -0.10462             -0.08781         *
 * H               5      0.06584              0.10398             -0.08653         *
 * H               6     -0.06584             -0.10398              0.08653         *
 * H               7      0.06584             -0.10398             -0.08653         *
 * H               8     -0.06584              0.10398              0.08653         *
 * H               9      0.00283             -0.08827             -0.12141         *
 * H              10     -0.00283              0.08827              0.12141         *
 * H              11      0.00283              0.08827             -0.12141         *
 * H              12     -0.00283             -0.08827              0.12141         *
 * H              13     -0.00358              0.08808              0.12209         *
 * H              14      0.00358             -0.08808             -0.12209         *
 * H              15     -0.00358             -0.08808              0.12209         *
 * H              16      0.00358              0.08808             -0.12209         *
 * H              17     -0.11575              0.08686             -0.04073         *
 * H              18      0.11575             -0.08686              0.04073         *
 * H              19     -0.11575             -0.08686             -0.04073         *
 * H              20      0.11575              0.08686              0.04073         *
 * H              21      0.11595             -0.08767              0.04100         *
 * H              22     -0.11595              0.08767             -0.04100         *
 * H              23      0.11595              0.08767              0.04100         *
 * H              24     -0.11595             -0.08767             -0.04100         *
 *                                                                                  *
 ************************************************************************************

 *********** Symmetrised Stress Tensor ***********
 *                                               *
 *          Cartesian components (GPa)           *
 * --------------------------------------------- *
 *             x             y             z     *
 *                                               *
 *  x    -46.667232      0.000000     -0.059817  *
 *  y      0.000000    -46.249888      0.000000  *
 *  z     -0.059817      0.000000    -46.326274  *
 *                                               *
 *  Pressure:   46.4145                          *
 *                                               *
 *************************************************
  
 +------------+-------------+-------------+-----------------+ <-- min LBFGS
 |    Step    |   lambda    |   F.delta'  |    enthalpy     | <-- min LBFGS
 +------------+-------------+-------------+-----------------+ <-- min LBFGS
 |  previous  |    0.000000 |    0.285647 |     -352.640669 | <-- min LBFGS
 | trial step |    1.000000 |    0.186054 |     -352.714360 | <-- min LBFGS
 +------------+-------------+-------------+-----------------+ <-- min LBFGS
  

--------------------------------------------------------------------------------
 LBFGS: improving iteration         1 with line minimization (lambda=  2.868152)
--------------------------------------------------------------------------------
 
+---------------- MEMORY AND SCRATCH DISK ESTIMATES PER PROCESS --------------+
|                                                     Memory          Disk    |
| Model and support data                              105.5 MB         0.0 MB |
| Electronic energy minimisation requirements          97.3 MB         0.0 MB |
| Geometry minimisation requirements                  128.2 MB         0.0 MB |
|                                               ----------------------------- |
| Approx. total storage required per process          331.0 MB         0.0 MB |
|                                                                             |
| Requirements will fluctuate during execution and may exceed these estimates |
+-----------------------------------------------------------------------------+
 

                           -------------------------------
                                      Unit Cell
                           -------------------------------
        Real Lattice(A)              Reciprocal Lattice(1/A)
    10.0407170     0.0000000     0.0014117        0.625607809   0.000000000   1.157712023
     0.0000000     2.0984152     0.0000000        0.000000000   2.994252711   0.000000000
    -6.6953868     0.0000000     3.6180727       -0.000244098   0.000000000   1.736159420

                       Lattice parameters(A)       Cell Angles
                    a =     10.040717          alpha =   90.000000
                    b =      2.098415          beta  =  151.605914
                    c =      7.610431          gamma =   90.000000

                Current cell volume =            76.251152 A**3

                           -------------------------------
                                     Cell Contents
                           -------------------------------

            xxxxxxxxxxxxxxxxxxxxxxxxxxxxxxxxxxxxxxxxxxxxxxxxxxxxxxxxxxxxxxxxx
            x  Element         Atom        Fractional coordinates of atoms  x
            x                 Number           u          v          w      x
            x---------------------------------------------------------------x
            x  H                 1         0.835574   0.652874   0.103678   x
            x  H                 2         0.164426   0.347126   0.896322   x
            x  H                 3         0.835574   0.847126   0.603678   x
            x  H                 4         0.164426   0.152874   0.396322   x
            x  H                 5         0.882546   0.406307   0.223230   x
            x  H                 6         0.117454   0.593693   0.776770   x
            x  H                 7         0.882546   0.093693   0.723230   x
            x  H                 8         0.117454   0.906307   0.276770   x
            x  H                 9         0.859883   0.118795   0.416269   x
            x  H                10         0.140117   0.881205   0.583731   x
            x  H                11         0.859883   0.381205   0.916269   x
            x  H                12         0.140117   0.618795   0.083731   x
            x  H                13         0.749293   0.908966   0.247917   x
            x  H                14         0.250707   0.091034   0.752083   x
            x  H                15         0.749293   0.591034   0.747917   x
            x  H                16         0.250707   0.408966   0.252083   x
            x  H                17         0.573808   0.392445   0.193389   x
            x  H                18         0.426192   0.607555   0.806611   x
            x  H                19         0.573808   0.107555   0.693389   x
            x  H                20         0.426192   0.892445   0.306611   x
            x  H                21         0.478883   0.598862   0.137443   x
            x  H                22         0.521117   0.401138   0.862557   x
            x  H                23         0.478883   0.901138   0.637443   x
            x  H                24         0.521117   0.098862   0.362557   x
            xxxxxxxxxxxxxxxxxxxxxxxxxxxxxxxxxxxxxxxxxxxxxxxxxxxxxxxxxxxxxxxxx


------------------------------------------------------------------------ <-- SCF
SCF loop      Energy                           Energy gain       Timer   <-- SCF
                                               per atom          (sec)   <-- SCF
------------------------------------------------------------------------ <-- SCF
Initial  -3.71766807E+002                                        804.39  <-- SCF
      1  -3.71809103E+002                    1.76236070E-003     825.30  <-- SCF
      2  -3.71809208E+002                    4.33909926E-006     850.70  <-- SCF
      3  -3.71807121E+002                   -8.69585749E-005     875.74  <-- SCF
      4  -3.71807070E+002                   -2.12170196E-006     901.10  <-- SCF
      5  -3.71807073E+002                    1.26013174E-007     926.52  <-- SCF
      6  -3.71807073E+002                    1.36803529E-008     951.55  <-- SCF
      7  -3.71807073E+002                    5.41959948E-011     970.00  <-- SCF
      8  -3.71807073E+002                    5.39764637E-012     987.79  <-- SCF
      9  -3.71807073E+002                    1.22856876E-013    1005.61  <-- SCF
------------------------------------------------------------------------ <-- SCF
 
Final energy =  -371.8070729449     eV
(energy not corrected for finite basis set)
 

 ******************************** Symmetrised Forces ********************************
 *                                                                                  *
 *                           Cartesian components (eV/A)                            *
 * -------------------------------------------------------------------------------- *
 *                         x                    y                    z              *
 *                                                                                  *
 * H               1     -0.18592             -0.29207              0.24514         *
 * H               2      0.18592              0.29207             -0.24514         *
 * H               3     -0.18592              0.29207              0.24514         *
 * H               4      0.18592             -0.29207             -0.24514         *
 * H               5      0.18385              0.29032             -0.24157         *
 * H               6     -0.18385             -0.29032              0.24157         *
 * H               7      0.18385             -0.29032             -0.24157         *
 * H               8     -0.18385              0.29032              0.24157         *
 * H               9      0.00793             -0.24638             -0.33897         *
 * H              10     -0.00793              0.24638              0.33897         *
 * H              11      0.00793              0.24638             -0.33897         *
 * H              12     -0.00793             -0.24638              0.33897         *
 * H              13     -0.00999              0.24591              0.34085         *
 * H              14      0.00999             -0.24591             -0.34085         *
 * H              15     -0.00999             -0.24591              0.34085         *
 * H              16      0.00999              0.24591             -0.34085         *
 * H              17     -0.32319              0.24245             -0.11371         *
 * H              18      0.32319             -0.24245              0.11371         *
 * H              19     -0.32319             -0.24245             -0.11371         *
 * H              20      0.32319              0.24245              0.11371         *
 * H              21      0.32373             -0.24475              0.11448         *
 * H              22     -0.32373              0.24475             -0.11448         *
 * H              23      0.32373              0.24475              0.11448         *
 * H              24     -0.32373             -0.24475             -0.11448         *
 *                                                                                  *
 ************************************************************************************

 *********** Symmetrised Stress Tensor ***********
 *                                               *
 *          Cartesian components (GPa)           *
 * --------------------------------------------- *
 *             x             y             z     *
 *                                               *
 *  x    -40.942862      0.000000     -0.163340  *
 *  y      0.000000    -39.812482      0.000000  *
 *  z     -0.163340      0.000000    -40.020770  *
 *                                               *
 *  Pressure:   40.2587                          *
 *                                               *
 *************************************************
  
 +------------+-------------+-------------+-----------------+ <-- min LBFGS
 |    Step    |   lambda    |   F.delta'  |    enthalpy     | <-- min LBFGS
 +------------+-------------+-------------+-----------------+ <-- min LBFGS
 |  previous  |    0.000000 |    0.285647 |     -352.640669 | <-- min LBFGS
 | trial step |    1.000000 |    0.186054 |     -352.714360 | <-- min LBFGS
 |  line step |    2.868152 |    0.007691 |     -352.770182 | <-- min LBFGS
 +------------+-------------+-------------+-----------------+ <-- min LBFGS
  
 LBFGS: finished iteration     1 with enthalpy= -3.52770182E+002 eV
  
 +-----------+-----------------+-----------------+------------+-----+ <-- LBFGS
 | Parameter |      value      |    tolerance    |    units   | OK? | <-- LBFGS
 +-----------+-----------------+-----------------+------------+-----+ <-- LBFGS
 |  dE/ion   |   5.396402E-003 |   1.000000E-009 |         eV | No  | <-- LBFGS
 |  |F|max   |   4.242173E-001 |   1.000000E-005 |       eV/A | No  | <-- LBFGS
 |  |dR|max  |   2.649161E-007 |   1.000000E-005 |          A | Yes | <-- LBFGS
 |   Smax    |   9.428624E-001 |   1.000000E-005 |        GPa | No  | <-- LBFGS
 +-----------+-----------------+-----------------+------------+-----+ <-- LBFGS
  

================================================================================
 Starting LBFGS iteration          2 ...
================================================================================
  
 +------------+-------------+-------------+-----------------+ <-- min LBFGS
 |    Step    |   lambda    |   F.delta'  |    enthalpy     | <-- min LBFGS
 +------------+-------------+-------------+-----------------+ <-- min LBFGS
 |  previous  |    0.000000 |    0.172131 |     -352.770182 | <-- min LBFGS
 +------------+-------------+-------------+-----------------+ <-- min LBFGS
  

--------------------------------------------------------------------------------
 LBFGS: starting iteration         2 with trial guess (lambda=  0.775565)
--------------------------------------------------------------------------------
 
+---------------- MEMORY AND SCRATCH DISK ESTIMATES PER PROCESS --------------+
|                                                     Memory          Disk    |
| Model and support data                              111.0 MB         0.0 MB |
| Electronic energy minimisation requirements         104.3 MB         0.0 MB |
| Geometry minimisation requirements                  137.5 MB         0.0 MB |
|                                               ----------------------------- |
| Approx. total storage required per process          352.8 MB         0.0 MB |
|                                                                             |
| Requirements will fluctuate during execution and may exceed these estimates |
+-----------------------------------------------------------------------------+
 

                           -------------------------------
                                      Unit Cell
                           -------------------------------
        Real Lattice(A)              Reciprocal Lattice(1/A)
    10.3053040     0.0000000     0.0023365        0.609448166   0.000000000   1.128484413
     0.0000000     2.1524269     0.0000000        0.000000000   2.919116680   0.000000000
    -6.8714994     0.0000000     3.7110151       -0.000383713   0.000000000   1.692407173

                       Lattice parameters(A)       Cell Angles
                    a =     10.305304          alpha =   90.000000
                    b =      2.152427          beta  =  151.615346
                    c =      7.809554          gamma =   90.000000

                Current cell volume =            82.350119 A**3

                           -------------------------------
                                     Cell Contents
                           -------------------------------

            xxxxxxxxxxxxxxxxxxxxxxxxxxxxxxxxxxxxxxxxxxxxxxxxxxxxxxxxxxxxxxxxx
            x  Element         Atom        Fractional coordinates of atoms  x
            x                 Number           u          v          w      x
            x---------------------------------------------------------------x
            x  H                 1         0.837714   0.641700   0.109117   x
            x  H                 2         0.162286   0.358300   0.890883   x
            x  H                 3         0.837714   0.858300   0.609117   x
            x  H                 4         0.162286   0.141700   0.390883   x
            x  H                 5         0.880442   0.417414   0.217870   x
            x  H                 6         0.119558   0.582586   0.782130   x
            x  H                 7         0.880442   0.082586   0.717870   x
            x  H                 8         0.119558   0.917414   0.282130   x
            x  H                 9         0.854932   0.109369   0.408749   x
            x  H                10         0.145068   0.890631   0.591251   x
            x  H                11         0.854932   0.390631   0.908749   x
            x  H                12         0.145068   0.609369   0.091251   x
            x  H                13         0.754255   0.918375   0.255478   x
            x  H                14         0.245745   0.081625   0.744522   x
            x  H                15         0.754255   0.581625   0.755478   x
            x  H                16         0.245745   0.418375   0.244522   x
            x  H                17         0.569542   0.401721   0.190867   x
            x  H                18         0.430458   0.598279   0.809133   x
            x  H                19         0.569542   0.098279   0.690867   x
            x  H                20         0.430458   0.901721   0.309133   x
            x  H                21         0.483164   0.589498   0.139982   x
            x  H                22         0.516836   0.410502   0.860018   x
            x  H                23         0.483164   0.910502   0.639982   x
            x  H                24         0.516836   0.089498   0.360018   x
            xxxxxxxxxxxxxxxxxxxxxxxxxxxxxxxxxxxxxxxxxxxxxxxxxxxxxxxxxxxxxxxxx


------------------------------------------------------------------------ <-- SCF
SCF loop      Energy                           Energy gain       Timer   <-- SCF
                                               per atom          (sec)   <-- SCF
------------------------------------------------------------------------ <-- SCF
Initial  -3.70089362E+002                                       1021.66  <-- SCF
      1  -3.73263466E+002                    1.32254360E-001    1042.29  <-- SCF
      2  -3.73273323E+002                    4.10689137E-004    1067.92  <-- SCF
      3  -3.72990225E+002                   -1.17957266E-002    1093.90  <-- SCF
      4  -3.72980669E+002                   -3.98185609E-004    1119.38  <-- SCF
      5  -3.72980888E+002                    9.14361903E-006    1145.10  <-- SCF
      6  -3.72980914E+002                    1.08179998E-006    1170.76  <-- SCF
      7  -3.72980914E+002                    6.71817250E-009    1196.64  <-- SCF
      8  -3.72980914E+002                    6.90872553E-010    1222.56  <-- SCF
      9  -3.72980914E+002                    1.47065723E-011    1240.66  <-- SCF
     10  -3.72980914E+002                    2.26781709E-012    1258.61  <-- SCF
     11  -3.72980914E+002                   -8.49927899E-013    1276.78  <-- SCF
------------------------------------------------------------------------ <-- SCF
 
Final energy =  -372.9809144858     eV
(energy not corrected for finite basis set)
 

 ******************************** Symmetrised Forces ********************************
 *                                                                                  *
 *                           Cartesian components (eV/A)                            *
 * -------------------------------------------------------------------------------- *
 *                         x                    y                    z              *
 *                                                                                  *
 * H               1      0.66194              1.02173             -0.86011         *
 * H               2     -0.66194             -1.02173              0.86011         *
 * H               3      0.66194             -1.02173             -0.86011         *
 * H               4     -0.66194              1.02173              0.86011         *
 * H               5     -0.65854             -1.04788              0.87165         *
 * H               6      0.65854              1.04788             -0.87165         *
 * H               7     -0.65854              1.04788              0.87165         *
 * H               8      0.65854             -1.04788             -0.87165         *
 * H               9     -0.02848              0.84021              1.18107         *
 * H              10      0.02848             -0.84021             -1.18107         *
 * H              11     -0.02848             -0.84021              1.18107         *
 * H              12      0.02848              0.84021             -1.18107         *
 * H              13      0.03660             -0.85805             -1.17046         *
 * H              14     -0.03660              0.85805              1.17046         *
 * H              15      0.03660              0.85805             -1.17046         *
 * H              16     -0.03660             -0.85805              1.17046         *
 * H              17      1.14398             -0.85187              0.40045         *
 * H              18     -1.14398              0.85187             -0.40045         *
 * H              19      1.14398              0.85187              0.40045         *
 * H              20     -1.14398             -0.85187             -0.40045         *
 * H              21     -1.13631              0.84949             -0.39701         *
 * H              22      1.13631             -0.84949              0.39701         *
 * H              23     -1.13631             -0.84949             -0.39701         *
 * H              24      1.13631              0.84949              0.39701         *
 *                                                                                  *
 ************************************************************************************

 *********** Symmetrised Stress Tensor ***********
 *                                               *
 *          Cartesian components (GPa)           *
 * --------------------------------------------- *
 *             x             y             z     *
 *                                               *
 *  x    -40.691003      0.000000      0.522449  *
 *  y      0.000000    -42.868174      0.000000  *
 *  z      0.522449      0.000000    -42.268849  *
 *                                               *
 *  Pressure:   41.9427                          *
 *                                               *
 *************************************************
  
 +------------+-------------+-------------+-----------------+ <-- min LBFGS
 |    Step    |   lambda    |   F.delta'  |    enthalpy     | <-- min LBFGS
 +------------+-------------+-------------+-----------------+ <-- min LBFGS
 |  previous  |    0.000000 |    0.172131 |     -352.770182 | <-- min LBFGS
 | trial step |    0.775565 |   -0.565349 |     -352.421355 | <-- min LBFGS
 +------------+-------------+-------------+-----------------+ <-- min LBFGS
  

--------------------------------------------------------------------------------
 LBFGS: improving iteration         2 with line minimization (lambda=  0.181020)
--------------------------------------------------------------------------------

                           -------------------------------
                                      Unit Cell
                           -------------------------------
        Real Lattice(A)              Reciprocal Lattice(1/A)
    10.1024728     0.0000000     0.0016275        0.621759891   0.000000000   1.150755527
     0.0000000     2.1110218     0.0000000        0.000000000   2.976371647   0.000000000
    -6.7364923     0.0000000     3.6397659       -0.000278023   0.000000000   1.725746274

                       Lattice parameters(A)       Cell Angles
                    a =     10.102473          alpha =   90.000000
                    b =      2.111022          beta  =  151.608159
                    c =      7.656907          gamma =   90.000000

                Current cell volume =            77.646758 A**3

                           -------------------------------
                                     Cell Contents
                           -------------------------------

            xxxxxxxxxxxxxxxxxxxxxxxxxxxxxxxxxxxxxxxxxxxxxxxxxxxxxxxxxxxxxxxxx
            x  Element         Atom        Fractional coordinates of atoms  x
            x                 Number           u          v          w      x
            x---------------------------------------------------------------x
            x  H                 1         0.836074   0.650266   0.104948   x
            x  H                 2         0.163926   0.349734   0.895052   x
            x  H                 3         0.836074   0.849734   0.604948   x
            x  H                 4         0.163926   0.150266   0.395052   x
            x  H                 5         0.882055   0.408899   0.221979   x
            x  H                 6         0.117945   0.591101   0.778021   x
            x  H                 7         0.882055   0.091101   0.721979   x
            x  H                 8         0.117945   0.908899   0.278021   x
            x  H                 9         0.858727   0.116595   0.414513   x
            x  H                10         0.141273   0.883405   0.585487   x
            x  H                11         0.858727   0.383405   0.914513   x
            x  H                12         0.141273   0.616595   0.085487   x
            x  H                13         0.750451   0.911162   0.249682   x
            x  H                14         0.249549   0.088838   0.750318   x
            x  H                15         0.750451   0.588838   0.749682   x
            x  H                16         0.249549   0.411162   0.250318   x
            x  H                17         0.572812   0.394610   0.192800   x
            x  H                18         0.427188   0.605390   0.807200   x
            x  H                19         0.572812   0.105390   0.692800   x
            x  H                20         0.427188   0.894610   0.307200   x
            x  H                21         0.479882   0.596676   0.138036   x
            x  H                22         0.520118   0.403324   0.861964   x
            x  H                23         0.479882   0.903324   0.638036   x
            x  H                24         0.520118   0.096676   0.361964   x
            xxxxxxxxxxxxxxxxxxxxxxxxxxxxxxxxxxxxxxxxxxxxxxxxxxxxxxxxxxxxxxxxx


------------------------------------------------------------------------ <-- SCF
SCF loop      Energy                           Energy gain       Timer   <-- SCF
                                               per atom          (sec)   <-- SCF
------------------------------------------------------------------------ <-- SCF
Initial  -3.70365921E+002                                       1293.10  <-- SCF
      1  -3.72380988E+002                    8.39611225E-002    1313.77  <-- SCF
      2  -3.72386763E+002                    2.40642610E-004    1338.39  <-- SCF
      3  -3.72208779E+002                   -7.41600562E-003    1362.72  <-- SCF
      4  -3.72203090E+002                   -2.37044189E-004    1387.07  <-- SCF
      5  -3.72203176E+002                    3.57134728E-006    1411.19  <-- SCF
      6  -3.72203184E+002                    3.64704085E-007    1435.68  <-- SCF
      7  -3.72203184E+002                    1.76722165E-009    1460.02  <-- SCF
      8  -3.72203184E+002                    2.85414650E-010    1482.62  <-- SCF
      9  -3.72203184E+002                    1.01749662E-011    1499.87  <-- SCF
     10  -3.72203184E+002                    6.08242240E-013    1517.37  <-- SCF
     11  -3.72203184E+002                    1.28899018E-013    1534.42  <-- SCF
------------------------------------------------------------------------ <-- SCF
 
Final energy =  -372.2031844730     eV
(energy not corrected for finite basis set)
 

 ******************************** Symmetrised Forces ********************************
 *                                                                                  *
 *                           Cartesian components (eV/A)                            *
 * -------------------------------------------------------------------------------- *
 *                         x                    y                    z              *
 *                                                                                  *
 * H               1     -0.02014             -0.03708              0.02988         *
 * H               2      0.02014              0.03708             -0.02988         *
 * H               3     -0.02014              0.03708              0.02988         *
 * H               4      0.02014             -0.03708             -0.02988         *
 * H               5      0.01954              0.02816             -0.02401         *
 * H               6     -0.01954             -0.02816              0.02401         *
 * H               7      0.01954             -0.02816             -0.02401         *
 * H               8     -0.01954              0.02816              0.02401         *
 * H               9      0.00138             -0.03564             -0.04249         *
 * H              10     -0.00138              0.03564              0.04249         *
 * H              11      0.00138              0.03564             -0.04249         *
 * H              12     -0.00138             -0.03564              0.04249         *
 * H              13     -0.00040              0.02992              0.04699         *
 * H              14      0.00040             -0.02992             -0.04699         *
 * H              15     -0.00040             -0.02992              0.04699         *
 * H              16      0.00040              0.02992             -0.04699         *
 * H              17     -0.03656              0.02892             -0.01309         *
 * H              18      0.03656             -0.02892              0.01309         *
 * H              19     -0.03656             -0.02892             -0.01309         *
 * H              20      0.03656              0.02892              0.01309         *
 * H              21      0.03904             -0.03103              0.01473         *
 * H              22     -0.03904              0.03103             -0.01473         *
 * H              23      0.03904              0.03103              0.01473         *
 * H              24     -0.03904             -0.03103             -0.01473         *
 *                                                                                  *
 ************************************************************************************

 *********** Symmetrised Stress Tensor ***********
 *                                               *
 *          Cartesian components (GPa)           *
 * --------------------------------------------- *
 *             x             y             z     *
 *                                               *
 *  x    -40.645554      0.000000     -0.016082  *
 *  y      0.000000    -40.191265      0.000000  *
 *  z     -0.016082      0.000000    -40.235265  *
 *                                               *
 *  Pressure:   40.3574                          *
 *                                               *
 *************************************************
  
 +------------+-------------+-------------+-----------------+ <-- min LBFGS
 |    Step    |   lambda    |   F.delta'  |    enthalpy     | <-- min LBFGS
 +------------+-------------+-------------+-----------------+ <-- min LBFGS
 |  previous  |    0.000000 |    0.172131 |     -352.770182 | <-- min LBFGS
 | trial step |    0.775565 |   -0.565349 |     -352.421355 | <-- min LBFGS
 |  line step |    0.181020 |    0.026935 |     -352.817861 | <-- min LBFGS
 +------------+-------------+-------------+-----------------+ <-- min LBFGS
  
 LBFGS: finished iteration     2 with enthalpy= -3.52817861E+002 eV
  
 +-----------+-----------------+-----------------+------------+-----+ <-- LBFGS
 | Parameter |      value      |    tolerance    |    units   | OK? | <-- LBFGS
 +-----------+-----------------+-----------------+------------+-----+ <-- LBFGS
 |  dE/ion   |   1.986616E-003 |   1.000000E-009 |         eV | No  | <-- LBFGS
 |  |F|max   |   5.570867E-002 |   1.000000E-005 |       eV/A | No  | <-- LBFGS
 |  |dR|max  |   7.997047E-003 |   1.000000E-005 |          A | No  | <-- LBFGS
 |   Smax    |   6.455542E-001 |   1.000000E-005 |        GPa | No  | <-- LBFGS
 +-----------+-----------------+-----------------+------------+-----+ <-- LBFGS
  

================================================================================
 Starting LBFGS iteration          3 ...
================================================================================
  
 +------------+-------------+-------------+-----------------+ <-- min LBFGS
 |    Step    |   lambda    |   F.delta'  |    enthalpy     | <-- min LBFGS
 +------------+-------------+-------------+-----------------+ <-- min LBFGS
 |  previous  |    0.000000 |    0.023701 |     -352.817861 | <-- min LBFGS
 +------------+-------------+-------------+-----------------+ <-- min LBFGS
  

--------------------------------------------------------------------------------
 LBFGS: starting iteration         3 with trial guess (lambda=  1.000000)
--------------------------------------------------------------------------------

                           -------------------------------
                                      Unit Cell
                           -------------------------------
        Real Lattice(A)              Reciprocal Lattice(1/A)
    10.1234716     0.0000000     0.0016402        0.620469097   0.000000000   1.148670904
     0.0000000     2.1148090     0.0000000        0.000000000   2.971041508   0.000000000
    -6.7504911     0.0000000     3.6463630       -0.000279097   0.000000000   1.722620928

                       Lattice parameters(A)       Cell Angles
                    a =     10.123472          alpha =   90.000000
                    b =      2.114809          beta  =  151.614457
                    c =      7.672359          gamma =   90.000000

                Current cell volume =            78.089163 A**3

                           -------------------------------
                                     Cell Contents
                           -------------------------------

            xxxxxxxxxxxxxxxxxxxxxxxxxxxxxxxxxxxxxxxxxxxxxxxxxxxxxxxxxxxxxxxxx
            x  Element         Atom        Fractional coordinates of atoms  x
            x                 Number           u          v          w      x
            x---------------------------------------------------------------x
            x  H                 1         0.836201   0.649672   0.105196   x
            x  H                 2         0.163799   0.350328   0.894804   x
            x  H                 3         0.836201   0.850328   0.605196   x
            x  H                 4         0.163799   0.149672   0.394804   x
            x  H                 5         0.882045   0.408991   0.221915   x
            x  H                 6         0.117955   0.591009   0.778085   x
            x  H                 7         0.882045   0.091009   0.721915   x
            x  H                 8         0.117955   0.908991   0.278085   x
            x  H                 9         0.858481   0.115844   0.414132   x
            x  H                10         0.141519   0.884156   0.585868   x
            x  H                11         0.858481   0.384156   0.914132   x
            x  H                12         0.141519   0.615844   0.085868   x
            x  H                13         0.750807   0.911588   0.250207   x
            x  H                14         0.249193   0.088412   0.749793   x
            x  H                15         0.750807   0.588412   0.750207   x
            x  H                16         0.249193   0.411588   0.249793   x
            x  H                17         0.572669   0.394997   0.192711   x
            x  H                18         0.427331   0.605003   0.807289   x
            x  H                19         0.572669   0.105003   0.692711   x
            x  H                20         0.427331   0.894997   0.307289   x
            x  H                21         0.480090   0.596181   0.138177   x
            x  H                22         0.519910   0.403819   0.861823   x
            x  H                23         0.480090   0.903819   0.638177   x
            x  H                24         0.519910   0.096181   0.361823   x
            xxxxxxxxxxxxxxxxxxxxxxxxxxxxxxxxxxxxxxxxxxxxxxxxxxxxxxxxxxxxxxxxx


------------------------------------------------------------------------ <-- SCF
SCF loop      Energy                           Energy gain       Timer   <-- SCF
                                               per atom          (sec)   <-- SCF
------------------------------------------------------------------------ <-- SCF
Initial  -3.72306009E+002                                       1550.15  <-- SCF
      1  -3.72315641E+002                    4.01328037E-004    1570.39  <-- SCF
      2  -3.72315672E+002                    1.27049079E-006    1594.57  <-- SCF
      3  -3.72314881E+002                   -3.29482768E-005    1618.67  <-- SCF
      4  -3.72314854E+002                   -1.10936530E-006    1642.99  <-- SCF
      5  -3.72314855E+002                    1.89901082E-008    1667.27  <-- SCF
      6  -3.72314855E+002                    2.19063679E-009    1691.56  <-- SCF
      7  -3.72314855E+002                    1.62130796E-012    1708.78  <-- SCF
      8  -3.72314855E+002                    4.92031719E-012    1725.84  <-- SCF
------------------------------------------------------------------------ <-- SCF
 
Final energy =  -372.3148547677     eV
(energy not corrected for finite basis set)
 

 ******************************** Symmetrised Forces ********************************
 *                                                                                  *
 *                           Cartesian components (eV/A)                            *
 * -------------------------------------------------------------------------------- *
 *                         x                    y                    z              *
 *                                                                                  *
 * H               1     -0.01158             -0.02260              0.01798         *
 * H               2      0.01158              0.02260             -0.01798         *
 * H               3     -0.01158              0.02260              0.01798         *
 * H               4      0.01158             -0.02260             -0.01798         *
 * H               5      0.01043              0.01364             -0.01297         *
 * H               6     -0.01043             -0.01364              0.01297         *
 * H               7      0.01043             -0.01364             -0.01297         *
 * H               8     -0.01043              0.01364              0.01297         *
 * H               9     -0.00144              0.02237              0.03754         *
 * H              10      0.00144             -0.02237             -0.03754         *
 * H              11     -0.00144             -0.02237              0.03754         *
 * H              12      0.00144              0.02237             -0.03754         *
 * H              13      0.00208             -0.02824             -0.03390         *
 * H              14     -0.00208              0.02824              0.03390         *
 * H              15      0.00208              0.02824             -0.03390         *
 * H              16     -0.00208             -0.02824              0.03390         *
 * H              17      0.00083              0.00087             -0.00009         *
 * H              18     -0.00083             -0.00087              0.00009         *
 * H              19      0.00083             -0.00087             -0.00009         *
 * H              20     -0.00083              0.00087              0.00009         *
 * H              21      0.00089             -0.00268              0.00125         *
 * H              22     -0.00089              0.00268             -0.00125         *
 * H              23      0.00089              0.00268              0.00125         *
 * H              24     -0.00089             -0.00268             -0.00125         *
 *                                                                                  *
 ************************************************************************************

 *********** Symmetrised Stress Tensor ***********
 *                                               *
 *          Cartesian components (GPa)           *
 * --------------------------------------------- *
 *             x             y             z     *
 *                                               *
 *  x    -40.188133      0.000000     -0.034642  *
 *  y      0.000000    -39.900275      0.000000  *
 *  z     -0.034642      0.000000    -40.035777  *
 *                                               *
 *  Pressure:   40.0414                          *
 *                                               *
 *************************************************
  
 +------------+-------------+-------------+-----------------+ <-- min LBFGS
 |    Step    |   lambda    |   F.delta'  |    enthalpy     | <-- min LBFGS
 +------------+-------------+-------------+-----------------+ <-- min LBFGS
 |  previous  |    0.000000 |    0.023701 |     -352.817861 | <-- min LBFGS
 | trial step |    1.000000 |   -0.002652 |     -352.819077 | <-- min LBFGS
 +------------+-------------+-------------+-----------------+ <-- min LBFGS
  
 LBFGS: finished iteration     3 with enthalpy= -3.52819077E+002 eV
  
 +-----------+-----------------+-----------------+------------+-----+ <-- LBFGS
 | Parameter |      value      |    tolerance    |    units   | OK? | <-- LBFGS
 +-----------+-----------------+-----------------+------------+-----+ <-- LBFGS
 |  dE/ion   |   5.065958E-005 |   1.000000E-009 |         eV | No  | <-- LBFGS
 |  |F|max   |   4.417453E-002 |   1.000000E-005 |       eV/A | No  | <-- LBFGS
 |  |dR|max  |   2.118143E-003 |   1.000000E-005 |          A | No  | <-- LBFGS
 |   Smax    |   1.881334E-001 |   1.000000E-005 |        GPa | No  | <-- LBFGS
 +-----------+-----------------+-----------------+------------+-----+ <-- LBFGS
  

================================================================================
 Starting LBFGS iteration          4 ...
================================================================================
  
 +------------+-------------+-------------+-----------------+ <-- min LBFGS
 |    Step    |   lambda    |   F.delta'  |    enthalpy     | <-- min LBFGS
 +------------+-------------+-------------+-----------------+ <-- min LBFGS
 |  previous  |    0.000000 |    0.012210 |     -352.819077 | <-- min LBFGS
 +------------+-------------+-------------+-----------------+ <-- min LBFGS
  

--------------------------------------------------------------------------------
 LBFGS: starting iteration         4 with trial guess (lambda=  1.000000)
--------------------------------------------------------------------------------

                           -------------------------------
                                      Unit Cell
                           -------------------------------
        Real Lattice(A)              Reciprocal Lattice(1/A)
    10.1366692     0.0000000     0.0018741        0.619634989   0.000000000   1.147448337
     0.0000000     2.1168322     0.0000000        0.000000000   2.968201893   0.000000000
    -6.7592078     0.0000000     3.6500481       -0.000318147   0.000000000   1.720808787

                       Lattice parameters(A)       Cell Angles
                    a =     10.136669          alpha =   90.000000
                    b =      2.116832          beta  =  151.619863
                    c =      7.681780          gamma =   90.000000

                Current cell volume =            78.348188 A**3

                           -------------------------------
                                     Cell Contents
                           -------------------------------

            xxxxxxxxxxxxxxxxxxxxxxxxxxxxxxxxxxxxxxxxxxxxxxxxxxxxxxxxxxxxxxxxx
            x  Element         Atom        Fractional coordinates of atoms  x
            x                 Number           u          v          w      x
            x---------------------------------------------------------------x
            x  H                 1         0.836498   0.648213   0.105857   x
            x  H                 2         0.163502   0.351787   0.894143   x
            x  H                 3         0.836498   0.851787   0.605857   x
            x  H                 4         0.163502   0.148213   0.394143   x
            x  H                 5         0.881890   0.409772   0.221486   x
            x  H                 6         0.118110   0.590228   0.778514   x
            x  H                 7         0.881890   0.090228   0.721486   x
            x  H                 8         0.118110   0.909772   0.278514   x
            x  H                 9         0.858898   0.116274   0.414769   x
            x  H                10         0.141102   0.883726   0.585231   x
            x  H                11         0.858898   0.383726   0.914769   x
            x  H                12         0.141102   0.616274   0.085231   x
[...]
 *                                                                                  *
 ************************************************************************************

 *********** Symmetrised Stress Tensor ***********
 *                                               *
 *          Cartesian components (GPa)           *
 * --------------------------------------------- *
 *             x             y             z     *
 *                                               *
 *  x    -39.999995      0.000000     -0.000010  *
 *  y      0.000000    -40.000001      0.000000  *
 *  z     -0.000010      0.000000    -40.000002  *
 *                                               *
 *  Pressure:   40.0000                          *
 *                                               *
 *************************************************
  
 +------------+-------------+-------------+-----------------+ <-- min LBFGS
 |    Step    |   lambda    |   F.delta'  |    enthalpy     | <-- min LBFGS
 +------------+-------------+-------------+-----------------+ <-- min LBFGS
 |  previous  |    0.000000 |  4.807E-007 |     -352.819560 | <-- min LBFGS
 | trial step |    1.000000 |  3.068E-009 |     -352.819560 | <-- min LBFGS
 +------------+-------------+-------------+-----------------+ <-- min LBFGS
  
 LBFGS: finished iteration    31 with enthalpy= -3.52819560E+002 eV
  
 +-----------+-----------------+-----------------+------------+-----+ <-- LBFGS
 | Parameter |      value      |    tolerance    |    units   | OK? | <-- LBFGS
 +-----------+-----------------+-----------------+------------+-----+ <-- LBFGS
 |  dE/ion   |   6.646356E-014 |   1.000000E-009 |         eV | Yes | <-- LBFGS
 |  |F|max   |   1.067657E-006 |   1.000000E-005 |       eV/A | Yes | <-- LBFGS
 |  |dR|max  |   9.266920E-007 |   1.000000E-005 |          A | Yes | <-- LBFGS
 |   Smax    |   9.864251E-006 |   1.000000E-005 |        GPa | Yes | <-- LBFGS
 +-----------+-----------------+-----------------+------------+-----+ <-- LBFGS
  
 LBFGS: Geometry optimization completed successfully.

================================================================================
 LBFGS: Final Configuration:
================================================================================

                           -------------------------------
                                      Unit Cell
                           -------------------------------
        Real Lattice(A)              Reciprocal Lattice(1/A)
    10.1407288     0.0000000     0.0015047        0.619428399   0.000000000   1.149650353
     0.0000000     2.1135180     0.0000000        0.000000000   2.972856263   0.000000000
    -6.7620471     0.0000000     3.6433721       -0.000255820   0.000000000   1.724077397

                       Lattice parameters(A)       Cell Angles
                    a =     10.140729          alpha =   90.000000
                    b =      2.113518          beta  =  151.675835
                    c =      7.681109          gamma =   90.000000

                Current cell volume =            78.108489 A**3

                           -------------------------------
                                     Cell Contents
                           -------------------------------

            xxxxxxxxxxxxxxxxxxxxxxxxxxxxxxxxxxxxxxxxxxxxxxxxxxxxxxxxxxxxxxxxx
            x  Element         Atom        Fractional coordinates of atoms  x
            x                 Number           u          v          w      x
            x---------------------------------------------------------------x
            x  H                 1         0.837343   0.645987   0.106363   x
            x  H                 2         0.162657   0.354013   0.893637   x
            x  H                 3         0.837343   0.854013   0.606363   x
            x  H                 4         0.162657   0.145987   0.393637   x
            x  H                 5         0.881351   0.406826   0.221771   x
            x  H                 6         0.118649   0.593174   0.778229   x
            x  H                 7         0.881351   0.093174   0.721771   x
            x  H                 8         0.118649   0.906826   0.278229   x
            x  H                 9         0.858491   0.114542   0.414439   x
            x  H                10         0.141509   0.885458   0.585561   x
            x  H                11         0.858491   0.385458   0.914439   x
            x  H                12         0.141509   0.614542   0.085561   x
            x  H                13         0.750756   0.910159   0.249993   x
            x  H                14         0.249244   0.089841   0.750007   x
            x  H                15         0.750756   0.589841   0.749993   x
            x  H                16         0.249244   0.410159   0.250007   x
            x  H                17         0.572801   0.395793   0.192591   x
            x  H                18         0.427199   0.604207   0.807409   x
            x  H                19         0.572801   0.104207   0.692591   x
            x  H                20         0.427199   0.895793   0.307409   x
            x  H                21         0.480583   0.595217   0.139076   x
            x  H                22         0.519417   0.404783   0.860924   x
            x  H                23         0.480583   0.904783   0.639076   x
            x  H                24         0.519417   0.095217   0.360924   x
            xxxxxxxxxxxxxxxxxxxxxxxxxxxxxxxxxxxxxxxxxxxxxxxxxxxxxxxxxxxxxxxxx


 LBFGS: Final Enthalpy     = -3.52819560E+002 eV
 LBFGS: Final <frequency>  =     748.99870 cm-1
 LBFGS: Final bulk modulus =     113.23665 GPa

 ******************************** Symmetrised Forces ********************************
 *                                                                                  *
 *                           Cartesian components (eV/A)                            *
 * -------------------------------------------------------------------------------- *
 *                         x                    y                    z              *
 *                                                                                  *
 * H               1     -0.00000              0.00000              0.00000         *
 * H               2      0.00000             -0.00000             -0.00000         *
 * H               3     -0.00000             -0.00000              0.00000         *
 * H               4      0.00000              0.00000             -0.00000         *
 * H               5     -0.00000             -0.00000              0.00000         *
 * H               6      0.00000              0.00000             -0.00000         *
 * H               7     -0.00000              0.00000              0.00000         *
 * H               8      0.00000             -0.00000             -0.00000         *
 * H               9      0.00000              0.00000             -0.00000         *
 * H              10     -0.00000             -0.00000              0.00000         *
 * H              11      0.00000             -0.00000             -0.00000         *
 * H              12     -0.00000              0.00000              0.00000         *
 * H              13      0.00000             -0.00000              0.00000         *
 * H              14     -0.00000              0.00000             -0.00000         *
 * H              15      0.00000              0.00000              0.00000         *
 * H              16     -0.00000             -0.00000             -0.00000         *
 * H              17      0.00000             -0.00000             -0.00000         *
 * H              18     -0.00000              0.00000              0.00000         *
 * H              19      0.00000              0.00000             -0.00000         *
 * H              20     -0.00000             -0.00000              0.00000         *
 * H              21      0.00000             -0.00000             -0.00000         *
 * H              22     -0.00000              0.00000              0.00000         *
 * H              23      0.00000              0.00000             -0.00000         *
 * H              24     -0.00000             -0.00000              0.00000         *
 *                                                                                  *
 ************************************************************************************

 *********** Symmetrised Stress Tensor ***********
 *                                               *
 *          Cartesian components (GPa)           *
 * --------------------------------------------- *
 *             x             y             z     *
 *                                               *
 *  x    -39.999995      0.000000     -0.000010  *
 *  y      0.000000    -40.000001      0.000000  *
 *  z     -0.000010      0.000000    -40.000002  *
 *                                               *
 *  Pressure:   40.0000                          *
 *                                               *
 *************************************************

 Pseudo atomic calculation performed for H 1s1

 Converged in 24 iterations to a total energy of -12.4843 eV

Charge spilling parameter for spin component 1 = 0.69%

            Orbital Populations       
     Ion    Atom   Orbital             Charge
  -------------------------------------------
      H     1      S                    0.987
      H     2      S                    0.987
      H     3      S                    0.987
      H     4      S                    0.987
      H     5      S                    1.013
      H     6      S                    1.013
      H     7      S                    1.013
      H     8      S                    1.013
      H     9      S                    1.009
      H    10      S                    1.009
      H    11      S                    1.009
      H    12      S                    1.009
      H    13      S                    0.991
      H    14      S                    0.991
      H    15      S                    0.991
      H    16      S                    0.991
      H    17      S                    1.001
      H    18      S                    1.001
      H    19      S                    1.001
      H    20      S                    1.001
      H    21      S                    0.998
      H    22      S                    0.998
      H    23      S                    0.998
      H    24      S                    0.998
  -------------------------------------------
                           Total:      24.000
  -------------------------------------------

     Atomic Populations (Mulliken)
     -----------------------------
Species          Ion     s      p      d      f     Total  Charge (e)
=====================================================================
  H               1     0.99   0.00   0.00   0.00   0.99     0.01
  H               2     0.99   0.00   0.00   0.00   0.99     0.01
  H               3     0.99   0.00   0.00   0.00   0.99     0.01
  H               4     0.99   0.00   0.00   0.00   0.99     0.01
  H               5     1.01   0.00   0.00   0.00   1.01    -0.01
  H               6     1.01   0.00   0.00   0.00   1.01    -0.01
  H               7     1.01   0.00   0.00   0.00   1.01    -0.01
  H               8     1.01   0.00   0.00   0.00   1.01    -0.01
  H               9     1.01   0.00   0.00   0.00   1.01    -0.01
  H              10     1.01   0.00   0.00   0.00   1.01    -0.01
  H              11     1.01   0.00   0.00   0.00   1.01    -0.01
  H              12     1.01   0.00   0.00   0.00   1.01    -0.01
  H              13     0.99   0.00   0.00   0.00   0.99     0.01
  H              14     0.99   0.00   0.00   0.00   0.99     0.01
  H              15     0.99   0.00   0.00   0.00   0.99     0.01
  H              16     0.99   0.00   0.00   0.00   0.99     0.01
  H              17     1.00   0.00   0.00   0.00   1.00    -0.00
  H              18     1.00   0.00   0.00   0.00   1.00    -0.00
  H              19     1.00   0.00   0.00   0.00   1.00    -0.00
  H              20     1.00   0.00   0.00   0.00   1.00    -0.00
  H              21     1.00   0.00   0.00   0.00   1.00     0.00
  H              22     1.00   0.00   0.00   0.00   1.00     0.00
  H              23     1.00   0.00   0.00   0.00   1.00     0.00
  H              24     1.00   0.00   0.00   0.00   1.00     0.00
=====================================================================

                 Bond                   Population      Length (A)
======================================================================
              H 2  -- H 6                    1.26        0.73756
              H 3  -- H 7                    1.26        0.73756
              H 4  -- H 8                    1.26        0.73756
              H 1  -- H 5                    1.26        0.73756
              H 19 -- H 23                   1.27        0.73782
              H 17 -- H 21                   1.27        0.73782
              H 18 -- H 22                   1.27        0.73782
              H 20 -- H 24                   1.27        0.73782
              H 9  -- H 13                   1.26        0.73901
              H 11 -- H 15                   1.26        0.73901
              H 10 -- H 14                   1.26        0.73901
              H 12 -- H 16                   1.26        0.73901
              H 5  -- H 10                  -0.11        1.67716
              H 8  -- H 11                  -0.11        1.67716
              H 7  -- H 12                  -0.11        1.67716
              H 6  -- H 9                   -0.11        1.67716
              H 9  -- H 17                  -0.11        1.72013
              H 11 -- H 19                  -0.11        1.72013
              H 12 -- H 20                  -0.11        1.72013
              H 10 -- H 18                  -0.11        1.72013
              H 21 -- H 24                  -0.12        1.73035
              H 22 -- H 23                  -0.12        1.73035
              H 1  -- H 11                  -0.06        1.75472
              H 3  -- H 9                   -0.06        1.75472
              H 4  -- H 10                  -0.06        1.75472
              H 2  -- H 12                  -0.06        1.75472
              H 16 -- H 19                  -0.09        1.76153
              H 14 -- H 17                  -0.09        1.76153
              H 15 -- H 20                  -0.09        1.76153
              H 13 -- H 18                  -0.09        1.76153
              H 16 -- H 20                  -0.10        1.76171
              H 14 -- H 18                  -0.10        1.76171
              H 13 -- H 17                  -0.10        1.76171
              H 15 -- H 19                  -0.10        1.76171
              H 16 -- H 23                  -0.10        1.78449
              H 13 -- H 22                  -0.10        1.78449
              H 15 -- H 24                  -0.10        1.78449
              H 14 -- H 21                  -0.10        1.78449
              H 4  -- H 18                  -0.11        1.79584
              H 1  -- H 19                  -0.11        1.79584
              H 3  -- H 17                  -0.11        1.79584
              H 2  -- H 20                  -0.11        1.79584
              H 8  -- H 12                  -0.11        1.79707
              H 6  -- H 10                  -0.11        1.79707
              H 5  -- H 9                   -0.11        1.79707
              H 7  -- H 11                  -0.11        1.79707
              H 7  -- H 24                  -0.05        1.80091
              H 5  -- H 22                  -0.05        1.80091
              H 6  -- H 21                  -0.05        1.80091
              H 8  -- H 23                  -0.05        1.80091
              H 2  -- H 9                   -0.12        1.82489
              H 3  -- H 12                  -0.12        1.82489
              H 1  -- H 10                  -0.12        1.82489
              H 4  -- H 11                  -0.12        1.82489
              H 7  -- H 15                  -0.10        1.84612
              H 5  -- H 13                  -0.10        1.84612
              H 8  -- H 16                  -0.10        1.84612
              H 6  -- H 14                  -0.10        1.84612
              H 4  -- H 22                  -0.10        1.84642
              H 2  -- H 24                  -0.10        1.84642
              H 3  -- H 21                  -0.10        1.84642
              H 1  -- H 23                  -0.10        1.84642
              H 19 -- H 20                  -0.06        1.85383
              H 17 -- H 18                  -0.06        1.85383
              H 2  -- H 21                  -0.04        1.87283
              H 3  -- H 24                  -0.04        1.87283
              H 4  -- H 23                  -0.04        1.87283
              H 1  -- H 22                  -0.04        1.87283
              H 3  -- H 6                   -0.09        1.88529
              H 1  -- H 8                   -0.09        1.88529
              H 4  -- H 5                   -0.09        1.88529
              H 2  -- H 7                   -0.09        1.88529
              H 11 -- H 12                  -0.04        1.88616
              H 9  -- H 10                  -0.04        1.88616
              H 17 -- H 24                  -0.12        1.89756
              H 20 -- H 21                  -0.12        1.89756
              H 19 -- H 22                  -0.12        1.89756
              H 18 -- H 23                  -0.12        1.89756
              H 2  -- H 14                  -0.10        2.00132
              H 3  -- H 15                  -0.10        2.00132
              H 4  -- H 16                  -0.10        2.00132
              H 1  -- H 13                  -0.10        2.00132
              H 3  -- H 13                  -0.06        2.01158
              H 4  -- H 14                  -0.06        2.01158
              H 1  -- H 15                  -0.06        2.01158
              H 2  -- H 16                  -0.06        2.01158
              H 1  -- H 4                   -0.10        2.01320
              H 2  -- H 3                   -0.10        2.01320
              H 6  -- H 13                  -0.10        2.04453
              H 8  -- H 15                  -0.10        2.04453
              H 5  -- H 14                  -0.10        2.04453
              H 7  -- H 16                  -0.10        2.04453
              H 7  -- H 17                  -0.09        2.08087
              H 6  -- H 20                  -0.09        2.08087
              H 5  -- H 19                  -0.09        2.08087
              H 8  -- H 18                  -0.09        2.08087
              H 20 -- H 23                  -0.05        2.08699
              H 17 -- H 22                  -0.05        2.08699
              H 18 -- H 21                  -0.05        2.08699
              H 19 -- H 24                  -0.05        2.08699
              H 12 -- H 15                  -0.04        2.08962
              H 10 -- H 13                  -0.04        2.08962
              H 11 -- H 16                  -0.04        2.08962
              H 9  -- H 14                  -0.04        2.08962
======================================================================


Writing analysis data to P21c.castep_bin

Writing model to P21c.check
 
 A BibTeX formatted list of references used in this run has been written to 
 P21c.bib
 
Initialisation time =      4.59 s
Calculation time    =   8544.51 s
Finalisation time   =     31.50 s
Total time          =   8580.60 s
Peak Memory Use     = 711656 kB
  
Overall parallel efficiency rating: Excellent (98%)                             
  
Data was distributed by:-
k-point (16-way); efficiency rating: Excellent (98%)                            
