 +-------------------------------------------------+
 |                                                 |
 |      CCC   AA    SSS  TTTTT  EEEEE  PPPP        |
 |     C     A  A  S       T    E      P   P       |
 |     C     AAAA   SS     T    EEE    PPPP        |
 |     C     A  A     S    T    E      P           |
 |      CCC  A  A  SSS     T    EEEEE  P           |
 |                                                 |
 +-------------------------------------------------+
 |                                                 |
 | Welcome to Academic Release CASTEP version 18.1 |          
 | Ab Initio Total Energy Program                  |
 |                                                 |
 | Authors:                                        |
 | M. Segall, M. Probert, C. Pickard, P. Hasnip,   |
 | S. Clark, K. Refson, J. R. Yates, M. Payne      |
 |                                                 |
 | Contributors:                                   |
 | P. Lindan, P. Haynes, J. White, V. Milman,      |
 | N. Govind, M. Gibson, P. Tulip, V. Cocula,      |
 | B. Montanari, D. Quigley, M. Glover,            |
 | L. Bernasconi, A. Perlov, M. Plummer,           |
 | E. McNellis, J. Meyer, J. Gale, D. Jochym       |
 | J. Aarons, B. Walker, R. Gillen, D. Jones       |
 | T. Green, I. J. Bush, C. J. Armstrong,          |
 | E. J. Higgins, E. L. Brown, M. S. McFly,        |
 | J. Wilkins, B-C. Shih, P. J. P. Byrne           |
 |                                                 |
 | Copyright (c) 2000 - 2017                       |
 |                                                 |
 |     Distributed under the terms of an           |
 |     Agreement between the United Kingdom        |
 |     Car-Parrinello (UKCP) Consortium,           |
 |     Daresbury Laboratory and Accelrys, Inc.     |
 |                                                 |
 | Please cite                                     |
 |                                                 |
 |     "First principles methods using CASTEP"     |
 |                                                 |
 |         Zeitschrift fuer Kristallographie       |
 |           220(5-6) pp. 567-570 (2005)           |
 |                                                 |
 | S. J. Clark, M. D. Segall, C. J. Pickard,       |
 | P. J. Hasnip, M. J. Probert, K. Refson,         |
 | M. C. Payne                                     |
 |                                                 |
 |       in all publications arising from          |
 |              your use of CASTEP                 |
 |                                                 |
 +-------------------------------------------------+


 Compiled for linux_x86_64_gfortran4.8 on Thu, 19 Jul 2018 15:42:32 +0100
 from code version 70483bd0ad64+  Sun, 10 Dec 2017 12:18:29 +0000
 Compiler: GNU Fortran 4.8.5; Optimisation: fast
 MATHLIBS: Intel MKL(2018.0.0) (LAPACK version 3.7.0)
 FFT Lib : mkl
 Fundamental constants values: CODATA 2014

 Run started: Fri, 21 Aug 2020 13:50:55 +0100

 Atomic calculation performed for H: 1s1

 Converged in 41 iterations to an ae energy of -12.488 eV

   ============================================================                
   | Pseudopotential Report - Date of generation 21-08-2020   |                
   ------------------------------------------------------------                
   | Element: H Ionic charge:  1.00 Level of theory: PBE      |                
   | Atomic Solver: Koelling-Harmon                           |                
   |                                                          |                
   |               Reference Electronic Structure             |                
   |         Orbital         Occupation         Energy        |                
   |            1s              1.000           -0.239        |                
   |                                                          |                
   |                 Pseudopotential Definition               |                
   |        Beta     l      e      Rc     scheme   norm       |                
   |         loc     0   -0.239   0.702     qc      1         |                
   |                                                          |                
   | No charge augmentation                                   |                
   | No partial core correction                               |                
   ------------------------------------------------------------                
   | "0|0.7|2|6|8|10L(qc=10)"                                 |                
   ------------------------------------------------------------                
   |      Author: Chris J. Pickard, Cambridge University      |                
   ============================================================                

 Pseudo atomic calculation performed for H 1s1

 Converged in 24 iterations to a total energy of -12.4843 eV

 Calculation parallelised over 16 processes.
 Data is distributed by k-point(16-way)

 ************************************ Title ************************************
 

 ***************************** General Parameters ******************************
  
 output verbosity                               : normal  (1)
 write checkpoint data to                       : P21c.check
 type of calculation                            : geometry optimization
 stress calculation                             : on
 density difference calculation                 : off
 electron localisation func (ELF) calculation   : off
 Hirshfeld analysis                             : off
 unlimited duration calculation
 timing information                             : on
 memory usage estimate                          : on
 write extra output files                       : on
 write final potential to formatted file        : off
 write final density to formatted file          : off
 write structure in CELL formatted file         : on
 write BibTeX reference list                    : on
 write OTFG pseudopotential files               : on
 write electrostatic potential file             : on
 write bands file                               : on
 checkpoint writing                             : both castep_bin and check files
  
 output         length unit                     : A
 output           mass unit                     : amu
 output           time unit                     : ps
 output         charge unit                     : e
 output           spin unit                     : hbar/2
 output         energy unit                     : eV
 output          force unit                     : eV/A
 output       velocity unit                     : A/ps
 output       pressure unit                     : GPa
 output     inv_length unit                     : 1/A
 output      frequency unit                     : cm-1
 output force constant unit                     : eV/A**2
 output         volume unit                     : A**3
 output   IR intensity unit                     : (D/A)**2/amu
 output         dipole unit                     : D
 output         efield unit                     : eV/A/e
 output        entropy unit                     : J/mol/K
  
 wavefunctions paging                           : none
 random number generator seed                   : randomised (135056087)
 data distribution                              : optimal for this architecture
 optimization strategy                          : maximize speed(+++)

 *********************** Exchange-Correlation Parameters ***********************
  
 using functional                               : Perdew Burke Ernzerhof
 relativistic treatment                         : Koelling-Harmon
 DFT+D: Semi-empirical dispersion correction    : off

 ************************* Pseudopotential Parameters **************************
  
 pseudopotential representation                 : reciprocal space
 <beta|phi> representation                      : reciprocal space
 spin-orbit coupling                            : off

 **************************** Basis Set Parameters *****************************
  
 plane wave basis set cut-off                   :  1200.0000   eV
 size of standard grid                          :     2.0000
 size of   fine   gmax                          :    35.4943   1/A
 finite basis set correction                    : automatic
 number of sample energies                      :          3
           sample  spacing                      :     5.0000   eV

 **************************** Electronic Parameters ****************************
  
 number of  electrons                           :  24.00    
 net charge of system                           :  0.000    
 treating system as non-spin-polarized
 number of bands                                :         12

 ********************* Electronic Minimization Parameters **********************
  
 Method: Treating system as non-metallic,
         and number of  SD  steps               :          1
         and number of  CG  steps               :          4
  
 total energy / atom convergence tol.           : 0.1000E-10   eV
 eigen-energy convergence tolerance             : 0.2000E-10   eV
 max force / atom convergence tol.              : ignored
 convergence tolerance window                   :          3   cycles
 max. number of SCF cycles                      :        100
 periodic dipole correction                     : NONE

 ************************** Density Mixing Parameters **************************
  
 density-mixing scheme                          : Broyden
 max. length of mixing history                  :         20
 charge density mixing amplitude                : 0.8000    
 cut-off energy for mixing                      :  1200.       eV

 *********************** Population Analysis Parameters ************************
  
 Population analysis with cutoff                :  3.000       A
 Population analysis output                     : summary and pdos components

 ********************** Geometry Optimization Parameters ***********************
  
 optimization method                            : LBFGS
 max. no. of LBFGS updates                      : unbounded
 variable cell method                           : fixed basis quality
 max. number of steps                           :        200
 estimated bulk modulus                         :  500.0       GPa
 estimated <frequency>                          :  1668.       cm-1
 geom line minimiser                            : on
 with line minimiser tolerance                  :     0.4000
 total energy convergence tolerance             : 0.1000E-08   eV/atom
        max ionic |force| tolerance             : 0.1000E-04   eV/A
 max ionic |displacement| tolerance             : 0.1000E-04   A
   max |stress component| tolerance             : 0.1000E-04   GPa
 convergence tolerance window                   :          2   steps
 backup results every                           :      14400   seconds
 write geom trajectory file                     : on

 *******************************************************************************
  

                           -------------------------------
                                      Unit Cell
                           -------------------------------
        Real Lattice(A)                      Reciprocal Lattice(1/A)
     9.0973139     0.0000000     0.0024465        0.690323374   0.000000000   1.265845876
     0.0000000     1.9176128     0.0000000        0.000000000   3.276566281   0.000000000
    -6.0658861     0.0000000     3.3080038       -0.000510535   0.000000000   1.898452611

                       Lattice parameters(A)       Cell Angles
                    a =      9.097314          alpha =   90.000000
                    b =      1.917613          beta  =  151.378947
                    c =      6.909259          gamma =   90.000000

                       Current cell volume =            57.736998       A**3
                                   density =             0.418978   AMU/A**3
                                           =             0.695730     g/cm^3

                           -------------------------------
                                     Cell Contents
                           -------------------------------
                         Total number of ions in cell =   24
                      Total number of species in cell =    1
                        Max number of any one species =   24

            xxxxxxxxxxxxxxxxxxxxxxxxxxxxxxxxxxxxxxxxxxxxxxxxxxxxxxxxxxxx
            x  Element    Atom        Fractional coordinates of atoms  x
            x            Number           u          v          w      x
            x----------------------------------------------------------x
            x  H            1         0.829745   0.675743   0.095498   x 
            x  H            2         0.170255   0.324257   0.904502   x 
            x  H            3         0.829745   0.824257   0.595498   x 
            x  H            4         0.170255   0.175743   0.404502   x 
            x  H            5         0.886541   0.405881   0.227206   x 
            x  H            6         0.113459   0.594119   0.772794   x 
            x  H            7         0.886541   0.094119   0.727206   x 
            x  H            8         0.113459   0.905881   0.272794   x 
            x  H            9         0.864008   0.133213   0.421274   x 
            x  H           10         0.135992   0.866787   0.578726   x 
            x  H           11         0.864008   0.366787   0.921274   x 
            x  H           12         0.135992   0.633213   0.078726   x 
            x  H           13         0.745421   0.905439   0.242820   x 
            x  H           14         0.254579   0.094561   0.757180   x 
            x  H           15         0.745421   0.594561   0.742820   x 
            x  H           16         0.254579   0.405439   0.257180   x 
            x  H           17         0.576330   0.379959   0.195860   x 
            x  H           18         0.423670   0.620041   0.804140   x 
            x  H           19         0.576330   0.120041   0.695860   x 
            x  H           20         0.423670   0.879959   0.304140   x 
            x  H           21         0.473468   0.610360   0.131348   x 
            x  H           22         0.526532   0.389640   0.868652   x 
            x  H           23         0.473468   0.889640   0.631348   x 
            x  H           24         0.526532   0.110360   0.368652   x 
            xxxxxxxxxxxxxxxxxxxxxxxxxxxxxxxxxxxxxxxxxxxxxxxxxxxxxxxxxxxx


                         No user defined ionic velocities

                           -------------------------------
                                   Details of Species
                           -------------------------------

                               Mass of species in AMU
                                    H    1.0079400

                          Electric Quadrupole Moment (Barn)
                                    H    0.0028600 Isotope  2

                          Files used for pseudopotentials:
                                    H 0|0.7|2|6|8|10L(qc=10)

                           -------------------------------
                              k-Points For BZ Sampling
                           -------------------------------
                       MP grid size for SCF calculation is  8 13 11
                            with an offset of   0.000  0.000  0.000
                       Number of kpoints used =           308

                           -------------------------------
                               Symmetry and Constraints
                           -------------------------------

                      Maximum deviation from symmetry = 0.121221E-13     ANG

                      Number of symmetry operations   =           4
                      Number of ionic constraints     =           3
                      Point group of crystal =     5: C2h, 2/m, 2/m
                      Space group of crystal =    14: P2_1/c, -P 2ybc

             Set iprint > 1 for details on symmetry rotations/translations

                         Centre of mass is constrained
             Set iprint > 1 for details of linear ionic constraints

                         Number of cell constraints= 2
                         Cell constraints are:  1 2 3 0 5 0

                         External pressure/stress (GPa)
                         80.00000   0.00000   0.00000
                                   80.00000   0.00000
                                             80.00000
  
+---------------- MEMORY AND SCRATCH DISK ESTIMATES PER PROCESS --------------+
|                                                     Memory          Disk    |
| Baseline code, static data and system overhead      412.0 MB         0.0 MB |
| BLAS internal memory storage                          0.0 MB         0.0 MB |
| Model and support data                               84.6 MB         0.0 MB |
| Electronic energy minimisation requirements          74.9 MB         0.0 MB |
| Force calculation requirements                       23.7 MB         0.0 MB |
| Stress calculation requirements                      30.1 MB         0.0 MB |
|                                               ----------------------------- |
| Approx. total storage required per process          571.5 MB         0.0 MB |
|                                                                             |
| Requirements will fluctuate during execution and may exceed these estimates |
+-----------------------------------------------------------------------------+
Calculating finite basis set correction with  3 cut-off energies.
Calculating total energy with cut-off of 1190.000 eV.
------------------------------------------------------------------------ <-- SCF
SCF loop      Energy                           Energy gain       Timer   <-- SCF
                                               per atom          (sec)   <-- SCF
------------------------------------------------------------------------ <-- SCF
Initial   5.97709017E+002                                          7.41  <-- SCF
      1  -2.98277227E+002                    3.73327601E+001      25.27  <-- SCF
      2  -3.65465174E+002                    2.79949781E+000      37.05  <-- SCF
      3  -3.66492837E+002                    4.28193095E-002      47.43  <-- SCF
      4  -3.64665893E+002                   -7.61226807E-002      65.15  <-- SCF
      5  -3.64595649E+002                   -2.92683719E-003      81.94  <-- SCF
      6  -3.64597450E+002                    7.50590972E-005      98.74  <-- SCF
      7  -3.64597626E+002                    7.31537632E-006     115.56  <-- SCF
      8  -3.64597626E+002                    1.86735222E-008     132.54  <-- SCF
      9  -3.64597626E+002                    8.17358742E-010     149.37  <-- SCF
     10  -3.64597626E+002                    2.49057071E-011     161.32  <-- SCF
     11  -3.64597626E+002                    5.78031533E-013     173.25  <-- SCF
     12  -3.64597626E+002                    2.37657564E-013     185.21  <-- SCF
------------------------------------------------------------------------ <-- SCF
 
Final energy =  -364.5976264237     eV
(energy not corrected for finite basis set)
 
Calculating total energy with cut-off of 1195.000 eV.
------------------------------------------------------------------------ <-- SCF
SCF loop      Energy                           Energy gain       Timer   <-- SCF
                                               per atom          (sec)   <-- SCF
------------------------------------------------------------------------ <-- SCF
Initial  -3.64597626E+002                                        190.95  <-- SCF
      1  -3.64599466E+002                    7.66380853E-005     204.98  <-- SCF
      2  -3.64599466E+002                    1.09985101E-010     221.82  <-- SCF
      3  -3.64599467E+002                    3.32228276E-008     238.69  <-- SCF
      4  -3.64599467E+002                    1.85904206E-009     255.57  <-- SCF
      5  -3.64599467E+002                    2.79791431E-011     267.75  <-- SCF
      6  -3.64599467E+002                   -1.76631935E-012     280.33  <-- SCF
      7  -3.64599467E+002                    3.34734637E-012     292.90  <-- SCF
------------------------------------------------------------------------ <-- SCF
 
Final energy =  -364.5994665830     eV
(energy not corrected for finite basis set)
 
Calculating total energy with cut-off of 1200.000 eV.
------------------------------------------------------------------------ <-- SCF
SCF loop      Energy                           Energy gain       Timer   <-- SCF
                                               per atom          (sec)   <-- SCF
------------------------------------------------------------------------ <-- SCF
Initial  -3.64599467E+002                                        298.67  <-- SCF
      1  -3.64601233E+002                    7.35824100E-005     312.71  <-- SCF
      2  -3.64601233E+002                    1.01721466E-010     329.56  <-- SCF
      3  -3.64601233E+002                    3.12278857E-008     346.45  <-- SCF
      4  -3.64601233E+002                    1.75496818E-009     363.33  <-- SCF
      5  -3.64601233E+002                    2.60980230E-011     375.64  <-- SCF
      6  -3.64601233E+002                   -1.44004371E-012     388.07  <-- SCF
      7  -3.64601233E+002                    3.25671425E-012     400.80  <-- SCF
------------------------------------------------------------------------ <-- SCF
 
Final energy =  -364.6012333556     eV
(energy not corrected for finite basis set)
 
 For future reference: finite basis dEtot/dlog(Ecut) =      -0.428465eV
 Total energy corrected for finite basis set =    -364.601227 eV
 
+---------------- MEMORY AND SCRATCH DISK ESTIMATES PER PROCESS --------------+
|                                                     Memory          Disk    |
| Model and support data                               86.1 MB         0.0 MB |
| Electronic energy minimisation requirements          74.9 MB         0.0 MB |
| Geometry minimisation requirements                   98.6 MB         0.0 MB |
|                                               ----------------------------- |
| Approx. total storage required per process          259.6 MB         0.0 MB |
|                                                                             |
| Requirements will fluctuate during execution and may exceed these estimates |
+-----------------------------------------------------------------------------+
 

 ******************************** Symmetrised Forces ********************************
 *                                                                                  *
 *                           Cartesian components (eV/A)                            *
 * -------------------------------------------------------------------------------- *
 *                         x                    y                    z              *
 *                                                                                  *
 * H               1     -0.00000              0.00000              0.00000         *
 * H               2      0.00000             -0.00000             -0.00000         *
 * H               3     -0.00000             -0.00000              0.00000         *
 * H               4      0.00000              0.00000             -0.00000         *
 * H               5     -0.00000              0.00000             -0.00000         *
 * H               6      0.00000             -0.00000              0.00000         *
 * H               7     -0.00000             -0.00000             -0.00000         *
 * H               8      0.00000              0.00000              0.00000         *
 * H               9     -0.00000              0.00000              0.00000         *
 * H              10      0.00000             -0.00000             -0.00000         *
 * H              11     -0.00000             -0.00000              0.00000         *
 * H              12      0.00000              0.00000             -0.00000         *
 * H              13      0.00000             -0.00000              0.00000         *
 * H              14     -0.00000              0.00000             -0.00000         *
 * H              15      0.00000              0.00000              0.00000         *
 * H              16     -0.00000             -0.00000             -0.00000         *
 * H              17     -0.00000             -0.00000             -0.00000         *
 * H              18      0.00000              0.00000              0.00000         *
 * H              19     -0.00000              0.00000             -0.00000         *
 * H              20      0.00000             -0.00000              0.00000         *
 * H              21     -0.00000              0.00000             -0.00000         *
 * H              22      0.00000             -0.00000              0.00000         *
 * H              23     -0.00000             -0.00000             -0.00000         *
 * H              24      0.00000              0.00000              0.00000         *
 *                                                                                  *
 ************************************************************************************

 *********** Symmetrised Stress Tensor ***********
 *                                               *
 *          Cartesian components (GPa)           *
 * --------------------------------------------- *
 *             x             y             z     *
 *                                               *
 *  x    -90.001611      0.000000      0.000002  *
 *  y      0.000000    -90.001604      0.000000  *
 *  z      0.000002      0.000000    -90.001611  *
 *                                               *
 *  Pressure:   90.0016                          *
 *                                               *
 *************************************************
 LBFGS: finished iteration     0 with enthalpy= -3.35771947E+002 eV
  
 +-----------+-----------------+-----------------+------------+-----+ <-- LBFGS
 | Parameter |      value      |    tolerance    |    units   | OK? | <-- LBFGS
 +-----------+-----------------+-----------------+------------+-----+ <-- LBFGS
 |  dE/ion   |   0.000000E+000 |   1.000000E-009 |         eV | No  | <-- LBFGS
 |  |F|max   |   9.711650E-007 |   1.000000E-005 |       eV/A | Yes | <-- LBFGS
 |  |dR|max  |   0.000000E+000 |   1.000000E-005 |          A | No  | <-- LBFGS
 |   Smax    |   1.000161E+001 |   1.000000E-005 |        GPa | No  | <-- LBFGS
 +-----------+-----------------+-----------------+------------+-----+ <-- LBFGS
  

================================================================================
 Starting LBFGS iteration          1 ...
================================================================================
  
 +------------+-------------+-------------+-----------------+ <-- min LBFGS
 |    Step    |   lambda    |   F.delta'  |    enthalpy     | <-- min LBFGS
 +------------+-------------+-------------+-----------------+ <-- min LBFGS
 |  previous  |    0.000000 |    0.229416 |     -335.771947 | <-- min LBFGS
 +------------+-------------+-------------+-----------------+ <-- min LBFGS
  

--------------------------------------------------------------------------------
 LBFGS: starting iteration         1 with trial guess (lambda=  1.000000)
--------------------------------------------------------------------------------
 
+---------------- MEMORY AND SCRATCH DISK ESTIMATES PER PROCESS --------------+
|                                                     Memory          Disk    |
| Model and support data                               86.9 MB         0.0 MB |
| Electronic energy minimisation requirements          76.0 MB         0.0 MB |
| Geometry minimisation requirements                  100.2 MB         0.0 MB |
|                                               ----------------------------- |
| Approx. total storage required per process          263.1 MB         0.0 MB |
|                                                                             |
| Requirements will fluctuate during execution and may exceed these estimates |
+-----------------------------------------------------------------------------+
 

                           -------------------------------
                                      Unit Cell
                           -------------------------------
        Real Lattice(A)              Reciprocal Lattice(1/A)
     9.1579725     0.0000000     0.0024628        0.685750966   0.000000000   1.257461451
     0.0000000     1.9303989     0.0000000        0.000000000   3.254863708   0.000000000
    -6.1063319     0.0000000     3.3300607       -0.000507151   0.000000000   1.885878066

                       Lattice parameters(A)       Cell Angles
                    a =      9.157973          alpha =   90.000000
                    b =      1.930399          beta  =  151.378947
                    c =      6.955328          gamma =   90.000000

                Current cell volume =            58.899642 A**3

                           -------------------------------
                                     Cell Contents
                           -------------------------------

            xxxxxxxxxxxxxxxxxxxxxxxxxxxxxxxxxxxxxxxxxxxxxxxxxxxxxxxxxxxxxxxxx
            x  Element         Atom        Fractional coordinates of atoms  x
            x                 Number           u          v          w      x
            x---------------------------------------------------------------x
            x  H                 1         0.829745   0.675743   0.095498   x
            x  H                 2         0.170255   0.324257   0.904502   x
            x  H                 3         0.829745   0.824257   0.595498   x
            x  H                 4         0.170255   0.175743   0.404502   x
            x  H                 5         0.886541   0.405881   0.227206   x
            x  H                 6         0.113459   0.594119   0.772794   x
            x  H                 7         0.886541   0.094119   0.727206   x
            x  H                 8         0.113459   0.905881   0.272794   x
            x  H                 9         0.864008   0.133213   0.421274   x
            x  H                10         0.135992   0.866787   0.578726   x
            x  H                11         0.864008   0.366787   0.921274   x
            x  H                12         0.135992   0.633213   0.078726   x
            x  H                13         0.745421   0.905439   0.242820   x
            x  H                14         0.254579   0.094561   0.757180   x
            x  H                15         0.745421   0.594561   0.742820   x
            x  H                16         0.254579   0.405439   0.257180   x
            x  H                17         0.576330   0.379959   0.195860   x
            x  H                18         0.423670   0.620041   0.804140   x
            x  H                19         0.576330   0.120041   0.695860   x
            x  H                20         0.423670   0.879959   0.304140   x
            x  H                21         0.473468   0.610361   0.131348   x
            x  H                22         0.526532   0.389639   0.868652   x
            x  H                23         0.473468   0.889639   0.631348   x
            x  H                24         0.526532   0.110361   0.368652   x
            xxxxxxxxxxxxxxxxxxxxxxxxxxxxxxxxxxxxxxxxxxxxxxxxxxxxxxxxxxxxxxxxx


------------------------------------------------------------------------ <-- SCF
SCF loop      Energy                           Energy gain       Timer   <-- SCF
                                               per atom          (sec)   <-- SCF
------------------------------------------------------------------------ <-- SCF
Initial  -3.65219489E+002                                        412.36  <-- SCF
      1  -3.65233848E+002                    5.98266856E-004     426.52  <-- SCF
      2  -3.65233877E+002                    1.22175215E-006     443.52  <-- SCF
      3  -3.65233495E+002                   -1.59417306E-005     460.48  <-- SCF
      4  -3.65233485E+002                   -4.13576762E-007     477.48  <-- SCF
      5  -3.65233485E+002                    1.66157581E-008     494.44  <-- SCF
      6  -3.65233485E+002                    1.55661274E-009     511.41  <-- SCF
      7  -3.65233485E+002                    4.34429971E-012     523.51  <-- SCF
      8  -3.65233485E+002                   -3.74612770E-013     535.56  <-- SCF
------------------------------------------------------------------------ <-- SCF
 
Final energy =  -365.2334850407     eV
(energy not corrected for finite basis set)
 

 ******************************** Symmetrised Forces ********************************
 *                                                                                  *
 *                           Cartesian components (eV/A)                            *
 * -------------------------------------------------------------------------------- *
 *                         x                    y                    z              *
 *                                                                                  *
 * H               1     -0.05675             -0.10367              0.08745         *
 * H               2      0.05675              0.10367             -0.08745         *
 * H               3     -0.05675              0.10367              0.08745         *
 * H               4      0.05675             -0.10367             -0.08745         *
 * H               5      0.05552              0.10299             -0.08591         *
 * H               6     -0.05552             -0.10299              0.08591         *
 * H               7      0.05552             -0.10299             -0.08591         *
 * H               8     -0.05552              0.10299              0.08591         *
 * H               9      0.00017             -0.08648             -0.11584         *
 * H              10     -0.00017              0.08648              0.11584         *
 * H              11      0.00017              0.08648             -0.11584         *
 * H              12     -0.00017             -0.08648              0.11584         *
 * H              13     -0.00096              0.08619              0.11657         *
 * H              14      0.00096             -0.08619             -0.11657         *
 * H              15     -0.00096             -0.08619              0.11657         *
 * H              16      0.00096              0.08619             -0.11657         *
 * H              17     -0.10732              0.08778             -0.04218         *
 * H              18      0.10732             -0.08778              0.04218         *
 * H              19     -0.10732             -0.08778             -0.04218         *
 * H              20      0.10732              0.08778              0.04218         *
 * H              21      0.10733             -0.08843              0.04322         *
 * H              22     -0.10733              0.08843             -0.04322         *
 * H              23      0.10733              0.08843              0.04322         *
 * H              24     -0.10733             -0.08843             -0.04322         *
 *                                                                                  *
 ************************************************************************************

 *********** Symmetrised Stress Tensor ***********
 *                                               *
 *          Cartesian components (GPa)           *
 * --------------------------------------------- *
 *             x             y             z     *
 *                                               *
 *  x    -84.791684      0.000000     -0.013898  *
 *  y      0.000000    -84.076893      0.000000  *
 *  z     -0.013898      0.000000    -84.212533  *
 *                                               *
 *  Pressure:   84.3604                          *
 *                                               *
 *************************************************
  
 +------------+-------------+-------------+-----------------+ <-- min LBFGS
 |    Step    |   lambda    |   F.delta'  |    enthalpy     | <-- min LBFGS
 +------------+-------------+-------------+-----------------+ <-- min LBFGS
 |  previous  |    0.000000 |    0.229416 |     -335.771947 | <-- min LBFGS
 | trial step |    1.000000 |    0.101356 |     -335.823683 | <-- min LBFGS
 +------------+-------------+-------------+-----------------+ <-- min LBFGS
  

--------------------------------------------------------------------------------
 LBFGS: improving iteration         1 with line minimization (lambda=  1.791468)
--------------------------------------------------------------------------------
 
+---------------- MEMORY AND SCRATCH DISK ESTIMATES PER PROCESS --------------+
|                                                     Memory          Disk    |
| Model and support data                               87.5 MB         0.0 MB |
| Electronic energy minimisation requirements          77.0 MB         0.0 MB |
| Geometry minimisation requirements                  101.4 MB         0.0 MB |
|                                               ----------------------------- |
| Approx. total storage required per process          265.9 MB         0.0 MB |
|                                                                             |
| Requirements will fluctuate during execution and may exceed these estimates |
+-----------------------------------------------------------------------------+
 

                           -------------------------------
                                      Unit Cell
                           -------------------------------
        Real Lattice(A)              Reciprocal Lattice(1/A)
     9.2059818     0.0000000     0.0024757        0.682174767   0.000000000   1.250903774
     0.0000000     1.9405187     0.0000000        0.000000000   3.237889563   0.000000000
    -6.1383434     0.0000000     3.3475181       -0.000504504   0.000000000   1.876043188

                       Lattice parameters(A)       Cell Angles
                    a =      9.205982          alpha =   90.000000
                    b =      1.940519          beta  =  151.378947
                    c =      6.991791          gamma =   90.000000

                Current cell volume =            59.830824 A**3

                           -------------------------------
                                     Cell Contents
                           -------------------------------

            xxxxxxxxxxxxxxxxxxxxxxxxxxxxxxxxxxxxxxxxxxxxxxxxxxxxxxxxxxxxxxxxx
            x  Element         Atom        Fractional coordinates of atoms  x
            x                 Number           u          v          w      x
            x---------------------------------------------------------------x
            x  H                 1         0.829745   0.675743   0.095498   x
            x  H                 2         0.170255   0.324257   0.904502   x
            x  H                 3         0.829745   0.824257   0.595498   x
            x  H                 4         0.170255   0.175743   0.404502   x
            x  H                 5         0.886541   0.405881   0.227206   x
            x  H                 6         0.113459   0.594119   0.772794   x
            x  H                 7         0.886541   0.094119   0.727206   x
            x  H                 8         0.113459   0.905881   0.272794   x
            x  H                 9         0.864008   0.133213   0.421274   x
            x  H                10         0.135992   0.866787   0.578726   x
            x  H                11         0.864008   0.366787   0.921274   x
            x  H                12         0.135992   0.633213   0.078726   x
            x  H                13         0.745421   0.905439   0.242820   x
            x  H                14         0.254579   0.094561   0.757180   x
            x  H                15         0.745421   0.594561   0.742820   x
            x  H                16         0.254579   0.405439   0.257180   x
            x  H                17         0.576330   0.379959   0.195860   x
            x  H                18         0.423670   0.620041   0.804140   x
            x  H                19         0.576330   0.120041   0.695860   x
            x  H                20         0.423670   0.879959   0.304140   x
            x  H                21         0.473468   0.610361   0.131348   x
            x  H                22         0.526532   0.389639   0.868652   x
            x  H                23         0.473468   0.889639   0.631348   x
            x  H                24         0.526532   0.110361   0.368652   x
            xxxxxxxxxxxxxxxxxxxxxxxxxxxxxxxxxxxxxxxxxxxxxxxxxxxxxxxxxxxxxxxxx


------------------------------------------------------------------------ <-- SCF
SCF loop      Energy                           Energy gain       Timer   <-- SCF
                                               per atom          (sec)   <-- SCF
------------------------------------------------------------------------ <-- SCF
Initial  -3.65701576E+002                                        547.08  <-- SCF
      1  -3.65711428E+002                    4.10472451E-004     561.16  <-- SCF
      2  -3.65711446E+002                    7.76343377E-007     578.02  <-- SCF
      3  -3.65711207E+002                   -9.98861832E-006     595.07  <-- SCF
      4  -3.65711200E+002                   -2.57964203E-007     612.01  <-- SCF
      5  -3.65711201E+002                    1.06901212E-008     628.92  <-- SCF
      6  -3.65711201E+002                    1.00580105E-009     645.94  <-- SCF
      7  -3.65711201E+002                    2.96467741E-012     658.02  <-- SCF
      8  -3.65711201E+002                    2.43699706E-013     670.10  <-- SCF
------------------------------------------------------------------------ <-- SCF
 
Final energy =  -365.7112006989     eV
(energy not corrected for finite basis set)
 

 ******************************** Symmetrised Forces ********************************
 *                                                                                  *
 *                           Cartesian components (eV/A)                            *
 * -------------------------------------------------------------------------------- *
 *                         x                    y                    z              *
 *                                                                                  *
 * H               1     -0.10052             -0.18358              0.15488         *
 * H               2      0.10052              0.18358             -0.15488         *
 * H               3     -0.10052              0.18358              0.15488         *
 * H               4      0.10052             -0.18358             -0.15488         *
 * H               5      0.09836              0.18244             -0.15214         *
 * H               6     -0.09836             -0.18244              0.15214         *
 * H               7      0.09836             -0.18244             -0.15214         *
 * H               8     -0.09836              0.18244              0.15214         *
 * H               9      0.00029             -0.15319             -0.20520         *
 * H              10     -0.00029              0.15319              0.20520         *
 * H              11      0.00029              0.15319             -0.20520         *
 * H              12     -0.00029             -0.15319              0.20520         *
 * H              13     -0.00169              0.15272              0.20646         *
 * H              14      0.00169             -0.15272             -0.20646         *
 * H              15     -0.00169             -0.15272              0.20646         *
 * H              16      0.00169              0.15272             -0.20646         *
 * H              17     -0.19009              0.15549             -0.07473         *
 * H              18      0.19009             -0.15549              0.07473         *
 * H              19     -0.19009             -0.15549             -0.07473         *
 * H              20      0.19009              0.15549              0.07473         *
 * H              21      0.19012             -0.15665              0.07654         *
 * H              22     -0.19012              0.15665             -0.07654         *
 * H              23      0.19012              0.15665              0.07654         *
 * H              24     -0.19012             -0.15665             -0.07654         *
 *                                                                                  *
 ************************************************************************************

 *********** Symmetrised Stress Tensor ***********
 *                                               *
 *          Cartesian components (GPa)           *
 * --------------------------------------------- *
 *             x             y             z     *
 *                                               *
 *  x    -80.859769      0.000000     -0.024138  *
 *  y      0.000000    -79.609078      0.000000  *
 *  z     -0.024138      0.000000    -79.846722  *
 *                                               *
 *  Pressure:   80.1052                          *
 *                                               *
 *************************************************
  
 +------------+-------------+-------------+-----------------+ <-- min LBFGS
 |    Step    |   lambda    |   F.delta'  |    enthalpy     | <-- min LBFGS
 +------------+-------------+-------------+-----------------+ <-- min LBFGS
 |  previous  |    0.000000 |    0.229416 |     -335.771947 | <-- min LBFGS
 | trial step |    1.000000 |    0.101356 |     -335.823683 | <-- min LBFGS
 |  line step |    1.791468 |    0.002470 |     -335.836428 | <-- min LBFGS
 +------------+-------------+-------------+-----------------+ <-- min LBFGS
  
 LBFGS: finished iteration     1 with enthalpy= -3.35836428E+002 eV
  
 +-----------+-----------------+-----------------+------------+-----+ <-- LBFGS
 | Parameter |      value      |    tolerance    |    units   | OK? | <-- LBFGS
 +-----------+-----------------+-----------------+------------+-----+ <-- LBFGS
 |  dE/ion   |   2.686691E-003 |   1.000000E-009 |         eV | No  | <-- LBFGS
 |  |F|max   |   2.603707E-001 |   1.000000E-005 |       eV/A | No  | <-- LBFGS
 |  |dR|max  |   1.707599E-007 |   1.000000E-005 |          A | Yes | <-- LBFGS
 |   Smax    |   8.597688E-001 |   1.000000E-005 |        GPa | No  | <-- LBFGS
 +-----------+-----------------+-----------------+------------+-----+ <-- LBFGS
  

================================================================================
 Starting LBFGS iteration          2 ...
================================================================================
  
 +------------+-------------+-------------+-----------------+ <-- min LBFGS
 |    Step    |   lambda    |   F.delta'  |    enthalpy     | <-- min LBFGS
 +------------+-------------+-------------+-----------------+ <-- min LBFGS
 |  previous  |    0.000000 |    0.104966 |     -335.836428 | <-- min LBFGS
 +------------+-------------+-------------+-----------------+ <-- min LBFGS
  

--------------------------------------------------------------------------------
 LBFGS: starting iteration         2 with trial guess (lambda=  1.000000)
--------------------------------------------------------------------------------
 
+---------------- MEMORY AND SCRATCH DISK ESTIMATES PER PROCESS --------------+
|                                                     Memory          Disk    |
| Model and support data                               89.5 MB         0.0 MB |
| Electronic energy minimisation requirements          79.9 MB         0.0 MB |
| Geometry minimisation requirements                  105.3 MB         0.0 MB |
|                                               ----------------------------- |
| Approx. total storage required per process          274.7 MB         0.0 MB |
|                                                                             |
| Requirements will fluctuate during execution and may exceed these estimates |
+-----------------------------------------------------------------------------+
 

                           -------------------------------
                                      Unit Cell
                           -------------------------------
        Real Lattice(A)              Reciprocal Lattice(1/A)
     9.3479925     0.0000000     0.0026637        0.671791482   0.000000000   1.232728414
     0.0000000     1.9687978     0.0000000        0.000000000   3.191381668   0.000000000
    -6.2329779     0.0000000     3.3967429       -0.000526806   0.000000000   1.848801037

                       Lattice parameters(A)       Cell Angles
                    a =      9.347993          alpha =   90.000000
                    b =      1.968798          beta  =  151.394920
                    c =      7.098442          gamma =   90.000000

                Current cell volume =            62.547387 A**3

                           -------------------------------
                                     Cell Contents
                           -------------------------------

            xxxxxxxxxxxxxxxxxxxxxxxxxxxxxxxxxxxxxxxxxxxxxxxxxxxxxxxxxxxxxxxxx
            x  Element         Atom        Fractional coordinates of atoms  x
            x                 Number           u          v          w      x
            x---------------------------------------------------------------x
            x  H                 1         0.831745   0.666245   0.100142   x
            x  H                 2         0.168255   0.333755   0.899858   x
            x  H                 3         0.831745   0.833755   0.600142   x
            x  H                 4         0.168255   0.166245   0.399858   x
            x  H                 5         0.884572   0.415320   0.222644   x
            x  H                 6         0.115428   0.584680   0.777356   x
            x  H                 7         0.884572   0.084680   0.722644   x
            x  H                 8         0.115428   0.915320   0.277356   x
            x  H                 9         0.859909   0.125288   0.415122   x
            x  H                10         0.140091   0.874712   0.584878   x
            x  H                11         0.859909   0.374712   0.915122   x
            x  H                12         0.140091   0.625288   0.084878   x
            x  H                13         0.749530   0.913340   0.249010   x
            x  H                14         0.250470   0.086660   0.750990   x
            x  H                15         0.749530   0.586660   0.749010   x
            x  H                16         0.250470   0.413340   0.250990   x
            x  H                17         0.572764   0.388004   0.193621   x
            x  H                18         0.427236   0.611996   0.806379   x
            x  H                19         0.572764   0.111996   0.693621   x
            x  H                20         0.427236   0.888004   0.306379   x
            x  H                21         0.477070   0.602256   0.133641   x
            x  H                22         0.522930   0.397744   0.866359   x
            x  H                23         0.477070   0.897744   0.633641   x
            x  H                24         0.522930   0.102256   0.366359   x
            xxxxxxxxxxxxxxxxxxxxxxxxxxxxxxxxxxxxxxxxxxxxxxxxxxxxxxxxxxxxxxxxx


------------------------------------------------------------------------ <-- SCF
SCF loop      Energy                           Energy gain       Timer   <-- SCF
                                               per atom          (sec)   <-- SCF
------------------------------------------------------------------------ <-- SCF
Initial  -3.65166316E+002                                        681.97  <-- SCF
      1  -3.66911660E+002                    7.27226657E-002     697.72  <-- SCF
      2  -3.66917542E+002                    2.45074819E-004     716.63  <-- SCF
      3  -3.66792863E+002                   -5.19496271E-003     735.59  <-- SCF
      4  -3.66788073E+002                   -1.99602793E-004     754.51  <-- SCF
      5  -3.66788125E+002                    2.19879915E-006     773.36  <-- SCF
      6  -3.66788130E+002                    2.13255252E-007     792.21  <-- SCF
      7  -3.66788130E+002                    1.15990184E-009     811.10  <-- SCF
      8  -3.66788130E+002                    9.80921525E-011     824.53  <-- SCF
      9  -3.66788130E+002                    3.88308291E-012     837.98  <-- SCF
     10  -3.66788130E+002                    3.76626818E-013     851.41  <-- SCF
------------------------------------------------------------------------ <-- SCF
 
Final energy =  -366.7881304785     eV
(energy not corrected for finite basis set)
 

 ******************************** Symmetrised Forces ********************************
 *                                                                                  *
 *                           Cartesian components (eV/A)                            *
 * -------------------------------------------------------------------------------- *
 *                         x                    y                    z              *
 *                                                                                  *
 * H               1      0.50204              0.88911             -0.76087         *
 * H               2     -0.50204             -0.88911              0.76087         *
 * H               3      0.50204             -0.88911             -0.76087         *
 * H               4     -0.50204              0.88911              0.76087         *
 * H               5     -0.50009             -0.93031              0.77706         *
 * H               6      0.50009              0.93031             -0.77706         *
 * H               7     -0.50009              0.93031              0.77706         *
 * H               8      0.50009             -0.93031             -0.77706         *
 * H               9      0.00070              0.72689              1.01071         *
 * H              10     -0.00070             -0.72689             -1.01071         *
 * H              11      0.00070             -0.72689              1.01071         *
 * H              12     -0.00070              0.72689             -1.01071         *
 * H              13      0.01346             -0.75617             -0.99757         *
 * H              14     -0.01346              0.75617              0.99757         *
 * H              15      0.01346              0.75617             -0.99757         *
 * H              16     -0.01346             -0.75617              0.99757         *
 * H              17      0.95322             -0.76264              0.37528         *
 * H              18     -0.95322              0.76264             -0.37528         *
 * H              19      0.95322              0.76264              0.37528         *
 * H              20     -0.95322             -0.76264             -0.37528         *
 * H              21     -0.94361              0.76456             -0.36584         *
 * H              22      0.94361             -0.76456              0.36584         *
 * H              23     -0.94361             -0.76456             -0.36584         *
 * H              24      0.94361              0.76456              0.36584         *
 *                                                                                  *
 ************************************************************************************

 *********** Symmetrised Stress Tensor ***********
 *                                               *
 *          Cartesian components (GPa)           *
 * --------------------------------------------- *
 *             x             y             z     *
 *                                               *
 *  x    -79.385896      0.000000      0.129472  *
 *  y      0.000000    -82.862471      0.000000  *
 *  z      0.129472      0.000000    -82.016695  *
 *                                               *
 *  Pressure:   81.4217                          *
 *                                               *
 *************************************************
  
 +------------+-------------+-------------+-----------------+ <-- min LBFGS
 |    Step    |   lambda    |   F.delta'  |    enthalpy     | <-- min LBFGS
 +------------+-------------+-------------+-----------------+ <-- min LBFGS
 |  previous  |    0.000000 |    0.104966 |     -335.836428 | <-- min LBFGS
 | trial step |    1.000000 |   -0.503890 |     -335.556908 | <-- min LBFGS
 +------------+-------------+-------------+-----------------+ <-- min LBFGS
  

--------------------------------------------------------------------------------
 LBFGS: improving iteration         2 with line minimization (lambda=  0.172399)
--------------------------------------------------------------------------------

                           -------------------------------
                                      Unit Cell
                           -------------------------------
        Real Lattice(A)              Reciprocal Lattice(1/A)
     9.2304643     0.0000000     0.0025081        0.680361867   0.000000000   1.247732225
     0.0000000     1.9453940     0.0000000        0.000000000   3.229775199   0.000000000
    -6.1546583     0.0000000     3.3560044       -0.000508461   0.000000000   1.871289545

                       Lattice parameters(A)       Cell Angles
                    a =      9.230465          alpha =   90.000000
                    b =      1.945394          beta  =  151.381735
                    c =      7.010177          gamma =   90.000000

                Current cell volume =            60.293431 A**3

                           -------------------------------
                                     Cell Contents
                           -------------------------------

            xxxxxxxxxxxxxxxxxxxxxxxxxxxxxxxxxxxxxxxxxxxxxxxxxxxxxxxxxxxxxxxxx
            x  Element         Atom        Fractional coordinates of atoms  x
            x                 Number           u          v          w      x
            x---------------------------------------------------------------x
            x  H                 1         0.830090   0.674105   0.096299   x
            x  H                 2         0.169910   0.325895   0.903701   x
            x  H                 3         0.830090   0.825895   0.596299   x
            x  H                 4         0.169910   0.174105   0.403701   x
            x  H                 5         0.886201   0.407508   0.226420   x
            x  H                 6         0.113799   0.592492   0.773580   x
            x  H                 7         0.886201   0.092492   0.726420   x
            x  H                 8         0.113799   0.907508   0.273580   x
            x  H                 9         0.863301   0.131847   0.420213   x
            x  H                10         0.136699   0.868153   0.579787   x
            x  H                11         0.863301   0.368153   0.920213   x
            x  H                12         0.136699   0.631847   0.079787   x
            x  H                13         0.746129   0.906801   0.243887   x
            x  H                14         0.253871   0.093199   0.756113   x
            x  H                15         0.746129   0.593199   0.743887   x
            x  H                16         0.253871   0.406801   0.256113   x
            x  H                17         0.575715   0.381346   0.195474   x
            x  H                18         0.424285   0.618654   0.804526   x
            x  H                19         0.575715   0.118654   0.695474   x
            x  H                20         0.424285   0.881346   0.304526   x
            x  H                21         0.474089   0.608963   0.131743   x
            x  H                22         0.525911   0.391037   0.868257   x
            x  H                23         0.474089   0.891037   0.631743   x
            x  H                24         0.525911   0.108963   0.368257   x
            xxxxxxxxxxxxxxxxxxxxxxxxxxxxxxxxxxxxxxxxxxxxxxxxxxxxxxxxxxxxxxxxx


------------------------------------------------------------------------ <-- SCF
SCF loop      Energy                           Energy gain       Timer   <-- SCF
                                               per atom          (sec)   <-- SCF
------------------------------------------------------------------------ <-- SCF
Initial  -3.64795237E+002                                        863.30  <-- SCF
      1  -3.66046648E+002                    5.21421351E-002     877.60  <-- SCF
      2  -3.66050822E+002                    1.73926545E-004     894.55  <-- SCF
      3  -3.65961461E+002                   -3.72335714E-003     911.52  <-- SCF
      4  -3.65958180E+002                   -1.36709713E-004     928.42  <-- SCF
      5  -3.65958205E+002                    1.04466869E-006     945.39  <-- SCF
      6  -3.65958208E+002                    9.11925426E-008     962.28  <-- SCF
      7  -3.65958208E+002                    4.16599611E-010     979.27  <-- SCF
      8  -3.65958208E+002                    5.66491043E-011     991.31  <-- SCF
      9  -3.65958208E+002                    2.10065118E-012    1003.33  <-- SCF
     10  -3.65958208E+002                   -1.53067584E-013    1015.41  <-- SCF
------------------------------------------------------------------------ <-- SCF
 
Final energy =  -365.9582076843     eV
(energy not corrected for finite basis set)
 

 ******************************** Symmetrised Forces ********************************
 *                                                                                  *
 *                           Cartesian components (eV/A)                            *
 * -------------------------------------------------------------------------------- *
 *                         x                    y                    z              *
 *                                                                                  *
 * H               1     -0.01193             -0.02754              0.02096         *
 * H               2      0.01193              0.02754             -0.02096         *
 * H               3     -0.01193              0.02754              0.02096         *
 * H               4      0.01193             -0.02754             -0.02096         *
 * H               5      0.01057              0.01842             -0.01561         *
 * H               6     -0.01057             -0.01842              0.01561         *
 * H               7      0.01057             -0.01842             -0.01561         *
 * H               8     -0.01057              0.01842              0.01561         *
 * H               9      0.00080             -0.02506             -0.02679         *
 * H              10     -0.00080              0.02506              0.02679         *
 * H              11      0.00080              0.02506             -0.02679         *
 * H              12     -0.00080             -0.02506              0.02679         *
 * H              13      0.00099              0.01874              0.03053         *
 * H              14     -0.00099             -0.01874             -0.03053         *
 * H              15      0.00099             -0.01874              0.03053         *
 * H              16     -0.00099              0.01874             -0.03053         *
 * H              17     -0.02208              0.02098             -0.00838         *
 * H              18      0.02208             -0.02098              0.00838         *
 * H              19     -0.02208             -0.02098             -0.00838         *
 * H              20      0.02208              0.02098              0.00838         *
 * H              21      0.02387             -0.02125              0.01182         *
 * H              22     -0.02387              0.02125             -0.01182         *
 * H              23      0.02387              0.02125              0.01182         *
 * H              24     -0.02387             -0.02125             -0.01182         *
 *                                                                                  *
 ************************************************************************************

 *********** Symmetrised Stress Tensor ***********
 *                                               *
 *          Cartesian components (GPa)           *
 * --------------------------------------------- *
 *             x             y             z     *
 *                                               *
 *  x    -80.474943      0.000000     -0.004035  *
 *  y      0.000000    -79.945315      0.000000  *
 *  z     -0.004035      0.000000    -80.024398  *
 *                                               *
 *  Pressure:   80.1482                          *
 *                                               *
 *************************************************
  
 +------------+-------------+-------------+-----------------+ <-- min LBFGS
 |    Step    |   lambda    |   F.delta'  |    enthalpy     | <-- min LBFGS
 +------------+-------------+-------------+-----------------+ <-- min LBFGS
 |  previous  |    0.000000 |    0.104966 |     -335.836428 | <-- min LBFGS
 | trial step |    1.000000 |   -0.503890 |     -335.556908 | <-- min LBFGS
 |  line step |    0.172399 |    0.015168 |     -335.852453 | <-- min LBFGS
 +------------+-------------+-------------+-----------------+ <-- min LBFGS
  
 LBFGS: finished iteration     2 with enthalpy= -3.35852453E+002 eV
  
 +-----------+-----------------+-----------------+------------+-----+ <-- LBFGS
 | Parameter |      value      |    tolerance    |    units   | OK? | <-- LBFGS
 +-----------+-----------------+-----------------+------------+-----+ <-- LBFGS
 |  dE/ion   |   6.676992E-004 |   1.000000E-009 |         eV | No  | <-- LBFGS
 |  |F|max   |   3.669461E-002 |   1.000000E-005 |       eV/A | No  | <-- LBFGS
 |  |dR|max  |   4.518270E-003 |   1.000000E-005 |          A | No  | <-- LBFGS
 |   Smax    |   4.749431E-001 |   1.000000E-005 |        GPa | No  | <-- LBFGS
 +-----------+-----------------+-----------------+------------+-----+ <-- LBFGS
  

================================================================================
 Starting LBFGS iteration          3 ...
================================================================================
  
 +------------+-------------+-------------+-----------------+ <-- min LBFGS
 |    Step    |   lambda    |   F.delta'  |    enthalpy     | <-- min LBFGS
 +------------+-------------+-------------+-----------------+ <-- min LBFGS
 |  previous  |    0.000000 |    0.012871 |     -335.852453 | <-- min LBFGS
 +------------+-------------+-------------+-----------------+ <-- min LBFGS
  

--------------------------------------------------------------------------------
 LBFGS: starting iteration         3 with trial guess (lambda=  1.000000)
--------------------------------------------------------------------------------

                           -------------------------------
                                      Unit Cell
                           -------------------------------
        Real Lattice(A)              Reciprocal Lattice(1/A)
     9.2381204     0.0000000     0.0025205        0.679796523   0.000000000   1.247036993
     0.0000000     1.9463938     0.0000000        0.000000000   3.228116183   0.000000000
    -6.1597592     0.0000000     3.3578658       -0.000510279   0.000000000   1.870248090

                       Lattice parameters(A)       Cell Angles
                    a =      9.238121          alpha =   90.000000
                    b =      1.946394          beta  =  151.388268
                    c =      7.015547          gamma =   90.000000

                Current cell volume =            60.408072 A**3

                           -------------------------------
                                     Cell Contents
                           -------------------------------

            xxxxxxxxxxxxxxxxxxxxxxxxxxxxxxxxxxxxxxxxxxxxxxxxxxxxxxxxxxxxxxxxx
            x  Element         Atom        Fractional coordinates of atoms  x
            x                 Number           u          v          w      x
            x---------------------------------------------------------------x
            x  H                 1         0.830182   0.673604   0.096465   x
            x  H                 2         0.169818   0.326396   0.903535   x
            x  H                 3         0.830182   0.826396   0.596465   x
            x  H                 4         0.169818   0.173604   0.403535   x
            x  H                 5         0.886212   0.407469   0.226430   x
            x  H                 6         0.113788   0.592531   0.773570   x
            x  H                 7         0.886212   0.092531   0.726430   x
            x  H                 8         0.113788   0.907469   0.273570   x
            x  H                 9         0.863187   0.131304   0.420028   x
            x  H                10         0.136813   0.868696   0.579972   x
            x  H                11         0.863187   0.368696   0.920028   x
            x  H                12         0.136813   0.631304   0.079972   x
            x  H                13         0.746352   0.906967   0.244198   x
            x  H                14         0.253648   0.093033   0.755802   x
            x  H                15         0.746352   0.593033   0.744198   x
            x  H                16         0.253648   0.406967   0.255802   x
            x  H                17         0.575674   0.381630   0.195454   x
            x  H                18         0.424326   0.618370   0.804546   x
            x  H                19         0.575674   0.118370   0.695454   x
            x  H                20         0.424326   0.881630   0.304546   x
            x  H                21         0.474228   0.608671   0.131876   x
            x  H                22         0.525772   0.391329   0.868124   x
            x  H                23         0.474228   0.891329   0.631876   x
            x  H                24         0.525772   0.108671   0.368124   x
            xxxxxxxxxxxxxxxxxxxxxxxxxxxxxxxxxxxxxxxxxxxxxxxxxxxxxxxxxxxxxxxxx


------------------------------------------------------------------------ <-- SCF
SCF loop      Energy                           Energy gain       Timer   <-- SCF
                                               per atom          (sec)   <-- SCF
------------------------------------------------------------------------ <-- SCF
Initial  -3.66013339E+002                                       1026.93  <-- SCF
      1  -3.66016017E+002                    1.11587342E-004    1041.07  <-- SCF
      2  -3.66016026E+002                    3.77510267E-007    1058.15  <-- SCF
      3  -3.66015835E+002                   -7.94625235E-006    1075.10  <-- SCF
      4  -3.66015830E+002                   -2.32464364E-007    1092.19  <-- SCF
      5  -3.66015830E+002                    1.82783238E-009    1109.10  <-- SCF
      6  -3.66015830E+002                    2.18091096E-010    1125.25  <-- SCF
      7  -3.66015830E+002                    4.52153586E-012    1137.24  <-- SCF
      8  -3.66015830E+002                    7.77422201E-013    1149.24  <-- SCF
------------------------------------------------------------------------ <-- SCF
 
Final energy =  -366.0158299468     eV
(energy not corrected for finite basis set)
 

 ******************************** Symmetrised Forces ********************************
 *                                                                                  *
 *                           Cartesian components (eV/A)                            *
 * -------------------------------------------------------------------------------- *
 *                         x                    y                    z              *
 *                                                                                  *
 * H               1     -0.00531             -0.01447              0.00993         *
 * H               2      0.00531              0.01447             -0.00993         *
 * H               3     -0.00531              0.01447              0.00993         *
 * H               4      0.00531             -0.01447             -0.00993         *
 * H               5      0.00365              0.00548             -0.00608         *
 * H               6     -0.00365             -0.00548              0.00608         *
 * H               7      0.00365             -0.00548             -0.00608         *
 * H               8     -0.00365              0.00548              0.00608         *
 * H               9     -0.00069              0.01083              0.02070         *
 * H              10      0.00069             -0.01083             -0.02070         *
 * H              11     -0.00069             -0.01083              0.02070         *
 * H              12      0.00069              0.01083             -0.02070         *
 * H              13      0.00113             -0.01695             -0.01870         *
 * H              14     -0.00113              0.01695              0.01870         *
 * H              15      0.00113              0.01695             -0.01870         *
 * H              16     -0.00113             -0.01695              0.01870         *
 * H              17     -0.00169              0.00451             -0.00085         *
 * H              18      0.00169             -0.00451              0.00085         *
 * H              19     -0.00169             -0.00451             -0.00085         *
 * H              20      0.00169              0.00451              0.00085         *
 * H              21      0.00309             -0.00443              0.00316         *
 * H              22     -0.00309              0.00443             -0.00316         *
 * H              23      0.00309              0.00443              0.00316         *
 * H              24     -0.00309             -0.00443             -0.00316         *
 *                                                                                  *
 ************************************************************************************

 *********** Symmetrised Stress Tensor ***********
 *                                               *
 *          Cartesian components (GPa)           *
 * --------------------------------------------- *
 *             x             y             z     *
 *                                               *
 *  x    -80.182108      0.000000     -0.015071  *
 *  y      0.000000    -79.866948      0.000000  *
 *  z     -0.015071      0.000000    -79.988049  *
 *                                               *
 *  Pressure:   80.0124                          *
 *                                               *
 *************************************************
  
 +------------+-------------+-------------+-----------------+ <-- min LBFGS
 |    Step    |   lambda    |   F.delta'  |    enthalpy     | <-- min LBFGS
 +------------+-------------+-------------+-----------------+ <-- min LBFGS
 |  previous  |    0.000000 |    0.012871 |     -335.852453 | <-- min LBFGS
 | trial step |    1.000000 |   -0.000873 |     -335.852810 | <-- min LBFGS
 +------------+-------------+-------------+-----------------+ <-- min LBFGS
  
 LBFGS: finished iteration     3 with enthalpy= -3.35852810E+002 eV
  
 +-----------+-----------------+-----------------+------------+-----+ <-- LBFGS
 | Parameter |      value      |    tolerance    |    units   | OK? | <-- LBFGS
 +-----------+-----------------+-----------------+------------+-----+ <-- LBFGS
 |  dE/ion   |   1.489370E-005 |   1.000000E-009 |         eV | No  | <-- LBFGS
 |  |F|max   |   2.526578E-002 |   1.000000E-005 |       eV/A | No  | <-- LBFGS
 |  |dR|max  |   1.230067E-003 |   1.000000E-005 |          A | No  | <-- LBFGS
 |   Smax    |   1.821076E-001 |   1.000000E-005 |        GPa | No  | <-- LBFGS
 +-----------+-----------------+-----------------+------------+-----+ <-- LBFGS
  

================================================================================
 Starting LBFGS iteration          4 ...
================================================================================
  
 +------------+-------------+-------------+-----------------+ <-- min LBFGS
 |    Step    |   lambda    |   F.delta'  |    enthalpy     | <-- min LBFGS
 +------------+-------------+-------------+-----------------+ <-- min LBFGS
 |  previous  |    0.000000 |    0.006218 |     -335.852810 | <-- min LBFGS
 +------------+-------------+-------------+-----------------+ <-- min LBFGS
  

--------------------------------------------------------------------------------
 LBFGS: starting iteration         4 with trial guess (lambda=  1.000000)
--------------------------------------------------------------------------------

                           -------------------------------
                                      Unit Cell
                           -------------------------------
        Real Lattice(A)              Reciprocal Lattice(1/A)
     9.2446492     0.0000000     0.0026184        0.679303361   0.000000000   1.246550905
     0.0000000     1.9469305     0.0000000        0.000000000   3.227226316   0.000000000
    -6.1640772     0.0000000     3.3590913       -0.000529523   0.000000000   1.869529773

                       Lattice parameters(A)       Cell Angles
                    a =      9.244650          alpha =   90.000000
                    b =      1.946930          beta  =  151.395758
                    c =      7.019925          gamma =   90.000000

                Current cell volume =            60.490666 A**3

                           -------------------------------
                                     Cell Contents
                           -------------------------------

            xxxxxxxxxxxxxxxxxxxxxxxxxxxxxxxxxxxxxxxxxxxxxxxxxxxxxxxxxxxxxxxxx
            x  Element         Atom        Fractional coordinates of atoms  x
            x                 Number           u          v          w      x
            x---------------------------------------------------------------x
            x  H                 1         0.830390   0.672500   0.096884   x
            x  H                 2         0.169610   0.327500   0.903116   x
            x  H                 3         0.830390   0.827500   0.596884   x
            x  H                 4         0.169610   0.172500   0.403116   x
            x  H                 5         0.886133   0.407753   0.226245   x
            x  H                 6         0.113867   0.592247   0.773755   x
            x  H                 7         0.886133   0.092247   0.726245   x
            x  H                 8         0.113867   0.907753   0.273755   x
            x  H                 9         0.863462   0.131394   0.420439   x
            x  H                10         0.136538   0.868606   0.579561   x
            x  H                11         0.863462   0.368606   0.920439   x
            x  H                12         0.136538   0.631394   0.079561   x
            x  H                13         0.746196   0.906312   0.243932   x
            x  H                14         0.253804   0.093688   0.756068   x
            x  H                15         0.746196   0.593688   0.743932   x
            x  H                16         0.253804   0.406312   0.256068   x
[...]
 ************************************************************************************

 *********** Symmetrised Stress Tensor ***********
 *                                               *
 *          Cartesian components (GPa)           *
 * --------------------------------------------- *
 *             x             y             z     *
 *                                               *
 *  x    -80.000001      0.000000     -0.000003  *
 *  y      0.000000    -79.999995      0.000000  *
 *  z     -0.000003      0.000000    -80.000003  *
 *                                               *
 *  Pressure:   80.0000                          *
 *                                               *
 *************************************************
  
 +------------+-------------+-------------+-----------------+ <-- min LBFGS
 |    Step    |   lambda    |   F.delta'  |    enthalpy     | <-- min LBFGS
 +------------+-------------+-------------+-----------------+ <-- min LBFGS
 |  previous  |    0.000000 |  7.559E-007 |     -335.853089 | <-- min LBFGS
 | trial step |    1.000000 |  2.382E-007 |     -335.853089 | <-- min LBFGS
 |  line step |    1.460062 | -2.303E-008 |     -335.853089 | <-- min LBFGS
 +------------+-------------+-------------+-----------------+ <-- min LBFGS
  
 LBFGS: finished iteration    24 with enthalpy= -3.35853089E+002 eV
  
 +-----------+-----------------+-----------------+------------+-----+ <-- LBFGS
 | Parameter |      value      |    tolerance    |    units   | OK? | <-- LBFGS
 +-----------+-----------------+-----------------+------------+-----+ <-- LBFGS
 |  dE/ion   |   1.217492E-012 |   1.000000E-009 |         eV | Yes | <-- LBFGS
 |  |F|max   |   1.264168E-006 |   1.000000E-005 |       eV/A | Yes | <-- LBFGS
 |  |dR|max  |   2.965899E-006 |   1.000000E-005 |          A | Yes | <-- LBFGS
 |   Smax    |   4.563888E-006 |   1.000000E-005 |        GPa | Yes | <-- LBFGS
 +-----------+-----------------+-----------------+------------+-----+ <-- LBFGS
  
 LBFGS: Geometry optimization completed successfully.

================================================================================
 LBFGS: Final Configuration:
================================================================================

                           -------------------------------
                                      Unit Cell
                           -------------------------------
        Real Lattice(A)              Reciprocal Lattice(1/A)
     9.2479775     0.0000000     0.0021127        0.679126768   0.000000000   1.247798027
     0.0000000     1.9457363     0.0000000        0.000000000   3.229206986   0.000000000
    -6.1664795     0.0000000     3.3561692       -0.000427516   0.000000000   1.871344587

                       Lattice parameters(A)       Cell Angles
                    a =      9.247978          alpha =   90.000000
                    b =      1.945736          beta  =  151.429218
                    c =      7.020637          gamma =   90.000000

                Current cell volume =            60.416679 A**3

                           -------------------------------
                                     Cell Contents
                           -------------------------------

            xxxxxxxxxxxxxxxxxxxxxxxxxxxxxxxxxxxxxxxxxxxxxxxxxxxxxxxxxxxxxxxxx
            x  Element         Atom        Fractional coordinates of atoms  x
            x                 Number           u          v          w      x
            x---------------------------------------------------------------x
            x  H                 1         0.831030   0.670509   0.097257   x
            x  H                 2         0.168970   0.329491   0.902743   x
            x  H                 3         0.831030   0.829491   0.597257   x
            x  H                 4         0.168970   0.170509   0.402743   x
            x  H                 5         0.885682   0.405809   0.226458   x
            x  H                 6         0.114318   0.594191   0.773542   x
            x  H                 7         0.885682   0.094191   0.726458   x
            x  H                 8         0.114318   0.905809   0.273542   x
            x  H                 9         0.863091   0.129923   0.420243   x
            x  H                10         0.136909   0.870077   0.579757   x
            x  H                11         0.863091   0.370077   0.920243   x
            x  H                12         0.136909   0.629923   0.079757   x
            x  H                13         0.746230   0.906199   0.243787   x
            x  H                14         0.253770   0.093801   0.756213   x
            x  H                15         0.746230   0.593801   0.743787   x
            x  H                16         0.253770   0.406199   0.256213   x
            x  H                17         0.575838   0.382931   0.195290   x
            x  H                18         0.424162   0.617069   0.804710   x
            x  H                19         0.575838   0.117069   0.695290   x
            x  H                20         0.424162   0.882931   0.304710   x
            x  H                21         0.474713   0.607854   0.132862   x
            x  H                22         0.525287   0.392146   0.867138   x
            x  H                23         0.474713   0.892146   0.632862   x
            x  H                24         0.525287   0.107854   0.367138   x
            xxxxxxxxxxxxxxxxxxxxxxxxxxxxxxxxxxxxxxxxxxxxxxxxxxxxxxxxxxxxxxxxx


 LBFGS: Final Enthalpy     = -3.35853089E+002 eV
 LBFGS: Final <frequency>  =     704.63551 cm-1
 LBFGS: Final bulk modulus =     209.31004 GPa

 ******************************** Symmetrised Forces ********************************
 *                                                                                  *
 *                           Cartesian components (eV/A)                            *
 * -------------------------------------------------------------------------------- *
 *                         x                    y                    z              *
 *                                                                                  *
 * H               1     -0.00000             -0.00000             -0.00000         *
 * H               2      0.00000              0.00000              0.00000         *
 * H               3     -0.00000              0.00000             -0.00000         *
 * H               4      0.00000             -0.00000              0.00000         *
 * H               5      0.00000              0.00000             -0.00000         *
 * H               6     -0.00000             -0.00000              0.00000         *
 * H               7      0.00000             -0.00000             -0.00000         *
 * H               8     -0.00000              0.00000              0.00000         *
 * H               9     -0.00000              0.00000              0.00000         *
 * H              10      0.00000             -0.00000             -0.00000         *
 * H              11     -0.00000             -0.00000              0.00000         *
 * H              12      0.00000              0.00000             -0.00000         *
 * H              13     -0.00000             -0.00000              0.00000         *
 * H              14      0.00000              0.00000             -0.00000         *
 * H              15     -0.00000              0.00000              0.00000         *
 * H              16      0.00000             -0.00000             -0.00000         *
 * H              17      0.00000             -0.00000             -0.00000         *
 * H              18     -0.00000              0.00000              0.00000         *
 * H              19      0.00000              0.00000             -0.00000         *
 * H              20     -0.00000             -0.00000              0.00000         *
 * H              21      0.00000              0.00000              0.00000         *
 * H              22     -0.00000             -0.00000             -0.00000         *
 * H              23      0.00000             -0.00000              0.00000         *
 * H              24     -0.00000              0.00000             -0.00000         *
 *                                                                                  *
 ************************************************************************************

 *********** Symmetrised Stress Tensor ***********
 *                                               *
 *          Cartesian components (GPa)           *
 * --------------------------------------------- *
 *             x             y             z     *
 *                                               *
 *  x    -80.000001      0.000000     -0.000003  *
 *  y      0.000000    -79.999995      0.000000  *
 *  z     -0.000003      0.000000    -80.000003  *
 *                                               *
 *  Pressure:   80.0000                          *
 *                                               *
 *************************************************

 Pseudo atomic calculation performed for H 1s1

 Converged in 24 iterations to a total energy of -12.4843 eV

Charge spilling parameter for spin component 1 = 0.56%

            Orbital Populations       
     Ion    Atom   Orbital             Charge
  -------------------------------------------
      H     1      S                    0.986
      H     2      S                    0.986
      H     3      S                    0.986
      H     4      S                    0.986
      H     5      S                    1.014
      H     6      S                    1.014
      H     7      S                    1.014
      H     8      S                    1.014
      H     9      S                    1.008
      H    10      S                    1.008
      H    11      S                    1.008
      H    12      S                    1.008
      H    13      S                    0.992
      H    14      S                    0.992
      H    15      S                    0.992
      H    16      S                    0.992
      H    17      S                    1.002
      H    18      S                    1.002
      H    19      S                    1.003
      H    20      S                    1.003
      H    21      S                    0.997
      H    22      S                    0.997
      H    23      S                    0.997
      H    24      S                    0.997
  -------------------------------------------
                           Total:      24.000
  -------------------------------------------

     Atomic Populations (Mulliken)
     -----------------------------
Species          Ion     s      p      d      f     Total  Charge (e)
=====================================================================
  H               1     0.99   0.00   0.00   0.00   0.99     0.01
  H               2     0.99   0.00   0.00   0.00   0.99     0.01
  H               3     0.99   0.00   0.00   0.00   0.99     0.01
  H               4     0.99   0.00   0.00   0.00   0.99     0.01
  H               5     1.01   0.00   0.00   0.00   1.01    -0.01
  H               6     1.01   0.00   0.00   0.00   1.01    -0.01
  H               7     1.01   0.00   0.00   0.00   1.01    -0.01
  H               8     1.01   0.00   0.00   0.00   1.01    -0.01
  H               9     1.01   0.00   0.00   0.00   1.01    -0.01
  H              10     1.01   0.00   0.00   0.00   1.01    -0.01
  H              11     1.01   0.00   0.00   0.00   1.01    -0.01
  H              12     1.01   0.00   0.00   0.00   1.01    -0.01
  H              13     0.99   0.00   0.00   0.00   0.99     0.01
  H              14     0.99   0.00   0.00   0.00   0.99     0.01
  H              15     0.99   0.00   0.00   0.00   0.99     0.01
  H              16     0.99   0.00   0.00   0.00   0.99     0.01
  H              17     1.00   0.00   0.00   0.00   1.00    -0.00
  H              18     1.00   0.00   0.00   0.00   1.00    -0.00
  H              19     1.00   0.00   0.00   0.00   1.00    -0.00
  H              20     1.00   0.00   0.00   0.00   1.00    -0.00
  H              21     1.00   0.00   0.00   0.00   1.00     0.00
  H              22     1.00   0.00   0.00   0.00   1.00     0.00
  H              23     1.00   0.00   0.00   0.00   1.00     0.00
  H              24     1.00   0.00   0.00   0.00   1.00     0.00
=====================================================================

                 Bond                   Population      Length (A)
======================================================================
              H 2  -- H 6                    1.39        0.73365
              H 3  -- H 7                    1.39        0.73365
              H 1  -- H 5                    1.39        0.73365
              H 4  -- H 8                    1.39        0.73365
              H 17 -- H 21                   1.39        0.73368
              H 19 -- H 23                   1.39        0.73368
              H 18 -- H 22                   1.39        0.73368
              H 20 -- H 24                   1.39        0.73368
              H 11 -- H 15                   1.37        0.73523
              H 10 -- H 14                   1.37        0.73523
              H 9  -- H 13                   1.37        0.73523
              H 12 -- H 16                   1.37        0.73523
              H 7  -- H 12                  -0.10        1.49806
              H 6  -- H 9                   -0.10        1.49806
              H 5  -- H 10                  -0.10        1.49806
              H 8  -- H 11                  -0.10        1.49806
              H 12 -- H 20                  -0.14        1.55707
              H 9  -- H 17                  -0.14        1.55707
              H 10 -- H 18                  -0.14        1.55707
              H 11 -- H 19                  -0.14        1.55707
              H 14 -- H 18                  -0.11        1.58652
              H 16 -- H 20                  -0.11        1.58652
              H 15 -- H 19                  -0.11        1.58652
              H 13 -- H 17                  -0.11        1.58652
              H 21 -- H 24                  -0.14        1.58722
              H 22 -- H 23                  -0.14        1.58722
              H 16 -- H 19                  -0.11        1.60107
              H 14 -- H 17                  -0.11        1.60107
              H 13 -- H 18                  -0.11        1.60107
              H 15 -- H 20                  -0.11        1.60107
              H 13 -- H 22                  -0.11        1.60349
              H 15 -- H 24                  -0.11        1.60349
              H 16 -- H 23                  -0.11        1.60349
              H 14 -- H 21                  -0.11        1.60349
              H 4  -- H 18                  -0.13        1.60950
              H 1  -- H 19                  -0.13        1.60950
              H 3  -- H 17                  -0.13        1.60950
              H 2  -- H 20                  -0.13        1.60950
              H 1  -- H 11                  -0.07        1.61903
              H 3  -- H 9                   -0.07        1.61903
              H 4  -- H 10                  -0.07        1.61903
              H 2  -- H 12                  -0.07        1.61903
              H 6  -- H 10                  -0.14        1.63768
              H 8  -- H 12                  -0.14        1.63768
              H 7  -- H 11                  -0.14        1.63768
              H 5  -- H 9                   -0.14        1.63768
              H 6  -- H 21                  -0.06        1.64466
              H 7  -- H 24                  -0.06        1.64466
              H 8  -- H 23                  -0.06        1.64466
              H 5  -- H 22                  -0.06        1.64466
              H 2  -- H 9                   -0.18        1.67232
              H 3  -- H 12                  -0.18        1.67232
              H 1  -- H 10                  -0.18        1.67232
              H 4  -- H 11                  -0.18        1.67232
              H 4  -- H 22                  -0.15        1.67444
              H 1  -- H 23                  -0.15        1.67444
              H 3  -- H 21                  -0.15        1.67444
              H 2  -- H 24                  -0.15        1.67444
              H 2  -- H 21                  -0.05        1.69548
              H 3  -- H 24                  -0.05        1.69548
              H 1  -- H 22                  -0.05        1.69548
              H 4  -- H 23                  -0.05        1.69548
              H 5  -- H 13                  -0.13        1.70252
              H 7  -- H 15                  -0.13        1.70252
              H 6  -- H 14                  -0.13        1.70252
              H 8  -- H 16                  -0.13        1.70252
              H 4  -- H 5                   -0.13        1.70581
              H 1  -- H 8                   -0.13        1.70581
              H 3  -- H 6                   -0.13        1.70581
              H 2  -- H 7                   -0.13        1.70581
              H 17 -- H 18                  -0.08        1.71416
              H 19 -- H 20                  -0.08        1.71416
              H 11 -- H 12                  -0.04        1.71496
              H 9  -- H 10                  -0.04        1.71496
              H 17 -- H 24                  -0.16        1.71793
              H 19 -- H 22                  -0.16        1.71793
              H 20 -- H 21                  -0.16        1.71793
              H 18 -- H 23                  -0.16        1.71793
              H 2  -- H 14                  -0.15        1.81678
              H 3  -- H 15                  -0.15        1.81678
              H 1  -- H 13                  -0.15        1.81678
              H 4  -- H 16                  -0.15        1.81678
              H 4  -- H 14                  -0.09        1.83773
              H 1  -- H 15                  -0.09        1.83773
              H 3  -- H 13                  -0.09        1.83773
              H 2  -- H 16                  -0.09        1.83773
              H 1  -- H 4                   -0.15        1.88159
              H 2  -- H 3                   -0.15        1.88159
              H 7  -- H 16                  -0.13        1.88448
              H 5  -- H 14                  -0.13        1.88448
              H 6  -- H 13                  -0.13        1.88448
              H 8  -- H 15                  -0.13        1.88448
              H 20 -- H 23                  -0.07        1.90651
              H 18 -- H 21                  -0.07        1.90651
              H 17 -- H 22                  -0.07        1.90651
              H 19 -- H 24                  -0.07        1.90651
              H 10 -- H 13                  -0.07        1.91145
              H 12 -- H 15                  -0.07        1.91145
              H 11 -- H 16                  -0.07        1.91145
              H 9  -- H 14                  -0.07        1.91145
              H 5  -- H 19                  -0.13        1.91418
              H 7  -- H 17                  -0.13        1.91418
              H 8  -- H 18                  -0.13        1.91418
              H 6  -- H 20                  -0.13        1.91418
======================================================================


Writing analysis data to P21c.castep_bin

Writing model to P21c.check
 
 A BibTeX formatted list of references used in this run has been written to 
 P21c.bib
 
Initialisation time =      3.78 s
Calculation time    =   5705.43 s
Finalisation time   =     14.32 s
Total time          =   5723.53 s
Peak Memory Use     = 648052 kB
  
Overall parallel efficiency rating: Excellent (97%)                             
  
Data was distributed by:-
k-point (16-way); efficiency rating: Excellent (97%)                            
