 +-------------------------------------------------+
 |                                                 |
 |      CCC   AA    SSS  TTTTT  EEEEE  PPPP        |
 |     C     A  A  S       T    E      P   P       |
 |     C     AAAA   SS     T    EEE    PPPP        |
 |     C     A  A     S    T    E      P           |
 |      CCC  A  A  SSS     T    EEEEE  P           |
 |                                                 |
 +-------------------------------------------------+
 |                                                 |
 | Welcome to Academic Release CASTEP version 18.1 |          
 | Ab Initio Total Energy Program                  |
 |                                                 |
 | Authors:                                        |
 | M. Segall, M. Probert, C. Pickard, P. Hasnip,   |
 | S. Clark, K. Refson, J. R. Yates, M. Payne      |
 |                                                 |
 | Contributors:                                   |
 | P. Lindan, P. Haynes, J. White, V. Milman,      |
 | N. Govind, M. Gibson, P. Tulip, V. Cocula,      |
 | B. Montanari, D. Quigley, M. Glover,            |
 | L. Bernasconi, A. Perlov, M. Plummer,           |
 | E. McNellis, J. Meyer, J. Gale, D. Jochym       |
 | J. Aarons, B. Walker, R. Gillen, D. Jones       |
 | T. Green, I. J. Bush, C. J. Armstrong,          |
 | E. J. Higgins, E. L. Brown, M. S. McFly,        |
 | J. Wilkins, B-C. Shih, P. J. P. Byrne           |
 |                                                 |
 | Copyright (c) 2000 - 2017                       |
 |                                                 |
 |     Distributed under the terms of an           |
 |     Agreement between the United Kingdom        |
 |     Car-Parrinello (UKCP) Consortium,           |
 |     Daresbury Laboratory and Accelrys, Inc.     |
 |                                                 |
 | Please cite                                     |
 |                                                 |
 |     "First principles methods using CASTEP"     |
 |                                                 |
 |         Zeitschrift fuer Kristallographie       |
 |           220(5-6) pp. 567-570 (2005)           |
 |                                                 |
 | S. J. Clark, M. D. Segall, C. J. Pickard,       |
 | P. J. Hasnip, M. J. Probert, K. Refson,         |
 | M. C. Payne                                     |
 |                                                 |
 |       in all publications arising from          |
 |              your use of CASTEP                 |
 |                                                 |
 +-------------------------------------------------+


 Compiled for linux_x86_64_gfortran4.8 on Thu, 19 Jul 2018 15:42:32 +0100
 from code version 70483bd0ad64+  Sun, 10 Dec 2017 12:18:29 +0000
 Compiler: GNU Fortran 4.8.5; Optimisation: fast
 MATHLIBS: Intel MKL(2018.0.0) (LAPACK version 3.7.0)
 FFT Lib : mkl
 Fundamental constants values: CODATA 2014

 Run started: Sat, 08 Aug 2020 13:27:30 +0100
 +-------------------------------------------------+
 |                                                 |
 |  D D D D    F F F F F  P P P P     T T T T T    |
 |  D       D  F          P       P       T        |
 |  D       D  F F F F    P P P P         T        |
 |  D       D  F          P               T        |
 |  D D D D    F          P               T        |
 |                                                 |
 +-------------------------------------------------+
 |                                                 |
 | Welcome to Castep Linear Response (DFPT)        |
 |                                                 |
 | Copyright (c) 2006 - 2017                       |
 |                                                 |
 | Please cite the following publications in all   |
 | work arising from your use of CASTEP LR.        |
 |                                                 |
 | K. Refson, S. J. Clark and P. R. Tulip          |
 | Variational density functional perturbation     |
 | theory for dielectrics and lattice dynamics     |
 | Phys. Rev. B 73(15), 155114 (2006)              |
 +-------------------------------------------------+


 Atomic calculation performed for H: 1s1

 Converged in 41 iterations to an ae energy of -12.488 eV

   ============================================================                
   | Pseudopotential Report - Date of generation  8-08-2020   |                
   ------------------------------------------------------------                
   | Element: H Ionic charge:  1.00 Level of theory: PBE      |                
   | Atomic Solver: Koelling-Harmon                           |                
   |                                                          |                
   |               Reference Electronic Structure             |                
   |         Orbital         Occupation         Energy        |                
   |            1s              1.000           -0.239        |                
   |                                                          |                
   |                 Pseudopotential Definition               |                
   |        Beta     l      e      Rc     scheme   norm       |                
   |         loc     0   -0.239   0.702     qc      1         |                
   |                                                          |                
   | No charge augmentation                                   |                
   | No partial core correction                               |                
   ------------------------------------------------------------                
   | "0|0.7|2|6|8|10L(qc=10)"                                 |                
   ------------------------------------------------------------                
   |      Author: Chris J. Pickard, Cambridge University      |                
   ============================================================                

 Pseudo atomic calculation performed for H 1s1

 Converged in 24 iterations to a total energy of -12.4843 eV

 Calculation parallelised over 8 processes.
 Data is distributed by G-vector(8-way)

 ************************************ Title ************************************
 

 ***************************** General Parameters ******************************
  
 output verbosity                               : normal  (1)
 write checkpoint data to                       : Cmca-12.check
 type of calculation                            : phonon calculation
 stress calculation                             : on
 density difference calculation                 : off
 electron localisation func (ELF) calculation   : off
 Hirshfeld analysis                             : off
 unlimited duration calculation
 timing information                             : on
 memory usage estimate                          : on
 write extra output files                       : on
 write final potential to formatted file        : off
 write final density to formatted file          : off
 write structure in CELL formatted file         : on
 write BibTeX reference list                    : on
 write OTFG pseudopotential files               : on
 write electrostatic potential file             : on
 write bands file                               : on
 checkpoint writing                             : both castep_bin and check files
  
 output         length unit                     : A
 output           mass unit                     : amu
 output           time unit                     : ps
 output         charge unit                     : e
 output           spin unit                     : hbar/2
 output         energy unit                     : eV
 output          force unit                     : eV/A
 output       velocity unit                     : A/ps
 output       pressure unit                     : GPa
 output     inv_length unit                     : 1/A
 output      frequency unit                     : cm-1
 output force constant unit                     : eV/A**2
 output         volume unit                     : A**3
 output   IR intensity unit                     : (D/A)**2/amu
 output         dipole unit                     : D
 output         efield unit                     : eV/A/e
 output        entropy unit                     : J/mol/K
  
 wavefunctions paging                           : none
 random number generator seed                   : randomised (132730568)
 data distribution                              : optimal for this architecture
 optimization strategy                          : maximize speed(+++)

 *********************** Exchange-Correlation Parameters ***********************
  
 using functional                               : Perdew Burke Ernzerhof
 relativistic treatment                         : Koelling-Harmon
 DFT+D: Semi-empirical dispersion correction    : off

 ************************* Pseudopotential Parameters **************************
  
 pseudopotential representation                 : reciprocal space
 <beta|phi> representation                      : reciprocal space
 spin-orbit coupling                            : off

 **************************** Basis Set Parameters *****************************
  
 plane wave basis set cut-off                   :  1200.0000   eV
 size of standard grid                          :     2.0000
 size of   fine   gmax                          :    35.4943   1/A
 finite basis set correction                    : automatic
 number of sample energies                      :          3
           sample  spacing                      :     5.0000   eV

 **************************** Electronic Parameters ****************************
  
 number of  electrons                           :  24.00    
 net charge of system                           :  0.000    
 treating system as non-spin-polarized
 number of bands                                :         12

 ********************* Electronic Minimization Parameters **********************
  
 Method: Treating system as non-metallic,
         and number of  SD  steps               :          1
         and number of  CG  steps               :          4
  
 total energy / atom convergence tol.           : 0.1000E-10   eV
 eigen-energy convergence tolerance             : 0.2000E-10   eV
 max force / atom convergence tol.              : ignored
 convergence tolerance window                   :          3   cycles
 max. number of SCF cycles                      :        100
 periodic dipole correction                     : NONE

 ************************** Density Mixing Parameters **************************
  
 density-mixing scheme                          : Broyden
 max. length of mixing history                  :         20
 charge density mixing amplitude                : 0.8000    
 cut-off energy for mixing                      :  1200.       eV

 *********************** Population Analysis Parameters ************************
  
 Population analysis with cutoff                :  3.000       A
 Population analysis output                     : summary and pdos components

 ****************************** Phonon Parameters ******************************
  
 phonon calculation method                      : linear response
 phonon convergence tolerance                   : 0.1000E-04   eV/A**2
 max. number of phonon cycles                   :         50
 max. number of phonon CG steps                 :          0
 convergence tolerance window                   :          2   cycles
 DFPT solver method                             : AllBands (Gonze variational method)
 preconditioning scheme                         : TPA     
 fine phonon calculation method                 : interpolation
 non-periodic force constant method             : Weighted cumulant sum
 LO/TO splitting term                           : included
 acoustic phonon sum rule                       : correct D(q) in recip-space
 Born effective charges                         : calculated
 Born charge sum rule                           : explicitly enforced
 Raman intensities                              : calculated
 Raman frequency window start                   :  0.000       eV
 Raman frequency window stop                    :  1.000       eV
 Raman tensor calculated using                  : finite displacement method
 phonon k-points                                : use reduced set
 phonon DOS                                     : not calculated
 backups results every                          :      14400   seconds
 band convergence tolerance                     : 0.1000E-08   eV

 *******************************************************************************
  

                           -------------------------------
                                      Unit Cell
                           -------------------------------
        Real Lattice(A)                      Reciprocal Lattice(1/A)
     2.9683437     0.0000000     0.0000000        2.116731077  -0.000000000   0.000000000
     0.0000000     8.9050026     0.0000000       -0.000000000   0.705579276   0.000000000
     0.0000000     0.0000000     2.9922408        0.000000000   0.000000000   2.099826119

                       Lattice parameters(A)       Cell Angles
                    a =      2.968344          alpha =   90.000000
                    b =      8.905003          beta  =   90.000000
                    c =      2.992241          gamma =   90.000000

                       Current cell volume =            79.094224       A**3
                                   density =             0.305845   AMU/A**3
                                           =             0.507867     g/cm^3

                           -------------------------------
                                     Cell Contents
                           -------------------------------
                         Total number of ions in cell =   24
                      Total number of species in cell =    1
                        Max number of any one species =   24

            xxxxxxxxxxxxxxxxxxxxxxxxxxxxxxxxxxxxxxxxxxxxxxxxxxxxxxxxxxxx
            x  Element    Atom        Fractional coordinates of atoms  x
            x            Number           u          v          w      x
            x----------------------------------------------------------x
            x  H            1         0.000000   0.000000   0.122956   x 
            x  H            2        -0.000000   0.166667   0.377044   x 
            x  H            3        -0.000000   0.333333   0.122956   x 
            x  H            4         0.500000   0.333333   0.377044   x 
            x  H            5         0.500000   0.166667   0.122956   x 
            x  H            6         0.500000   0.000000   0.377044   x 
            x  H            7         0.500000   0.166667   0.877044   x 
            x  H            8         0.500000   0.333333   0.622956   x 
            x  H            9         0.500000   0.500000   0.877044   x 
            x  H           10         0.500000   0.666667   0.622956   x 
            x  H           11         0.500000   0.833333   0.877044   x 
            x  H           12         0.500000   1.000000   0.622956   x 
            x  H           13         0.500000   0.833333   0.122956   x 
            x  H           14         0.500000   0.666667   0.377044   x 
            x  H           15         0.500000   0.500000   0.122956   x 
            x  H           16        -0.000000   0.833333   0.377044   x 
            x  H           17        -0.000000   0.666667   0.122956   x 
            x  H           18        -0.000000   0.500000   0.377044   x 
            x  H           19         0.000000   0.666667   0.877044   x 
            x  H           20         0.000000   0.833333   0.622956   x 
            x  H           21         0.000000   1.000000   0.877044   x 
            x  H           22        -0.000000   0.166667   0.622956   x 
            x  H           23         0.000000   0.333333   0.877044   x 
            x  H           24         0.000000   0.500000   0.622956   x 
            xxxxxxxxxxxxxxxxxxxxxxxxxxxxxxxxxxxxxxxxxxxxxxxxxxxxxxxxxxxx


                         No user defined ionic velocities

                           -------------------------------
                                   Details of Species
                           -------------------------------

                               Mass of species in AMU
                                    H    1.0078250

                          Electric Quadrupole Moment (Barn)
                                    H    0.0028600 Isotope  2

                          Files used for pseudopotentials:
                                    H 0|0.7|2|6|8|10L(qc=10)

                           -------------------------------
                              k-Points For BZ Sampling
                           -------------------------------
                       MP grid size for SCF calculation is 10 10 10
                            with an offset of   0.000  0.000  0.000
                       Number of kpoints used =           125

                           -------------------------------
                               Symmetry and Constraints
                           -------------------------------

                      Cell is a supercell containing 12 primitive cells
                      Maximum deviation from symmetry = 0.939221E-14     ANG

                      Number of symmetry operations   =          16
                      Number of ionic constraints     =           3
                      Point group of crystal =     8: D2h, mmm, 2/m 2/m 2/m
                      Space group of crystal =   139: I4/mmm, -I 4 2

             Set iprint > 1 for details on symmetry rotations/translations

                         Centre of mass is constrained
             Set iprint > 1 for details of linear ionic constraints

                         Number of cell constraints= 3
                         Cell constraints are:  1 2 3 0 0 0

                         External pressure/stress (GPa)
                         40.00000   0.00000   0.00000
                                   40.00000   0.00000
                                             40.00000
  
+---------------- MEMORY AND SCRATCH DISK ESTIMATES PER PROCESS --------------+
|                                                     Memory          Disk    |
| Baseline code, static data and system overhead      383.0 MB         0.0 MB |
| BLAS internal memory storage                          0.0 MB         0.0 MB |
| Model and support data                               84.0 MB         0.0 MB |
| Electronic energy minimisation requirements          49.6 MB         0.0 MB |
| Force calculation requirements                        2.9 MB         0.0 MB |
| Stress calculation requirements                       3.5 MB         0.0 MB |
|                                               ----------------------------- |
| Approx. total storage required per process          516.6 MB         0.0 MB |
|                                                                             |
| Requirements will fluctuate during execution and may exceed these estimates |
+-----------------------------------------------------------------------------+
Calculating finite basis set correction with  3 cut-off energies.
Calculating total energy with cut-off of 1190.000 eV.
------------------------------------------------------------------------ <-- SCF
SCF loop      Energy                           Energy gain       Timer   <-- SCF
                                               per atom          (sec)   <-- SCF
------------------------------------------------------------------------ <-- SCF
Initial   6.32200971E+002                                          4.10  <-- SCF
      1  -2.96146804E+002                    3.86811573E+001      20.83  <-- SCF
      2  -3.73708362E+002                    3.23173159E+000      32.79  <-- SCF
      3  -3.75069673E+002                    5.67213198E-002      43.30  <-- SCF
      4  -3.72337399E+002                   -1.13844775E-001      59.49  <-- SCF
      5  -3.72258058E+002                   -3.30586311E-003      75.89  <-- SCF
      6  -3.72263237E+002                    2.15804032E-004      92.67  <-- SCF
      7  -3.72263890E+002                    2.71972215E-005     109.36  <-- SCF
      8  -3.72263893E+002                    1.08598301E-007     126.09  <-- SCF
      9  -3.72263893E+002                    1.01689200E-008     142.59  <-- SCF
     10  -3.72263893E+002                   -2.36449136E-012     153.95  <-- SCF
     11  -3.72263893E+002                    5.09755334E-012     165.40  <-- SCF
------------------------------------------------------------------------ <-- SCF
 
Final energy =  -372.2638929440     eV
(energy not corrected for finite basis set)
 
Calculating total energy with cut-off of 1195.000 eV.
------------------------------------------------------------------------ <-- SCF
SCF loop      Energy                           Energy gain       Timer   <-- SCF
                                               per atom          (sec)   <-- SCF
------------------------------------------------------------------------ <-- SCF
Initial  -3.72263893E+002                                        170.36  <-- SCF
      1  -3.72265573E+002                    7.00122684E-005     184.64  <-- SCF
      2  -3.72265573E+002                    5.42785708E-011     199.87  <-- SCF
      3  -3.72265574E+002                    3.56861986E-008     216.17  <-- SCF
      4  -3.72265574E+002                    2.30918562E-009     233.06  <-- SCF
      5  -3.72265574E+002                    3.46758498E-011     244.57  <-- SCF
      6  -3.72265574E+002                    1.73208055E-012     256.45  <-- SCF
      7  -3.72265574E+002                    1.20842829E-014     268.22  <-- SCF
------------------------------------------------------------------------ <-- SCF
 
Final energy =  -372.2655741525     eV
(energy not corrected for finite basis set)
 
Calculating total energy with cut-off of 1200.000 eV.
------------------------------------------------------------------------ <-- SCF
SCF loop      Energy                           Energy gain       Timer   <-- SCF
                                               per atom          (sec)   <-- SCF
------------------------------------------------------------------------ <-- SCF
Initial  -3.72265574E+002                                        273.08  <-- SCF
      1  -3.72267198E+002                    6.76796657E-005     288.54  <-- SCF
      2  -3.72267198E+002                    5.39744497E-011     304.40  <-- SCF
      3  -3.72267199E+002                    3.43748263E-008     321.47  <-- SCF
      4  -3.72267199E+002                    2.11240315E-009     338.01  <-- SCF
      5  -3.72267199E+002                    3.15661610E-011     349.72  <-- SCF
      6  -3.72267199E+002                    1.44608586E-012     361.51  <-- SCF
      7  -3.72267199E+002                    1.02716405E-013     373.43  <-- SCF
------------------------------------------------------------------------ <-- SCF
 
Final energy =  -372.2671993423     eV
(energy not corrected for finite basis set)
 
 For future reference: finite basis dEtot/dlog(Ecut) =      -0.396253eV
 Total energy corrected for finite basis set =    -372.267209 eV

 Efield perturbation    1:  X                                           397.48s
  +---------------- MEMORY AND SCRATCH DISK ESTIMATES PER PROCESS --------------+
  |                                                     Memory          Disk    |
  | Baseline code, static data and system overhead      383.0 MB         0.0 MB |
  | BLAS internal memory storage                          0.0 MB         0.0 MB |
  | Model and support data                               84.3 MB         0.0 MB |
  | DFPT E-field response requirements                  155.9 MB         0.0 MB |
  |                                               ----------------------------- |
  | Approx. total storage required per process          623.2 MB         0.0 MB |
  |                                                                             |
  | Requirements will fluctuate during execution and may exceed these estimates |
  +-----------------------------------------------------------------------------+

 Efield perturbation    2:  Y                                           630.88s

 Efield perturbation    3:  Z                                           868.20s
 Perturbation    1 (of    9): H     1 X at q=( 0.000, 0.000, 0.000):   1136.07s
  Parallel strategy changed for perturbation using 500 k-points
  Data is distributed by G-vector(1-way) and k-point(8-way) and band(1-way)
  +---------------- MEMORY AND SCRATCH DISK ESTIMATES PER PROCESS --------------+
  |                                                     Memory          Disk    |
  | Baseline code, static data and system overhead      383.0 MB         0.0 MB |
  | BLAS internal memory storage                          0.0 MB         0.0 MB |
  | Model and support data                               84.3 MB         0.0 MB |
  | DFPT phonon calculation requirements                879.5 MB         0.0 MB |
  |                                               ----------------------------- |
  | Approx. total storage required per process         1346.8 MB         0.0 MB |
  |                                                                             |
  | Requirements will fluctuate during execution and may exceed these estimates |
  +-----------------------------------------------------------------------------+
 Perturbation    2 (of    9): H     2 X at q=( 0.000, 0.000, 0.000):   1877.42s
 Perturbation    3 (of    9): H     3 X at q=( 0.000, 0.000, 0.000):   2558.51s
 Perturbation    4 (of    9): H     1 Y at q=( 0.000, 0.000, 0.000):   3240.26s
  Parallel strategy changed for perturbation using 250 k-points
  Data is distributed by G-vector(1-way) and k-point(8-way) and band(1-way)
 Perturbation    5 (of    9): H     2 Y at q=( 0.000, 0.000, 0.000):   3649.74s
 Perturbation    6 (of    9): H     3 Y at q=( 0.000, 0.000, 0.000):   4044.39s
 Perturbation    7 (of    9): H     1 Z at q=( 0.000, 0.000, 0.000):   4430.52s
 Perturbation    8 (of    9): H     2 Z at q=( 0.000, 0.000, 0.000):   4825.36s
 Perturbation    9 (of    9): H     3 Z at q=( 0.000, 0.000, 0.000):   5211.92s

 Phonon calculation: q-point   1 (of    1) ( 0.000, 0.000, 0.000):     5600.13s
 -------------------------------------------------------------------------------
 
 ==============================================================================
 +                           Vibrational Frequencies                          +
 +                           -----------------------                          +
 +                                                                            +
 + Performing frequency calculation at  1 wavevector  (q-pt )                 +
 + ========================================================================== +
 +                                                                            +
 +============================================================================+
 +                       Raman Intensity Progress Report                      +
 +----------------------------------------------------------------------------+
 + RAMAN: Not a continuation; generating Raman intensities from beginning     +
 +----------------------------------------------------------------------------+
 + Mode     1: not Raman active; calculation not required                     +
 + Mode     2: not Raman active; calculation not required                     +
 + Mode     3: not Raman active; calculation not required                     +
 + Mode     4: not Raman active; calculation not required                     +
 + Mode     5: not Raman active; calculation not required                     +
 + Mode     6: not Raman active; calculation not required                     +
 + Mode     7: frequency out of range; calculation not required               +
 + Mode     8: frequency out of range; calculation not required               +
 + Mode     9: not Raman active; calculation not required                     +
 + Mode    10: frequency out of range; calculation not required               +
 + Mode    11: not Raman active; calculation not required                     +
 + Mode    12: not Raman active; calculation not required                     +
 + Mode    13: not Raman active; calculation not required                     +
 + Mode    14: not Raman active; calculation not required                     +
 + Mode    15: not Raman active; calculation not required                     +
 + Mode    16: not Raman active; calculation not required                     +
 + Mode    17: not Raman active; calculation not required                     +
 + Mode    18: performing Raman intensity calculation                         +

 Efield perturbation    1:  X                                          5955.43s

 Efield perturbation    2:  Y                                          6336.42s

 Efield perturbation    3:  Z                                          6803.95s

 Efield perturbation    1:  X                                          7437.57s

 Efield perturbation    2:  Y                                          7826.87s

 Efield perturbation    3:  Z                                          8299.92s
 + Mode number:  18 completed;                   time taken:  2997.68 seconds +
 + Mode    19: performing Raman intensity calculation                         +

 Efield perturbation    1:  X                                          8946.26s

 Efield perturbation    2:  Y                                          9546.61s

 Efield perturbation    3:  Z                                          9862.19s

 Efield perturbation    1:  X                                         10527.01s

 Efield perturbation    2:  Y                                         11110.89s

 Efield perturbation    3:  Z                                         11412.84s
 + Mode number:  19 completed;                   time taken:  3119.52 seconds +
 + Mode    20: not Raman active; calculation not required                     +
 + Mode    21: not Raman active; calculation not required                     +
 + Mode    22: not Raman active; calculation not required                     +
 + Mode    23: not Raman active; calculation not required                     +
 + Mode    24: not Raman active; calculation not required                     +
 + Mode    25: not Raman active; calculation not required                     +
 + Mode    26: not Raman active; calculation not required                     +
 + Mode    27: performing Raman intensity calculation                         +

 Efield perturbation    1:  X                                         11950.54s

 Efield perturbation    2:  Y                                         12195.29s

 Efield perturbation    3:  Z                                         12439.20s

 Efield perturbation    1:  X                                         12890.67s

 Efield perturbation    2:  Y                                         13132.79s

 Efield perturbation    3:  Z                                         13374.68s
 + Mode number:  27 completed;                   time taken:  1888.08 seconds +
 + Mode    28: not Raman active; calculation not required                     +
 + Mode    29: not Raman active; calculation not required                     +
 + Mode    30: not Raman active; calculation not required                     +
 + Mode    31: performing Raman intensity calculation                         +

 Efield perturbation    1:  X                                         13957.66s

 Efield perturbation    2:  Y                                         14554.43s

 Efield perturbation    3:  Z                                         14848.02s

 Efield perturbation    1:  X                                         15478.88s

 Efield perturbation    2:  Y                                         16067.15s

 Efield perturbation    3:  Z                                         16358.08s
 + Mode number:  31 completed;                   time taken:  3048.07 seconds +
 + Mode    32: performing Raman intensity calculation                         +

 Efield perturbation    1:  X                                         17000.32s

 Efield perturbation    2:  Y                                         17392.17s

 Efield perturbation    3:  Z                                         17878.61s

 Efield perturbation    1:  X                                         18510.10s

 Efield perturbation    2:  Y                                         18899.20s

 Efield perturbation    3:  Z                                         19386.90s
 + Mode number:  32 completed;                   time taken:  3022.56 seconds +
 + Mode    33: not Raman active; calculation not required                     +
 + Mode    34: not Raman active; calculation not required                     +
 + Mode    35: not Raman active; calculation not required                     +
 + Mode    36: performing Raman intensity calculation                         +

 Efield perturbation    1:  X                                         20021.12s

 Efield perturbation    2:  Y                                         20605.77s

 Efield perturbation    3:  Z                                         20901.56s

 Efield perturbation    1:  X                                         21530.71s

 Efield perturbation    2:  Y                                         22118.89s

 Efield perturbation    3:  Z                                         22415.44s
 + Mode number:  36 completed;                   time taken:  3045.53 seconds +
 + Checkpointing.....                                                         +

Writing analysis data to Cmca-12.castep_bin

Writing model to Cmca-12.check
 + Mode    37: not Raman active; calculation not required                     +
 + Mode    38: not Raman active; calculation not required                     +
 + Mode    39: not Raman active; calculation not required                     +
 + Mode    40: not Raman active; calculation not required                     +
 + Mode    41: not Raman active; calculation not required                     +
 + Mode    42: performing Raman intensity calculation                         +

 Efield perturbation    1:  X                                         23080.56s

 Efield perturbation    2:  Y                                         23492.27s

 Efield perturbation    3:  Z                                         24010.33s

 Efield perturbation    1:  X                                         24644.72s

 Efield perturbation    2:  Y                                         25050.06s

 Efield perturbation    3:  Z                                         25557.45s
 + Mode number:  42 completed;                   time taken:  3129.87 seconds +
 + Mode    43: not Raman active; calculation not required                     +
 + Mode    44: performing Raman intensity calculation                         +

 Efield perturbation    1:  X                                         26088.99s

 Efield perturbation    2:  Y                                         26339.49s

 Efield perturbation    3:  Z                                         26588.70s

 Efield perturbation    1:  X                                         27046.26s

 Efield perturbation    2:  Y                                         27300.86s

 Efield perturbation    3:  Z                                         27556.62s
 + Mode number:  44 completed;                   time taken:  1936.83 seconds +
 + Mode    45: not Raman active; calculation not required                     +
 + Mode    46: not Raman active; calculation not required                     +
 + Mode    47: not Raman active; calculation not required                     +
 + Mode    48: not Raman active; calculation not required                     +
 + Mode    49: not Raman active; calculation not required                     +
 + Mode    50: not Raman active; calculation not required                     +
 + Mode    51: not Raman active; calculation not required                     +
 + Mode    52: not Raman active; calculation not required                     +
 + Mode    53: not Raman active; calculation not required                     +
 + Mode    54: not Raman active; calculation not required                     +
 + Mode    55: performing Raman intensity calculation                         +

 Efield perturbation    1:  X                                         28026.36s

 Efield perturbation    2:  Y                                         28275.10s

 Efield perturbation    3:  Z                                         28526.54s

 Efield perturbation    1:  X                                         28997.47s

 Efield perturbation    2:  Y                                         29245.10s

 Efield perturbation    3:  Z                                         29488.85s
 + Mode number:  55 completed;                   time taken:  1925.11 seconds +
 + Mode    56: not Raman active; calculation not required                     +
 + Mode    57: performing Raman intensity calculation                         +

 Efield perturbation    1:  X                                         30066.17s

 Efield perturbation    2:  Y                                         30686.57s

 Efield perturbation    3:  Z                                         30987.58s

 Efield perturbation    1:  X                                         31637.29s

 Efield perturbation    2:  Y                                         32305.36s

 Efield perturbation    3:  Z                                         32626.27s
 + Mode number:  57 completed;                   time taken:  3226.17 seconds +
 + Mode    58: not Raman active; calculation not required                     +
 + Mode    59: not Raman active; calculation not required                     +
 + Mode    60: not Raman active; calculation not required                     +
 + Mode    61: performing Raman intensity calculation                         +

 Efield perturbation    1:  X                                         33180.53s

 Efield perturbation    2:  Y                                         33418.08s

 Efield perturbation    3:  Z                                         33654.69s

 Efield perturbation    1:  X                                         34102.51s

 Efield perturbation    2:  Y                                         34338.54s

 Efield perturbation    3:  Z                                         34574.80s
 + Mode number:  61 completed;                   time taken:  1852.88 seconds +
 + Mode    62: not Raman active; calculation not required                     +
 + Mode    63: not Raman active; calculation not required                     +
 + Mode    64: performing Raman intensity calculation                         +

 Efield perturbation    1:  X                                         35026.06s

 Efield perturbation    2:  Y                                         35253.69s

 Efield perturbation    3:  Z                                         35468.11s

 Efield perturbation    1:  X                                         35858.34s

 Efield perturbation    2:  Y                                         36043.31s

 Efield perturbation    3:  Z                                         36248.38s
 + Mode number:  64 completed;                   time taken:  1649.50 seconds +
 + Mode    65: not Raman active; calculation not required                     +
 + Mode    66: not Raman active; calculation not required                     +
 + Mode    67: not Raman active; calculation not required                     +
 + Mode    68: performing Raman intensity calculation                         +

 Efield perturbation    1:  X                                         36777.52s

 Efield perturbation    2:  Y                                         37165.21s

 Efield perturbation    3:  Z                                         37633.96s

 Efield perturbation    1:  X                                         38114.77s

 Efield perturbation    2:  Y                                         38412.59s

 Efield perturbation    3:  Z                                         38781.69s
 + Mode number:  68 completed;                   time taken:  2530.43 seconds +
 + Checkpointing.....                                                         +

Writing analysis data to Cmca-12.castep_bin

Writing model to Cmca-12.check
 + Mode    69: not Raman active; calculation not required                     +
 + Mode    70: not Raman active; calculation not required                     +
 + Mode    71: not Raman active; calculation not required                     +
 + Mode    72: performing Raman intensity calculation                         +

 Efield perturbation    1:  X                                         39243.13s

 Efield perturbation    2:  Y                                         39531.27s

 Efield perturbation    3:  Z                                         39883.03s

 Efield perturbation    1:  X                                         40333.63s

 Efield perturbation    2:  Y                                         40606.71s

 Efield perturbation    3:  Z                                         40946.61s
 + Mode number:  72 completed;                   time taken:  2159.40 seconds +
 +----------------------------------------------------------------------------+
 +   E N D    O F    R A M A N    I N T E N S I T Y    C A L C U L A T I O N  +
 +         Raman intensity calculation completed in   35537.47 seconds        +
 +============================================================================+
 + -------------------------------------------------------------------------- +
 +  q-pt=    1 (  0.000000  0.000000  0.000000)     1.0000000000              +
 + -------------------------------------------------------------------------- +
 +  Acoustic sum rule correction <   7.502595 cm-1 applied                    +
 +     N      Frequency irrep.    ir intensity active  raman activity  active + 
 +                (cm-1)         ((D/A)**2/amu)              (A**4/amu)       + 
 +                                                                            +
 +     1    -381.703153   a          0.0000000  N            0.0000000  N     + 
 +     2    -381.602420   b          0.0000000  N            0.0000000  N     + 
 +     3    -372.742502   c          0.0000000  N            0.0000000  Y     + 
 +     4    -372.742493   d          0.0000000  Y            0.0000000  N     + 
 +     5    -357.309650   e          0.0000000  N            0.0000000  N     + 
 +     6    -357.309548   b          0.0000000  N            0.0000000  N     + 
 +     7    -350.847730   f          0.0000000  N            0.0000000  Y     + 
 +     8    -350.765459   c          0.0000000  N            0.0000000  Y     + 
 +     9    -237.333407   g          0.0000000  Y            0.0000000  N     + 
 +    10    -237.333322   h          0.0000000  N            0.0000000  Y     + 
 +    11      -0.172531   d          0.0000000  N            0.0000000  N     + 
 +    12      -0.140871   i          0.0000000  N            0.0000000  N     + 
 +    13      -0.099611   g          0.0000000  N            0.0000000  N     + 
 +    14      72.298905   j          0.0000000  N            0.0000000  N     + 
 +    15      72.299572   k          0.0000000  N            0.0000000  N     + 
 +    16     317.007782   l          0.0000000  N            0.0000000  N     + 
 +    17     317.007786   a          0.0000000  N            0.0000000  N     + 
 +    18     417.477973   h          0.0000000  N         1798.2354090  Y     + 
 +    19     417.530232   m          0.0000000  N         1798.1904412  Y     + 
 +    20     432.647781   e          0.0000000  N            0.0000000  N     + 
 +    21     432.647840   b          0.0000000  N            0.0000000  N     + 
 +    22     435.425871   a          0.0000000  N            0.0000000  N     + 
 +    23     435.425929   l          0.0000000  N            0.0000000  N     + 
 +    24     493.256672   n          0.0000000  N            0.0000000  N     + 
 +    25     493.256745   o          0.0000000  N            0.0000000  N     + 
 +    26     518.368640   i          0.0000000  Y            0.0000000  N     + 
 +    27     518.368702   f          0.0000000  N            0.0000000  Y     + 
 +    28     601.521198   j          0.0000000  N            0.0000000  N     + 
 +    29     601.521896   k          0.0000000  N            0.0000000  N     + 
 +    30     622.478474   p          0.0000000  N            0.0000000  N     + 
 +    31     622.478490   m          0.0000000  N            0.0000326  Y     + 
 +    32     673.639187   h          0.0000000  N            0.0000003  Y     + 
 +    33     673.639254   g          0.0000000  Y            0.0000000  N     + 
 +    34     679.431872   k          0.0000000  N            0.0000000  N     + 
 +    35     679.473070   o          0.0000000  N            0.0000000  N     + 
 +    36     688.658791   c          0.0000000  N            0.0000001  Y     + 
 +    37     688.658829   d          0.0000000  Y            0.0000000  N     + 
 +    38     746.264593   j          0.0000000  N            0.0000000  N     + 
 +    39     746.274680   l          0.0000000  N            0.0000000  N     + 
 +    40     768.955660   e          0.0000000  N            0.0000000  N     + 
 +    41     768.989818   l          0.0000000  N            0.0000000  N     + 
 +    42     774.766147   h          0.0000000  N            0.0000000  Y     + 
 +    43     774.766199   g          0.0000000  Y            0.0000000  N     + 
 +    44     809.318906   f          0.0000000  N            0.0000000  Y     + 
 +    45     809.318919   i          0.0000000  Y            0.0000000  N     + 
 +    46     813.817754   l          0.0000000  N            0.0000000  N     + 
 +    47     813.817782   a          0.0000000  N            0.0000000  N     + 
 +    48     856.646238   p          0.0000000  N            0.0000000  N     + 
 +    49     856.653075   g          0.0000000  Y            0.0000000  N     + 
 +    50     877.710362   k          0.0000000  N            0.0000000  N     + 
 +    51     877.710569   j          0.0000000  N            0.0000000  N     + 
 +    52     920.381752   i          0.0000000  Y            0.0000000  N     + 
 +    53     920.785568   n          0.0000000  N            0.0000000  N     + 
 +    54     920.785595   o          0.0000000  N            0.0000000  N     + 
 +    55     996.237861   f          0.0000000  N            0.0000018  Y     + 
 +    56     996.237874   i          0.0000000  Y            0.0000000  N     + 
 +    57    1058.264826   m          0.0000000  N            0.0000000  Y     + 
 +    58    1058.264856   p          0.0000000  N            0.0000000  N     + 
 +    59    1134.048738   j          0.0000000  N            0.0000000  N     + 
 +    60    1134.186790   n          0.0000000  N            0.0000000  N     + 
 +    61    4306.271053   f          0.0000000  N        33976.3323120  Y     + 
 +    62    4344.136918   k          0.0000000  N            0.0000000  N     + 
 +    63    4344.136950   j          0.0000000  N            0.0000000  N     + 
 +    64    4412.442456   f          0.0000000  N            0.0000380  Y     + 
 +    65    4412.442481   i          0.0000000  Y            0.0000000  N     + 
 +    66    4443.759948   k          0.0000000  N            0.0000000  N     + 
 +    67    4443.760671   a          0.0000000  N            0.0000000  N     + 
 +    68    4474.305378   h          0.0000000  N            0.0000000  Y     + 
 +    69    4474.305399   g          0.0000000  Y            0.0000000  N     + 
 +    70    4542.298307   a          0.0000000  N            0.0000000  N     + 
 +    71    4542.298364   l          0.0000000  N            0.0000000  N     + 
 +    72    4579.448064   h          0.0000000  N            0.0000000  Y     + 
 + .......................................................................... +
 +        Character table from group theory analysis of eigenvectors          +
 +                           Point Group =   8, D2h                           +
 + .......................................................................... +
 +  Rep  Mul |    E   I   2   m   2   m   2   m                               +
 +           | --------------------------------                               +
 + a B2g   6 |    1   1  -1  -1   1   1  -1  -1                               +
 + b B1g   3 |    1   1   1   1  -1  -1  -1  -1                               +
 + c B1g   3 |    1   1   1   1  -1  -1  -1  -1                               +
 + d B2u   3 |    1  -1  -1   1   1  -1  -1   1                               +
 + e B2u   3 |    1  -1  -1   1   1  -1  -1   1                               +
 + f Ag    6 |    1   1   1   1   1   1   1   1                               +
 + g B1u   6 |    1  -1   1  -1  -1   1  -1   1                               +
 + h B2g   6 |    1   1  -1  -1   1   1  -1  -1                               +
 + i B3u   6 |    1  -1  -1   1  -1   1   1  -1                               +
 + j B3u   6 |    1  -1  -1   1  -1   1   1  -1                               +
 + k Ag    6 |    1   1   1   1   1   1   1   1                               +
 + l B1u   6 |    1  -1   1  -1  -1   1  -1   1                               +
 + m B3g   3 |    1   1  -1  -1  -1  -1   1   1                               +
 + n Au    3 |    1  -1   1  -1   1  -1   1  -1                               +
 + o B3g   3 |    1   1  -1  -1  -1  -1   1   1                               +
 + p Au    3 |    1  -1   1  -1   1  -1   1  -1                               +
 ==============================================================================
 ===================================================
                   Born Effective Charges
                   ----------------------
   H       1        -0.00000     0.00000     0.00000
                     0.00000     0.00000     0.00000
                     0.00000     0.00000     0.00000
   H       2        -0.00000     0.00000     0.00000
                     0.00000    -0.00000    -0.00000
                     0.00000    -0.00000    -0.00000
   H       3         0.00000     0.00000     0.00000
                     0.00000     0.00000     0.00000
                     0.00000     0.00000     0.00000
   H       4         0.00000     0.00000     0.00000
                     0.00000     0.00000    -0.00000
                     0.00000    -0.00000     0.00000
   H       5        -0.00000     0.00000     0.00000
                     0.00000    -0.00000     0.00000
                     0.00000     0.00000    -0.00000
   H       6        -0.00000     0.00000     0.00000
                     0.00000     0.00000    -0.00000
                     0.00000    -0.00000     0.00000
   H       7         0.00000     0.00000     0.00000
                     0.00000     0.00000     0.00000
                     0.00000     0.00000     0.00000
   H       8        -0.00000     0.00000     0.00000
                     0.00000    -0.00000    -0.00000
                     0.00000    -0.00000    -0.00000
   H       9        -0.00000     0.00000     0.00000
                     0.00000     0.00000     0.00000
                     0.00000     0.00000     0.00000
   H      10         0.00000     0.00000     0.00000
                     0.00000     0.00000    -0.00000
                     0.00000    -0.00000     0.00000
   H      11        -0.00000     0.00000     0.00000
                     0.00000    -0.00000     0.00000
                     0.00000     0.00000    -0.00000
   H      12        -0.00000     0.00000     0.00000
                     0.00000     0.00000    -0.00000
                     0.00000    -0.00000     0.00000
   H      13         0.00000     0.00000     0.00000
                     0.00000     0.00000     0.00000
                     0.00000     0.00000     0.00000
   H      14        -0.00000     0.00000     0.00000
                     0.00000    -0.00000    -0.00000
                     0.00000    -0.00000    -0.00000
   H      15        -0.00000     0.00000     0.00000
                     0.00000     0.00000     0.00000
                     0.00000     0.00000     0.00000
   H      16         0.00000     0.00000     0.00000
                     0.00000     0.00000    -0.00000
                     0.00000    -0.00000     0.00000
   H      17        -0.00000     0.00000     0.00000
                     0.00000    -0.00000     0.00000
                     0.00000     0.00000    -0.00000
   H      18        -0.00000     0.00000     0.00000
                     0.00000     0.00000    -0.00000
                     0.00000    -0.00000     0.00000
   H      19         0.00000     0.00000     0.00000
                     0.00000     0.00000     0.00000
                     0.00000     0.00000     0.00000
   H      20        -0.00000     0.00000     0.00000
                     0.00000    -0.00000    -0.00000
                     0.00000    -0.00000    -0.00000
   H      21        -0.00000     0.00000     0.00000
                     0.00000     0.00000     0.00000
                     0.00000     0.00000     0.00000
   H      22         0.00000     0.00000     0.00000
                     0.00000     0.00000    -0.00000
                     0.00000    -0.00000     0.00000
   H      23        -0.00000     0.00000     0.00000
                     0.00000    -0.00000     0.00000
                     0.00000     0.00000    -0.00000
   H      24        -0.00000     0.00000     0.00000
                     0.00000     0.00000    -0.00000
                     0.00000    -0.00000     0.00000
 ===================================================
  
 ==============================================================================
 +                      Raman Susceptibility Tensors ((A/amu)*0.5)            +
 +----------------------------------------------------------------------------+
 + Mode number:   1 Raman tensor       Depolarisation Ratio                   +
 +     0.0000    0.0000    0.0000      0.000000                               +
 +     0.0000    0.0000    0.0000                                             +
 +     0.0000    0.0000    0.0000                                             +
 +                                                                            +
 + Mode number:   2 Raman tensor       Depolarisation Ratio                   +
 +     0.0000    0.0000    0.0000      0.000000                               +
 +     0.0000    0.0000    0.0000                                             +
 +     0.0000    0.0000    0.0000                                             +
 +                                                                            +
 + Mode number:   3 Raman tensor       Depolarisation Ratio                   +
 +     0.0000    0.0000    0.0000      0.000000                               +
 +     0.0000    0.0000    0.0000                                             +
 +     0.0000    0.0000    0.0000                                             +
 +                                                                            +
 + Mode number:   4 Raman tensor       Depolarisation Ratio                   +
 +     0.0000    0.0000    0.0000      0.000000                               +
 +     0.0000    0.0000    0.0000                                             +
 +     0.0000    0.0000    0.0000                                             +
 +                                                                            +
 + Mode number:   5 Raman tensor       Depolarisation Ratio                   +
 +     0.0000    0.0000    0.0000      0.000000                               +
 +     0.0000    0.0000    0.0000                                             +
 +     0.0000    0.0000    0.0000                                             +
 +                                                                            +
 + Mode number:   6 Raman tensor       Depolarisation Ratio                   +
 +     0.0000    0.0000    0.0000      0.000000                               +
 +     0.0000    0.0000    0.0000                                             +
 +     0.0000    0.0000    0.0000                                             +
 +                                                                            +
 + Mode number:   7 is outside of the requested Raman frequency range         +
 +                                                                            +
 + Mode number:   8 is outside of the requested Raman frequency range         +
 +                                                                            +
 + Mode number:   9 Raman tensor       Depolarisation Ratio                   +
 +     0.0000    0.0000    0.0000      0.000000                               +
 +     0.0000    0.0000    0.0000                                             +
 +     0.0000    0.0000    0.0000                                             +
 +                                                                            +
 + Mode number:  10 is outside of the requested Raman frequency range         +
 +                                                                            +
 + Mode number:  11 Raman tensor       Depolarisation Ratio                   +
 +     0.0000    0.0000    0.0000      0.000000                               +
 +     0.0000    0.0000    0.0000                                             +
 +     0.0000    0.0000    0.0000                                             +
 +                                                                            +
 + Mode number:  12 Raman tensor       Depolarisation Ratio                   +
 +     0.0000    0.0000    0.0000      0.000000                               +
 +     0.0000    0.0000    0.0000                                             +
 +     0.0000    0.0000    0.0000                                             +
 +                                                                            +
 + Mode number:  13 Raman tensor       Depolarisation Ratio                   +
 +     0.0000    0.0000    0.0000      0.000000                               +
 +     0.0000    0.0000    0.0000                                             +
 +     0.0000    0.0000    0.0000                                             +
 +                                                                            +
 + Mode number:  14 Raman tensor       Depolarisation Ratio                   +
 +     0.0000    0.0000    0.0000      0.000000                               +
 +     0.0000    0.0000    0.0000                                             +
 +     0.0000    0.0000    0.0000                                             +
 +                                                                            +
 + Mode number:  15 Raman tensor       Depolarisation Ratio                   +
 +     0.0000    0.0000    0.0000      0.000000                               +
 +     0.0000    0.0000    0.0000                                             +
 +     0.0000    0.0000    0.0000                                             +
 +                                                                            +
 + Mode number:  16 Raman tensor       Depolarisation Ratio                   +
 +     0.0000    0.0000    0.0000      0.000000                               +
 +     0.0000    0.0000    0.0000                                             +
 +     0.0000    0.0000    0.0000                                             +
 +                                                                            +
 + Mode number:  17 Raman tensor       Depolarisation Ratio                   +
 +     0.0000    0.0000    0.0000      0.000000                               +
 +     0.0000    0.0000    0.0000                                             +
 +     0.0000    0.0000    0.0000                                             +
 +                                                                            +
 + Mode number:  18 Raman tensor       Depolarisation Ratio                   +
 +     0.0000    0.0000    0.0000      0.750000                               +
 +     0.0000    0.0000   -1.0405                                             +
 +     0.0000   -1.0405    0.0000                                             +
 +                                                                            +
 + Mode number:  19 Raman tensor       Depolarisation Ratio                   +
 +     0.0000    0.0000   -1.0405      0.750000                               +
 +     0.0000    0.0000    0.0000                                             +
 +    -1.0405    0.0000    0.0000                                             +
 +                                                                            +
 + Mode number:  20 Raman tensor       Depolarisation Ratio                   +
 +     0.0000    0.0000    0.0000      0.000000                               +
 +     0.0000    0.0000    0.0000                                             +
 +     0.0000    0.0000    0.0000                                             +
 +                                                                            +
 + Mode number:  21 Raman tensor       Depolarisation Ratio                   +
 +     0.0000    0.0000    0.0000      0.000000                               +
 +     0.0000    0.0000    0.0000                                             +
 +     0.0000    0.0000    0.0000                                             +
 +                                                                            +
 + Mode number:  22 Raman tensor       Depolarisation Ratio                   +
 +     0.0000    0.0000    0.0000      0.000000                               +
 +     0.0000    0.0000    0.0000                                             +
 +     0.0000    0.0000    0.0000                                             +
 +                                                                            +
 + Mode number:  23 Raman tensor       Depolarisation Ratio                   +
 +     0.0000    0.0000    0.0000      0.000000                               +
 +     0.0000    0.0000    0.0000                                             +
 +     0.0000    0.0000    0.0000                                             +
 +                                                                            +
 + Mode number:  24 Raman tensor       Depolarisation Ratio                   +
 +     0.0000    0.0000    0.0000      0.000000                               +
 +     0.0000    0.0000    0.0000                                             +
 +     0.0000    0.0000    0.0000                                             +
 +                                                                            +
 + Mode number:  25 Raman tensor       Depolarisation Ratio                   +
 +     0.0000    0.0000    0.0000      0.000000                               +
 +     0.0000    0.0000    0.0000                                             +
 +     0.0000    0.0000    0.0000                                             +
 +                                                                            +
 + Mode number:  26 Raman tensor       Depolarisation Ratio                   +
 +     0.0000    0.0000    0.0000      0.000000                               +
 +     0.0000    0.0000    0.0000                                             +
 +     0.0000    0.0000    0.0000                                             +
 +                                                                            +
 + Mode number:  27 Raman tensor       Depolarisation Ratio                   +
 +     0.0000    0.0000    0.0000      0.308750                               +
 +     0.0000    0.0000    0.0000                                             +
 +     0.0000    0.0000    0.0000                                             +
 +                                                                            +
 + Mode number:  28 Raman tensor       Depolarisation Ratio                   +
 +     0.0000    0.0000    0.0000      0.000000                               +
 +     0.0000    0.0000    0.0000                                             +
 +     0.0000    0.0000    0.0000                                             +
 +                                                                            +
 + Mode number:  29 Raman tensor       Depolarisation Ratio                   +
 +     0.0000    0.0000    0.0000      0.000000                               +
 +     0.0000    0.0000    0.0000                                             +
 +     0.0000    0.0000    0.0000                                             +
 +                                                                            +
 + Mode number:  30 Raman tensor       Depolarisation Ratio                   +
 +     0.0000    0.0000    0.0000      0.000000                               +
 +     0.0000    0.0000    0.0000                                             +
 +     0.0000    0.0000    0.0000                                             +
 +                                                                            +
 + Mode number:  31 Raman tensor       Depolarisation Ratio                   +
 +     0.0000    0.0000    0.0001      0.749969                               +
 +     0.0000    0.0000    0.0000                                             +
 +     0.0001    0.0000    0.0000                                             +
 +                                                                            +
 + Mode number:  32 Raman tensor       Depolarisation Ratio                   +
 +     0.0000    0.0000    0.0000      0.747515                               +
 +     0.0000    0.0000    0.0000                                             +
 +     0.0000    0.0000    0.0000                                             +
 +                                                                            +
 + Mode number:  33 Raman tensor       Depolarisation Ratio                   +
 +     0.0000    0.0000    0.0000      0.000000                               +
 +     0.0000    0.0000    0.0000                                             +
 +     0.0000    0.0000    0.0000                                             +
 +                                                                            +
 + Mode number:  34 Raman tensor       Depolarisation Ratio                   +
 +     0.0000    0.0000    0.0000      0.000000                               +
 +     0.0000    0.0000    0.0000                                             +
 +     0.0000    0.0000    0.0000                                             +
 +                                                                            +
 + Mode number:  35 Raman tensor       Depolarisation Ratio                   +
 +     0.0000    0.0000    0.0000      0.000000                               +
 +     0.0000    0.0000    0.0000                                             +
 +     0.0000    0.0000    0.0000                                             +
 +                                                                            +
 + Mode number:  36 Raman tensor       Depolarisation Ratio                   +
 +     0.0000    0.0000    0.0000      0.737633                               +
 +     0.0000    0.0000    0.0000                                             +
 +     0.0000    0.0000    0.0000                                             +
 +                                                                            +
 + Mode number:  37 Raman tensor       Depolarisation Ratio                   +
 +     0.0000    0.0000    0.0000      0.000000                               +
 +     0.0000    0.0000    0.0000                                             +
 +     0.0000    0.0000    0.0000                                             +
 +                                                                            +
 + Mode number:  38 Raman tensor       Depolarisation Ratio                   +
 +     0.0000    0.0000    0.0000      0.000000                               +
 +     0.0000    0.0000    0.0000                                             +
 +     0.0000    0.0000    0.0000                                             +
 +                                                                            +
 + Mode number:  39 Raman tensor       Depolarisation Ratio                   +
 +     0.0000    0.0000    0.0000      0.000000                               +
 +     0.0000    0.0000    0.0000                                             +
 +     0.0000    0.0000    0.0000                                             +
 +                                                                            +
 + Mode number:  40 Raman tensor       Depolarisation Ratio                   +
 +     0.0000    0.0000    0.0000      0.000000                               +
 +     0.0000    0.0000    0.0000                                             +
 +     0.0000    0.0000    0.0000                                             +
 +                                                                            +
 + Mode number:  41 Raman tensor       Depolarisation Ratio                   +
 +     0.0000    0.0000    0.0000      0.000000                               +
 +     0.0000    0.0000    0.0000                                             +
 +     0.0000    0.0000    0.0000                                             +
 +                                                                            +
 + Mode number:  42 Raman tensor       Depolarisation Ratio                   +
 +     0.0000    0.0000    0.0000      0.309472                               +
 +     0.0000    0.0000   -0.0000                                             +
 +     0.0000   -0.0000    0.0000                                             +
 +                                                                            +
 + Mode number:  43 Raman tensor       Depolarisation Ratio                   +
 +     0.0000    0.0000    0.0000      0.000000                               +
 +     0.0000    0.0000    0.0000                                             +
 +     0.0000    0.0000    0.0000                                             +
 +                                                                            +
 + Mode number:  44 Raman tensor       Depolarisation Ratio                   +
 +     0.0000    0.0000    0.0000      0.307322                               +
 +     0.0000    0.0000    0.0000                                             +
 +     0.0000    0.0000    0.0000                                             +
 +                                                                            +
 + Mode number:  45 Raman tensor       Depolarisation Ratio                   +
 +     0.0000    0.0000    0.0000      0.000000                               +
 +     0.0000    0.0000    0.0000                                             +
 +     0.0000    0.0000    0.0000                                             +
 +                                                                            +
 + Mode number:  46 Raman tensor       Depolarisation Ratio                   +
 +     0.0000    0.0000    0.0000      0.000000                               +
 +     0.0000    0.0000    0.0000                                             +
 +     0.0000    0.0000    0.0000                                             +
 +                                                                            +
 + Mode number:  47 Raman tensor       Depolarisation Ratio                   +
 +     0.0000    0.0000    0.0000      0.000000                               +
 +     0.0000    0.0000    0.0000                                             +
 +     0.0000    0.0000    0.0000                                             +
 +                                                                            +
 + Mode number:  48 Raman tensor       Depolarisation Ratio                   +
 +     0.0000    0.0000    0.0000      0.000000                               +
 +     0.0000    0.0000    0.0000                                             +
 +     0.0000    0.0000    0.0000                                             +
 +                                                                            +
 + Mode number:  49 Raman tensor       Depolarisation Ratio                   +
 +     0.0000    0.0000    0.0000      0.000000                               +
 +     0.0000    0.0000    0.0000                                             +
 +     0.0000    0.0000    0.0000                                             +
 +                                                                            +
 + Mode number:  50 Raman tensor       Depolarisation Ratio                   +
 +     0.0000    0.0000    0.0000      0.000000                               +
 +     0.0000    0.0000    0.0000                                             +
 +     0.0000    0.0000    0.0000                                             +
 +                                                                            +
 + Mode number:  51 Raman tensor       Depolarisation Ratio                   +
 +     0.0000    0.0000    0.0000      0.000000                               +
 +     0.0000    0.0000    0.0000                                             +
 +     0.0000    0.0000    0.0000                                             +
 +                                                                            +
 + Mode number:  52 Raman tensor       Depolarisation Ratio                   +
 +     0.0000    0.0000    0.0000      0.000000                               +
 +     0.0000    0.0000    0.0000                                             +
 +     0.0000    0.0000    0.0000                                             +
 +                                                                            +
 + Mode number:  53 Raman tensor       Depolarisation Ratio                   +
 +     0.0000    0.0000    0.0000      0.000000                               +
 +     0.0000    0.0000    0.0000                                             +
 +     0.0000    0.0000    0.0000                                             +
 +                                                                            +
 + Mode number:  54 Raman tensor       Depolarisation Ratio                   +
 +     0.0000    0.0000    0.0000      0.000000                               +
 +     0.0000    0.0000    0.0000                                             +
 +     0.0000    0.0000    0.0000                                             +
 +                                                                            +
 + Mode number:  55 Raman tensor       Depolarisation Ratio                   +
 +     0.0000    0.0000    0.0000      0.373771                               +
 +     0.0000   -0.0000    0.0000                                             +
 +     0.0000    0.0000    0.0000                                             +
 +                                                                            +
 + Mode number:  56 Raman tensor       Depolarisation Ratio                   +
 +     0.0000    0.0000    0.0000      0.000000                               +
 +     0.0000    0.0000    0.0000                                             +
 +     0.0000    0.0000    0.0000                                             +
 +                                                                            +
 + Mode number:  57 Raman tensor       Depolarisation Ratio                   +
 +     0.0000    0.0000    0.0000      0.316110                               +
 +     0.0000    0.0000    0.0000                                             +
 +     0.0000    0.0000    0.0000                                             +
 +                                                                            +
 + Mode number:  58 Raman tensor       Depolarisation Ratio                   +
 +     0.0000    0.0000    0.0000      0.000000                               +
 +     0.0000    0.0000    0.0000                                             +
 +     0.0000    0.0000    0.0000                                             +
 +                                                                            +
 + Mode number:  59 Raman tensor       Depolarisation Ratio                   +
 +     0.0000    0.0000    0.0000      0.000000                               +
 +     0.0000    0.0000    0.0000                                             +
 +     0.0000    0.0000    0.0000                                             +
 +                                                                            +
 + Mode number:  60 Raman tensor       Depolarisation Ratio                   +
 +     0.0000    0.0000    0.0000      0.000000                               +
 +     0.0000    0.0000    0.0000                                             +
 +     0.0000    0.0000    0.0000                                             +
 +                                                                            +
 + Mode number:  61 Raman tensor       Depolarisation Ratio                   +
 +     1.7269    0.0000    0.0000      0.079739                               +
 +     0.0000    1.7270    0.0000                                             +
 +     0.0000    0.0000    4.9788                                             +
 +                                                                            +
 + Mode number:  62 Raman tensor       Depolarisation Ratio                   +
 +     0.0000    0.0000    0.0000      0.000000                               +
 +     0.0000    0.0000    0.0000                                             +
 +     0.0000    0.0000    0.0000                                             +
 +                                                                            +
 + Mode number:  63 Raman tensor       Depolarisation Ratio                   +
 +     0.0000    0.0000    0.0000      0.000000                               +
 +     0.0000    0.0000    0.0000                                             +
 +     0.0000    0.0000    0.0000                                             +
 +                                                                            +
 + Mode number:  64 Raman tensor       Depolarisation Ratio                   +
 +    -0.0001    0.0000    0.0000      0.164384                               +
 +     0.0000    0.0000    0.0000                                             +
 +     0.0000    0.0000   -0.0002                                             +
 +                                                                            +
 + Mode number:  65 Raman tensor       Depolarisation Ratio                   +
 +     0.0000    0.0000    0.0000      0.000000                               +
 +     0.0000    0.0000    0.0000                                             +
 +     0.0000    0.0000    0.0000                                             +
 +                                                                            +
 + Mode number:  66 Raman tensor       Depolarisation Ratio                   +
 +     0.0000    0.0000    0.0000      0.000000                               +
 +     0.0000    0.0000    0.0000                                             +
 +     0.0000    0.0000    0.0000                                             +
 +                                                                            +
 + Mode number:  67 Raman tensor       Depolarisation Ratio                   +
 +     0.0000    0.0000    0.0000      0.000000                               +
 +     0.0000    0.0000    0.0000                                             +
 +     0.0000    0.0000    0.0000                                             +
 +                                                                            +
 + Mode number:  68 Raman tensor       Depolarisation Ratio                   +
 +     0.0000    0.0000    0.0000      0.335190                               +
 +     0.0000   -0.0000    0.0000                                             +
 +     0.0000    0.0000    0.0000                                             +
 +                                                                            +
 + Mode number:  69 Raman tensor       Depolarisation Ratio                   +
 +     0.0000    0.0000    0.0000      0.000000                               +
 +     0.0000    0.0000    0.0000                                             +
 +     0.0000    0.0000    0.0000                                             +
 +                                                                            +
 + Mode number:  70 Raman tensor       Depolarisation Ratio                   +
 +     0.0000    0.0000    0.0000      0.000000                               +
 +     0.0000    0.0000    0.0000                                             +
 +     0.0000    0.0000    0.0000                                             +
 +                                                                            +
 + Mode number:  71 Raman tensor       Depolarisation Ratio                   +
 +     0.0000    0.0000    0.0000      0.000000                               +
 +     0.0000    0.0000    0.0000                                             +
 +     0.0000    0.0000    0.0000                                             +
 +                                                                            +
 + Mode number:  72 Raman tensor       Depolarisation Ratio                   +
 +    -0.0000    0.0000    0.0000      0.565301                               +
 +     0.0000   -0.0000   -0.0000                                             +
 +     0.0000   -0.0000    0.0000                                             +
 +                                                                            +
 +----------------------------------------------------------------------------+
  

 ******************** Symmetrised Forces ********************
 *                                                          *
 *               Cartesian components (eV/A)                *
 * -------------------------------------------------------- *
 *                         x            y            z      *
 *                                                          *
 * H               1      0.00000      0.00000     -0.00000 *
 * H               2      0.00000      0.00000      0.00000 *
 * H               3      0.00000      0.00000     -0.00000 *
 * H               4      0.00000      0.00000      0.00000 *
 * H               5      0.00000      0.00000     -0.00000 *
 * H               6      0.00000      0.00000      0.00000 *
 * H               7     -0.00000     -0.00000      0.00000 *
 * H               8     -0.00000     -0.00000     -0.00000 *
 * H               9     -0.00000     -0.00000      0.00000 *
 * H              10      0.00000     -0.00000     -0.00000 *
 * H              11      0.00000     -0.00000      0.00000 *
 * H              12     -0.00000     -0.00000     -0.00000 *
 * H              13      0.00000      0.00000     -0.00000 *
 * H              14      0.00000      0.00000      0.00000 *
 * H              15      0.00000      0.00000     -0.00000 *
 * H              16      0.00000      0.00000      0.00000 *
 * H              17      0.00000      0.00000     -0.00000 *
 * H              18      0.00000      0.00000      0.00000 *
 * H              19     -0.00000     -0.00000      0.00000 *
 * H              20      0.00000     -0.00000     -0.00000 *
 * H              21     -0.00000     -0.00000      0.00000 *
 * H              22     -0.00000     -0.00000     -0.00000 *
 * H              23      0.00000     -0.00000      0.00000 *
 * H              24     -0.00000     -0.00000     -0.00000 *
 *                                                          *
 ************************************************************

 *********** Symmetrised Stress Tensor ***********
 *                                               *
 *          Cartesian components (GPa)           *
 * --------------------------------------------- *
 *             x             y             z     *
 *                                               *
 *  x    -39.980503      0.000000      0.000000  *
 *  y      0.000000    -39.980496      0.000000  *
 *  z      0.000000      0.000000    -39.980498  *
 *                                               *
 *  Pressure:   39.9805                          *
 *                                               *
 *************************************************

 Pseudo atomic calculation performed for H 1s1

 Converged in 24 iterations to a total energy of -12.4843 eV

Charge spilling parameter for spin component 1 = 0.71%

            Orbital Populations       
     Ion    Atom   Orbital             Charge
  -------------------------------------------
      H     1      S                    1.000
      H     2      S                    1.000
      H     3      S                    1.000
      H     4      S                    1.000
      H     5      S                    1.000
      H     6      S                    1.000
      H     7      S                    1.000
      H     8      S                    1.000
      H     9      S                    1.000
      H    10      S                    1.000
      H    11      S                    1.000
      H    12      S                    1.000
      H    13      S                    1.000
      H    14      S                    1.000
      H    15      S                    1.000
      H    16      S                    1.000
      H    17      S                    1.000
      H    18      S                    1.000
      H    19      S                    1.000
      H    20      S                    1.000
      H    21      S                    1.000
      H    22      S                    1.000
      H    23      S                    1.000
      H    24      S                    1.000
  -------------------------------------------
                           Total:      24.000
  -------------------------------------------

     Atomic Populations (Mulliken)
     -----------------------------
Species          Ion     s      p      d      f     Total  Charge (e)
=====================================================================
  H               1     1.00   0.00   0.00   0.00   1.00    -0.00
  H               2     1.00   0.00   0.00   0.00   1.00    -0.00
  H               3     1.00   0.00   0.00   0.00   1.00     0.00
  H               4     1.00   0.00   0.00   0.00   1.00     0.00
  H               5     1.00   0.00   0.00   0.00   1.00    -0.00
  H               6     1.00   0.00   0.00   0.00   1.00    -0.00
  H               7     1.00   0.00   0.00   0.00   1.00     0.00
  H               8     1.00   0.00   0.00   0.00   1.00    -0.00
  H               9     1.00   0.00   0.00   0.00   1.00    -0.00
  H              10     1.00   0.00   0.00   0.00   1.00     0.00
  H              11     1.00   0.00   0.00   0.00   1.00    -0.00
  H              12     1.00   0.00   0.00   0.00   1.00    -0.00
  H              13     1.00   0.00   0.00   0.00   1.00     0.00
  H              14     1.00   0.00   0.00   0.00   1.00    -0.00
  H              15     1.00   0.00   0.00   0.00   1.00    -0.00
  H              16     1.00   0.00   0.00   0.00   1.00     0.00
  H              17     1.00   0.00   0.00   0.00   1.00    -0.00
  H              18     1.00   0.00   0.00   0.00   1.00    -0.00
  H              19     1.00   0.00   0.00   0.00   1.00     0.00
  H              20     1.00   0.00   0.00   0.00   1.00    -0.00
  H              21     1.00   0.00   0.00   0.00   1.00    -0.00
  H              22     1.00   0.00   0.00   0.00   1.00     0.00
  H              23     1.00   0.00   0.00   0.00   1.00    -0.00
  H              24     1.00   0.00   0.00   0.00   1.00    -0.00
=====================================================================

                 Bond                   Population      Length (A)
======================================================================
              H 16 -- H 20                   1.36        0.73583
              H 11 -- H 13                   1.36        0.73583
              H 4  -- H 8                    1.36        0.73583
              H 3  -- H 23                   1.36        0.73583
              H 17 -- H 19                   1.36        0.73583
              H 5  -- H 7                    1.36        0.73583
              H 10 -- H 14                   1.36        0.73583
              H 2  -- H 22                   1.36        0.73583
              H 9  -- H 15                   1.36        0.73583
              H 1  -- H 21                   1.36        0.73583
              H 18 -- H 24                   1.36        0.73583
              H 6  -- H 12                   1.36        0.73583
              H 17 -- H 18                  -0.09        1.66757
              H 1  -- H 2                   -0.09        1.66757
              H 14 -- H 15                  -0.09        1.66757
              H 5  -- H 6                   -0.09        1.66757
              H 20 -- H 21                  -0.09        1.66757
              H 11 -- H 12                  -0.09        1.66757
              H 23 -- H 24                  -0.09        1.66757
              H 8  -- H 9                   -0.09        1.66757
              H 9  -- H 10                  -0.09        1.66757
              H 19 -- H 24                  -0.09        1.66757
              H 21 -- H 22                  -0.09        1.66757
              H 7  -- H 12                  -0.09        1.66757
              H 1  -- H 16                  -0.09        1.66757
              H 6  -- H 13                  -0.09        1.66757
              H 4  -- H 15                  -0.09        1.66757
              H 3  -- H 18                  -0.09        1.66757
              H 4  -- H 5                   -0.09        1.66757
              H 2  -- H 3                   -0.09        1.66757
              H 22 -- H 23                  -0.09        1.66757
              H 7  -- H 8                   -0.09        1.66757
              H 16 -- H 17                  -0.09        1.66757
              H 13 -- H 14                  -0.09        1.66757
              H 19 -- H 20                  -0.09        1.66757
              H 10 -- H 11                  -0.09        1.66757
              H 15 -- H 18                  -0.19        1.66758
              H 1  -- H 6                   -0.19        1.66758
              H 12 -- H 21                  -0.19        1.66758
              H 9  -- H 24                  -0.19        1.66758
              H 13 -- H 16                  -0.19        1.66758
              H 10 -- H 19                  -0.19        1.66758
              H 7  -- H 22                  -0.19        1.66758
              H 3  -- H 4                   -0.19        1.66758
              H 14 -- H 17                  -0.19        1.66758
              H 2  -- H 5                   -0.19        1.66758
              H 8  -- H 23                  -0.19        1.66758
              H 11 -- H 20                  -0.19        1.66758
              H 15 -- H 17                  -0.09        2.09893
              H 14 -- H 18                  -0.09        2.09893
              H 12 -- H 20                  -0.09        2.09893
              H 11 -- H 21                  -0.09        2.09893
              H 2  -- H 6                   -0.09        2.09893
              H 1  -- H 5                   -0.09        2.09893
              H 9  -- H 23                  -0.09        2.09893
              H 8  -- H 24                  -0.09        2.09893
              H 9  -- H 19                  -0.09        2.09893
              H 10 -- H 24                  -0.09        2.09893
              H 12 -- H 22                  -0.09        2.09893
              H 7  -- H 21                  -0.09        2.09893
              H 6  -- H 16                  -0.09        2.09893
              H 1  -- H 13                  -0.09        2.09893
              H 4  -- H 18                  -0.09        2.09893
              H 3  -- H 15                  -0.09        2.09893
              H 3  -- H 5                   -0.09        2.09893
              H 2  -- H 4                   -0.09        2.09893
              H 8  -- H 22                  -0.09        2.09893
              H 7  -- H 23                  -0.09        2.09893
              H 14 -- H 16                  -0.09        2.09893
              H 13 -- H 17                  -0.09        2.09893
              H 11 -- H 19                  -0.09        2.09893
              H 10 -- H 20                  -0.09        2.09893
              H 6  -- H 7                   -0.12        2.10740
              H 1  -- H 22                  -0.12        2.10740
              H 18 -- H 19                  -0.12        2.10740
              H 16 -- H 21                  -0.12        2.10740
              H 12 -- H 13                  -0.12        2.10740
              H 10 -- H 15                  -0.12        2.10740
              H 4  -- H 9                   -0.12        2.10740
              H 3  -- H 24                  -0.12        2.10740
              H 5  -- H 8                   -0.12        2.10740
              H 2  -- H 23                  -0.12        2.10740
              H 17 -- H 20                  -0.12        2.10740
              H 11 -- H 14                  -0.12        2.10740
              H 9  -- H 14                  -0.12        2.10740
              H 17 -- H 24                  -0.12        2.10740
              H 8  -- H 15                  -0.12        2.10740
              H 18 -- H 23                  -0.12        2.10740
              H 6  -- H 11                  -0.12        2.10740
              H 1  -- H 20                  -0.12        2.10740
              H 5  -- H 12                  -0.12        2.10740
              H 2  -- H 21                  -0.12        2.10740
              H 4  -- H 7                   -0.12        2.10740
              H 3  -- H 22                  -0.12        2.10740
              H 16 -- H 19                  -0.12        2.10740
              H 10 -- H 13                  -0.12        2.10740
              H 13 -- H 20                  -0.25        2.10740
              H 11 -- H 16                  -0.25        2.10740
              H 4  -- H 23                  -0.25        2.10740
              H 3  -- H 8                   -0.25        2.10740
              H 10 -- H 17                  -0.25        2.10740
              H 5  -- H 22                  -0.25        2.10740
              H 14 -- H 19                  -0.25        2.10740
              H 2  -- H 7                   -0.25        2.10740
              H 15 -- H 24                  -0.25        2.10740
              H 9  -- H 18                  -0.25        2.10740
              H 6  -- H 21                  -0.25        2.10740
              H 1  -- H 12                  -0.25        2.10740
              H 6  -- H 22                  -0.10        2.22418
              H 1  -- H 7                   -0.10        2.22418
              H 15 -- H 19                  -0.10        2.22418
              H 13 -- H 21                  -0.10        2.22418
              H 12 -- H 16                  -0.10        2.22418
              H 10 -- H 18                  -0.10        2.22418
              H 4  -- H 24                  -0.10        2.22418
              H 3  -- H 9                   -0.10        2.22418
              H 5  -- H 23                  -0.10        2.22418
              H 2  -- H 8                   -0.10        2.22418
              H 14 -- H 20                  -0.10        2.22418
              H 11 -- H 17                  -0.10        2.22418
              H 14 -- H 24                  -0.10        2.22418
              H 9  -- H 17                  -0.10        2.22418
              H 15 -- H 23                  -0.10        2.22418
              H 8  -- H 18                  -0.10        2.22418
              H 6  -- H 20                  -0.10        2.22418
              H 1  -- H 11                  -0.10        2.22418
              H 5  -- H 21                  -0.10        2.22418
              H 2  -- H 12                  -0.10        2.22418
              H 4  -- H 22                  -0.10        2.22418
              H 3  -- H 7                   -0.10        2.22418
              H 13 -- H 19                  -0.10        2.22418
              H 10 -- H 16                  -0.10        2.22418
              H 20 -- H 22                   0.01        2.96833
              H 7  -- H 11                   0.01        2.96833
              H 19 -- H 23                   0.01        2.96833
              H 5  -- H 13                   0.01        2.96833
              H 2  -- H 16                   0.01        2.96833
              H 8  -- H 10                   0.01        2.96833
              H 4  -- H 14                   0.01        2.96833
              H 3  -- H 17                   0.01        2.96833
              H 4  -- H 6                    0.01        2.96833
              H 1  -- H 3                    0.01        2.96833
              H 22 -- H 24                   0.01        2.96833
              H 19 -- H 21                   0.01        2.96833
              H 16 -- H 18                   0.01        2.96833
              H 13 -- H 15                   0.01        2.96833
              H 10 -- H 12                   0.01        2.96833
              H 7  -- H 9                    0.01        2.96833
              H 8  -- H 12                   0.01        2.96833
              H 21 -- H 23                   0.01        2.96833
              H 5  -- H 15                   0.01        2.96833
              H 2  -- H 18                   0.01        2.96833
              H 9  -- H 11                   0.01        2.96833
              H 20 -- H 24                   0.01        2.96833
              H 6  -- H 14                   0.01        2.96833
              H 1  -- H 17                   0.01        2.96833
======================================================================


Writing analysis data to Cmca-12.castep_bin

Writing model to Cmca-12.check
 
 A BibTeX formatted list of references used in this run has been written to 
 Cmca-12.bib
 
Initialisation time =      2.70 s
Calculation time    =  41199.61 s
Finalisation time   =      2.80 s
Total time          =  41205.11 s
Peak Memory Use     = 1168668 kB
  
Overall parallel efficiency rating: Poor (40%)                                  
  
Data was distributed by:-
G-vector (8-way); efficiency rating: Poor (41%)                                 
