 +-------------------------------------------------+
 |                                                 |
 |      CCC   AA    SSS  TTTTT  EEEEE  PPPP        |
 |     C     A  A  S       T    E      P   P       |
 |     C     AAAA   SS     T    EEE    PPPP        |
 |     C     A  A     S    T    E      P           |
 |      CCC  A  A  SSS     T    EEEEE  P           |
 |                                                 |
 +-------------------------------------------------+
 |                                                 |
 | Welcome to Academic Release CASTEP version 18.1 |          
 | Ab Initio Total Energy Program                  |
 |                                                 |
 | Authors:                                        |
 | M. Segall, M. Probert, C. Pickard, P. Hasnip,   |
 | S. Clark, K. Refson, J. R. Yates, M. Payne      |
 |                                                 |
 | Contributors:                                   |
 | P. Lindan, P. Haynes, J. White, V. Milman,      |
 | N. Govind, M. Gibson, P. Tulip, V. Cocula,      |
 | B. Montanari, D. Quigley, M. Glover,            |
 | L. Bernasconi, A. Perlov, M. Plummer,           |
 | E. McNellis, J. Meyer, J. Gale, D. Jochym       |
 | J. Aarons, B. Walker, R. Gillen, D. Jones       |
 | T. Green, I. J. Bush, C. J. Armstrong,          |
 | E. J. Higgins, E. L. Brown, M. S. McFly,        |
 | J. Wilkins, B-C. Shih, P. J. P. Byrne           |
 |                                                 |
 | Copyright (c) 2000 - 2017                       |
 |                                                 |
 |     Distributed under the terms of an           |
 |     Agreement between the United Kingdom        |
 |     Car-Parrinello (UKCP) Consortium,           |
 |     Daresbury Laboratory and Accelrys, Inc.     |
 |                                                 |
 | Please cite                                     |
 |                                                 |
 |     "First principles methods using CASTEP"     |
 |                                                 |
 |         Zeitschrift fuer Kristallographie       |
 |           220(5-6) pp. 567-570 (2005)           |
 |                                                 |
 | S. J. Clark, M. D. Segall, C. J. Pickard,       |
 | P. J. Hasnip, M. J. Probert, K. Refson,         |
 | M. C. Payne                                     |
 |                                                 |
 |       in all publications arising from          |
 |              your use of CASTEP                 |
 |                                                 |
 +-------------------------------------------------+


 Compiled for linux_x86_64_gfortran4.8 on Thu, 19 Jul 2018 15:42:32 +0100
 from code version 70483bd0ad64+  Sun, 10 Dec 2017 12:18:29 +0000
 Compiler: GNU Fortran 4.8.5; Optimisation: fast
 MATHLIBS: Intel MKL(2018.0.0) (LAPACK version 3.7.0)
 FFT Lib : mkl
 Fundamental constants values: CODATA 2014

 Run started: Wed, 26 Aug 2020 13:57:08 +0100

 Atomic calculation performed for H: 1s1

 Converged in 41 iterations to an ae energy of -12.488 eV

   ============================================================                
   | Pseudopotential Report - Date of generation 26-08-2020   |                
   ------------------------------------------------------------                
   | Element: H Ionic charge:  1.00 Level of theory: PBE      |                
   | Atomic Solver: Koelling-Harmon                           |                
   |                                                          |                
   |               Reference Electronic Structure             |                
   |         Orbital         Occupation         Energy        |                
   |            1s              1.000           -0.239        |                
   |                                                          |                
   |                 Pseudopotential Definition               |                
   |        Beta     l      e      Rc     scheme   norm       |                
   |         loc     0   -0.239   0.702     qc      1         |                
   |                                                          |                
   | No charge augmentation                                   |                
   | No partial core correction                               |                
   ------------------------------------------------------------                
   | "0|0.7|2|6|8|10L(qc=10)"                                 |                
   ------------------------------------------------------------                
   |      Author: Chris J. Pickard, Cambridge University      |                
   ============================================================                

 Pseudo atomic calculation performed for H 1s1

 Converged in 24 iterations to a total energy of -12.4843 eV

 Calculation parallelised over 32 processes.
 Data is distributed by k-point(32-way)

 ************************************ Title ************************************
 

 ***************************** General Parameters ******************************
  
 output verbosity                               : normal  (1)
 write checkpoint data to                       : Hibam.check
 type of calculation                            : geometry optimization
 stress calculation                             : on
 density difference calculation                 : off
 electron localisation func (ELF) calculation   : off
 Hirshfeld analysis                             : off
 unlimited duration calculation
 timing information                             : on
 memory usage estimate                          : on
 write extra output files                       : on
 write final potential to formatted file        : off
 write final density to formatted file          : off
 write structure in CELL formatted file         : on
 write BibTeX reference list                    : on
 write OTFG pseudopotential files               : on
 write electrostatic potential file             : on
 write bands file                               : on
 checkpoint writing                             : both castep_bin and check files
  
 output         length unit                     : A
 output           mass unit                     : amu
 output           time unit                     : ps
 output         charge unit                     : e
 output           spin unit                     : hbar/2
 output         energy unit                     : eV
 output          force unit                     : eV/A
 output       velocity unit                     : A/ps
 output       pressure unit                     : GPa
 output     inv_length unit                     : 1/A
 output      frequency unit                     : cm-1
 output force constant unit                     : eV/A**2
 output         volume unit                     : A**3
 output   IR intensity unit                     : (D/A)**2/amu
 output         dipole unit                     : D
 output         efield unit                     : eV/A/e
 output        entropy unit                     : J/mol/K
  
 wavefunctions paging                           : none
 random number generator seed                   : randomised (135708343)
 data distribution                              : optimal for this architecture
 optimization strategy                          : maximize speed(+++)

 *********************** Exchange-Correlation Parameters ***********************
  
 using functional                               : Perdew Burke Ernzerhof
 relativistic treatment                         : Koelling-Harmon
 DFT+D: Semi-empirical dispersion correction    : off

 ************************* Pseudopotential Parameters **************************
  
 pseudopotential representation                 : reciprocal space
 <beta|phi> representation                      : reciprocal space
 spin-orbit coupling                            : off

 **************************** Basis Set Parameters *****************************
  
 plane wave basis set cut-off                   :  1200.0000   eV
 size of standard grid                          :     2.0000
 size of   fine   gmax                          :    35.4943   1/A
 finite basis set correction                    : automatic
 number of sample energies                      :          3
           sample  spacing                      :     5.0000   eV

 **************************** Electronic Parameters ****************************
  
 number of  electrons                           :  16.00    
 net charge of system                           :  0.000    
 treating system as non-spin-polarized
 number of bands                                :          8

 ********************* Electronic Minimization Parameters **********************
  
 Method: Treating system as non-metallic,
         and number of  SD  steps               :          1
         and number of  CG  steps               :          4
  
 total energy / atom convergence tol.           : 0.1000E-10   eV
 eigen-energy convergence tolerance             : 0.2000E-10   eV
 max force / atom convergence tol.              : ignored
 convergence tolerance window                   :          3   cycles
 max. number of SCF cycles                      :        100
 periodic dipole correction                     : NONE

 ************************** Density Mixing Parameters **************************
  
 density-mixing scheme                          : Broyden
 max. length of mixing history                  :         20
 charge density mixing amplitude                : 0.8000    
 cut-off energy for mixing                      :  1200.       eV

 *********************** Population Analysis Parameters ************************
  
 Population analysis with cutoff                :  3.000       A
 Population analysis output                     : summary and pdos components

 ********************** Geometry Optimization Parameters ***********************
  
 optimization method                            : LBFGS
 max. no. of LBFGS updates                      : unbounded
 variable cell method                           : fixed basis quality
 max. number of steps                           :         60
 estimated bulk modulus                         :  500.0       GPa
 estimated <frequency>                          :  1668.       cm-1
 geom line minimiser                            : on
 with line minimiser tolerance                  :     0.4000
 total energy convergence tolerance             : 0.1000E-08   eV/atom
        max ionic |force| tolerance             : 0.1000E-04   eV/A
 max ionic |displacement| tolerance             : 0.1000E-04   A
   max |stress component| tolerance             : 0.1000E-04   GPa
 convergence tolerance window                   :          2   steps
 backup results every                           :      14400   seconds
 write geom trajectory file                     : on

 *******************************************************************************
  

                           -------------------------------
                                      Unit Cell
                           -------------------------------
        Real Lattice(A)                      Reciprocal Lattice(1/A)
     2.9115310     0.0000000     0.0000000        2.158034818  -0.000000000   0.000000000
     0.0000000     2.9011818     0.0000000       -0.000000000   2.165733050   0.000000000
     0.0000000     0.0000000     5.7494611        0.000000000   0.000000000   1.092830309

                       Lattice parameters(A)       Cell Angles
                    a =      2.911531          alpha =   90.000000
                    b =      2.901182          beta  =   90.000000
                    c =      5.749461          gamma =   90.000000

                       Current cell volume =            48.565012       A**3
                                   density =             0.332071   AMU/A**3
                                           =             0.551417     g/cm^3

                           -------------------------------
                                     Cell Contents
                           -------------------------------
                         Total number of ions in cell =   16
                      Total number of species in cell =    1
                        Max number of any one species =   16

            xxxxxxxxxxxxxxxxxxxxxxxxxxxxxxxxxxxxxxxxxxxxxxxxxxxxxxxxxxxx
            x  Element    Atom        Fractional coordinates of atoms  x
            x            Number           u          v          w      x
            x----------------------------------------------------------x
            x  H            1         0.429379   0.394967   0.000000   x 
            x  H            2        -0.429379   0.394967   0.500000   x 
            x  H            3         0.429379  -0.394967   0.500000   x 
            x  H            4        -0.429379  -0.394967   0.000000   x 
            x  H            5         0.374076  -0.000000   0.250000   x 
            x  H            6        -0.374076   0.000000   0.750000   x 
            x  H            7         0.374076   0.000000   0.750000   x 
            x  H            8        -0.374076  -0.000000   0.250000   x 
            x  H            9         0.929379   0.894967   0.500000   x 
            x  H           10        -0.929379   0.894967   0.000000   x 
            x  H           11         0.929379  -0.894967   0.000000   x 
            x  H           12        -0.929379  -0.894967   0.500000   x 
            x  H           13         0.874076   0.500000   0.750000   x 
            x  H           14        -0.874076   0.500000   0.250000   x 
            x  H           15         0.874076   0.500000   0.250000   x 
            x  H           16        -0.874076   0.500000   0.750000   x 
            xxxxxxxxxxxxxxxxxxxxxxxxxxxxxxxxxxxxxxxxxxxxxxxxxxxxxxxxxxxx


                         No user defined ionic velocities

                           -------------------------------
                                   Details of Species
                           -------------------------------

                               Mass of species in AMU
                                    H    1.0079400

                          Electric Quadrupole Moment (Barn)
                                    H    0.0028600 Isotope  2

                          Files used for pseudopotentials:
                                    H 0|0.7|2|6|8|10L(qc=10)

                           -------------------------------
                              k-Points For BZ Sampling
                           -------------------------------
                       MP grid size for SCF calculation is  8  8  8
                            with an offset of   0.000  0.000  0.000
                       Number of kpoints used =            64

                           -------------------------------
                               Symmetry and Constraints
                           -------------------------------

                      Cell is a supercell containing 2 primitive cells
                      Maximum deviation from symmetry = 0.307083E-14     ANG

                      Number of symmetry operations   =          16
                      Number of ionic constraints     =           3
                      Point group of crystal =     8: D2h, mmm, 2/m 2/m 2/m
                      Space group of crystal =    72: Ibam, -I 2 2c

             Set iprint > 1 for details on symmetry rotations/translations

                         Centre of mass is constrained
             Set iprint > 1 for details of linear ionic constraints

                         Number of cell constraints= 3
                         Cell constraints are:  1 2 3 0 0 0

                         External pressure/stress (GPa)
                         40.00000   0.00000   0.00000
                                   40.00000   0.00000
                                             40.00000
  
+---------------- MEMORY AND SCRATCH DISK ESTIMATES PER PROCESS --------------+
|                                                     Memory          Disk    |
| Baseline code, static data and system overhead      479.0 MB         0.0 MB |
| BLAS internal memory storage                          0.0 MB         0.0 MB |
| Model and support data                               36.8 MB         0.0 MB |
| Electronic energy minimisation requirements          21.9 MB         0.0 MB |
| Force calculation requirements                       10.7 MB         0.0 MB |
| Stress calculation requirements                      13.5 MB         0.0 MB |
|                                               ----------------------------- |
| Approx. total storage required per process          537.7 MB         0.0 MB |
|                                                                             |
| Requirements will fluctuate during execution and may exceed these estimates |
+-----------------------------------------------------------------------------+
Calculating finite basis set correction with  3 cut-off energies.
Calculating total energy with cut-off of 1190.000 eV.
------------------------------------------------------------------------ <-- SCF
SCF loop      Energy                           Energy gain       Timer   <-- SCF
                                               per atom          (sec)   <-- SCF
------------------------------------------------------------------------ <-- SCF
Initial   4.16889199E+002                                          4.56  <-- SCF
      1  -1.96955062E+002                    3.83652663E+001       5.49  <-- SCF
      2  -2.47901541E+002                    3.18415499E+000       6.15  <-- SCF
      3  -2.48839740E+002                    5.86373814E-002       6.67  <-- SCF
      4  -2.47159572E+002                   -1.05010490E-001       7.95  <-- SCF
      5  -2.47106264E+002                   -3.33174577E-003       9.21  <-- SCF
      6  -2.47108962E+002                    1.68635977E-004      10.58  <-- SCF
      7  -2.47109278E+002                    1.97761371E-005      11.84  <-- SCF
      8  -2.47109280E+002                    7.22093123E-008      13.12  <-- SCF
      9  -2.47109280E+002                    6.23342357E-009      14.41  <-- SCF
     10  -2.47109280E+002                    1.73530303E-011      15.44  <-- SCF
     11  -2.47109280E+002                    1.36552397E-012      16.46  <-- SCF
     12  -2.47109280E+002                    4.71287034E-013      17.49  <-- SCF
------------------------------------------------------------------------ <-- SCF
 
Final energy =  -247.1092796701     eV
(energy not corrected for finite basis set)
 
Calculating total energy with cut-off of 1195.000 eV.
------------------------------------------------------------------------ <-- SCF
SCF loop      Energy                           Energy gain       Timer   <-- SCF
                                               per atom          (sec)   <-- SCF
------------------------------------------------------------------------ <-- SCF
Initial  -2.47109280E+002                                         18.59  <-- SCF
      1  -2.47110420E+002                    7.12760605E-005      19.30  <-- SCF
      2  -2.47110420E+002                    7.61974459E-011      20.56  <-- SCF
      3  -2.47110421E+002                    3.57633688E-008      21.85  <-- SCF
      4  -2.47110421E+002                    2.20545414E-009      23.14  <-- SCF
      5  -2.47110421E+002                    2.90536372E-011      24.22  <-- SCF
      6  -2.47110421E+002                    1.28395506E-012      25.25  <-- SCF
      7  -2.47110421E+002                    4.56181680E-013      26.28  <-- SCF
------------------------------------------------------------------------ <-- SCF
 
Final energy =  -247.1104206963     eV
(energy not corrected for finite basis set)
 
Calculating total energy with cut-off of 1200.000 eV.
------------------------------------------------------------------------ <-- SCF
SCF loop      Energy                           Energy gain       Timer   <-- SCF
                                               per atom          (sec)   <-- SCF
------------------------------------------------------------------------ <-- SCF
Initial  -2.47110421E+002                                         27.39  <-- SCF
      1  -2.47111508E+002                    6.79867767E-005      28.09  <-- SCF
      2  -2.47111508E+002                    7.27957203E-011      29.33  <-- SCF
      3  -2.47111509E+002                    3.32575085E-008      30.63  <-- SCF
      4  -2.47111509E+002                    1.98065929E-009      31.90  <-- SCF
      5  -2.47111509E+002                    2.61866411E-011      32.94  <-- SCF
      6  -2.47111509E+002                    1.95765383E-012      34.00  <-- SCF
      7  -2.47111509E+002                    7.28078046E-013      35.03  <-- SCF
------------------------------------------------------------------------ <-- SCF
 
Final energy =  -247.1115090501     eV
(energy not corrected for finite basis set)
 
 For future reference: finite basis dEtot/dlog(Ecut) =      -0.267549eV
 Total energy corrected for finite basis set =    -247.111518 eV
 
+---------------- MEMORY AND SCRATCH DISK ESTIMATES PER PROCESS --------------+
|                                                     Memory          Disk    |
| Model and support data                               43.5 MB         0.0 MB |
| Electronic energy minimisation requirements          21.9 MB         0.0 MB |
| Geometry minimisation requirements                   24.6 MB         0.0 MB |
|                                               ----------------------------- |
| Approx. total storage required per process           90.0 MB         0.0 MB |
|                                                                             |
| Requirements will fluctuate during execution and may exceed these estimates |
+-----------------------------------------------------------------------------+
 

 ******************************** Symmetrised Forces ********************************
 *                                                                                  *
 *                           Cartesian components (eV/A)                            *
 * -------------------------------------------------------------------------------- *
 *                         x                    y                    z              *
 *                                                                                  *
 * H               1      0.00000              0.00000             -0.00000         *
 * H               2     -0.00000              0.00000             -0.00000         *
 * H               3      0.00000             -0.00000             -0.00000         *
 * H               4     -0.00000             -0.00000             -0.00000         *
 * H               5      0.00000             -0.00000              0.00000         *
 * H               6     -0.00000             -0.00000              0.00000         *
 * H               7      0.00000             -0.00000              0.00000         *
 * H               8     -0.00000              0.00000             -0.00000         *
 * H               9      0.00000              0.00000             -0.00000         *
 * H              10     -0.00000              0.00000             -0.00000         *
 * H              11      0.00000             -0.00000             -0.00000         *
 * H              12     -0.00000             -0.00000             -0.00000         *
 * H              13      0.00000              0.00000              0.00000         *
 * H              14     -0.00000              0.00000              0.00000         *
 * H              15      0.00000             -0.00000             -0.00000         *
 * H              16     -0.00000             -0.00000             -0.00000         *
 *                                                                                  *
 ************************************************************************************

 *********** Symmetrised Stress Tensor ***********
 *                                               *
 *          Cartesian components (GPa)           *
 * --------------------------------------------- *
 *             x             y             z     *
 *                                               *
 *  x    -49.992117     -0.000000      0.000000  *
 *  y     -0.000000    -49.992123      0.000000  *
 *  z      0.000000      0.000000    -49.992120  *
 *                                               *
 *  Pressure:   49.9921                          *
 *                                               *
 *************************************************
 LBFGS: finished iteration     0 with enthalpy= -2.34986759E+002 eV
  
 +-----------+-----------------+-----------------+------------+-----+ <-- LBFGS
 | Parameter |      value      |    tolerance    |    units   | OK? | <-- LBFGS
 +-----------+-----------------+-----------------+------------+-----+ <-- LBFGS
 |  dE/ion   |   0.000000E+000 |   1.000000E-009 |         eV | No  | <-- LBFGS
 |  |F|max   |   1.726552E-007 |   1.000000E-005 |       eV/A | Yes | <-- LBFGS
 |  |dR|max  |   0.000000E+000 |   1.000000E-005 |          A | No  | <-- LBFGS
 |   Smax    |   9.992123E+000 |   1.000000E-005 |        GPa | No  | <-- LBFGS
 +-----------+-----------------+-----------------+------------+-----+ <-- LBFGS
  

================================================================================
 Starting LBFGS iteration          1 ...
================================================================================
  
 +------------+-------------+-------------+-----------------+ <-- min LBFGS
 |    Step    |   lambda    |   F.delta'  |    enthalpy     | <-- min LBFGS
 +------------+-------------+-------------+-----------------+ <-- min LBFGS
 |  previous  |    0.000000 |    0.192788 |     -234.986759 | <-- min LBFGS
 +------------+-------------+-------------+-----------------+ <-- min LBFGS
  

--------------------------------------------------------------------------------
 LBFGS: starting iteration         1 with trial guess (lambda=  1.000000)
--------------------------------------------------------------------------------
 
+---------------- MEMORY AND SCRATCH DISK ESTIMATES PER PROCESS --------------+
|                                                     Memory          Disk    |
| Model and support data                               43.6 MB         0.0 MB |
| Electronic energy minimisation requirements          22.2 MB         0.0 MB |
| Geometry minimisation requirements                   24.9 MB         0.0 MB |
|                                               ----------------------------- |
| Approx. total storage required per process           90.7 MB         0.0 MB |
|                                                                             |
| Requirements will fluctuate during execution and may exceed these estimates |
+-----------------------------------------------------------------------------+
 

                           -------------------------------
                                      Unit Cell
                           -------------------------------
        Real Lattice(A)              Reciprocal Lattice(1/A)
     2.9309259     0.0000000     0.0000000        2.143754388  -0.000000000   0.000000000
     0.0000000     2.9205078     0.0000000       -0.000000000   2.151401670   0.000000000
     0.0000000     0.0000000     5.7877606        0.000000000   0.000000000   1.085598687

                       Lattice parameters(A)       Cell Angles
                    a =      2.930926          alpha =   90.000000
                    b =      2.920508          beta  =   90.000000
                    c =      5.787761          gamma =   90.000000

                Current cell volume =            49.542027 A**3

                           -------------------------------
                                     Cell Contents
                           -------------------------------

            xxxxxxxxxxxxxxxxxxxxxxxxxxxxxxxxxxxxxxxxxxxxxxxxxxxxxxxxxxxxxxxxx
            x  Element         Atom        Fractional coordinates of atoms  x
            x                 Number           u          v          w      x
            x---------------------------------------------------------------x
            x  H                 1         0.429379   0.394967   0.000000   x
            x  H                 2        -0.429379   0.394967   0.500000   x
            x  H                 3         0.429379  -0.394967   0.500000   x
            x  H                 4        -0.429379  -0.394967   0.000000   x
            x  H                 5         0.374076   0.000000   0.250000   x
            x  H                 6        -0.374076  -0.000000   0.750000   x
            x  H                 7         0.374076   0.000000   0.750000   x
            x  H                 8        -0.374076  -0.000000   0.250000   x
            x  H                 9         0.929379   0.894967   0.500000   x
            x  H                10        -0.929379   0.894967   0.000000   x
            x  H                11         0.929379  -0.894967   0.000000   x
            x  H                12        -0.929379  -0.894967   0.500000   x
            x  H                13         0.874076   0.500000   0.750000   x
            x  H                14        -0.874076   0.500000   0.250000   x
            x  H                15         0.874076   0.500000   0.250000   x
            x  H                16        -0.874076   0.500000   0.750000   x
            xxxxxxxxxxxxxxxxxxxxxxxxxxxxxxxxxxxxxxxxxxxxxxxxxxxxxxxxxxxxxxxxx


------------------------------------------------------------------------ <-- SCF
SCF loop      Energy                           Energy gain       Timer   <-- SCF
                                               per atom          (sec)   <-- SCF
------------------------------------------------------------------------ <-- SCF
Initial  -2.47395787E+002                                         38.71  <-- SCF
      1  -2.47405683E+002                    6.18452320E-004      39.42  <-- SCF
      2  -2.47405701E+002                    1.11549900E-006      40.71  <-- SCF
      3  -2.47405297E+002                   -2.52081063E-005      41.98  <-- SCF
      4  -2.47405287E+002                   -6.22429202E-007      43.24  <-- SCF
      5  -2.47405288E+002                    3.50508100E-008      44.67  <-- SCF
      6  -2.47405288E+002                    3.83630062E-009      45.94  <-- SCF
      7  -2.47405288E+002                    1.67488161E-011      46.97  <-- SCF
      8  -2.47405288E+002                    1.72201032E-012      47.99  <-- SCF
      9  -2.47405288E+002                    3.50444205E-013      49.02  <-- SCF
------------------------------------------------------------------------ <-- SCF
 
Final energy =  -247.4052879005     eV
(energy not corrected for finite basis set)
 

 ******************************** Symmetrised Forces ********************************
 *                                                                                  *
 *                           Cartesian components (eV/A)                            *
 * -------------------------------------------------------------------------------- *
 *                         x                    y                    z              *
 *                                                                                  *
 * H               1      0.08372              0.12433             -0.00000         *
 * H               2     -0.08372              0.12433             -0.00000         *
 * H               3      0.08372             -0.12433             -0.00000         *
 * H               4     -0.08372             -0.12433             -0.00000         *
 * H               5      0.15003              0.00000             -0.00000         *
 * H               6     -0.15003              0.00000              0.00000         *
 * H               7      0.15003              0.00000              0.00000         *
 * H               8     -0.15003              0.00000             -0.00000         *
 * H               9      0.08372              0.12433             -0.00000         *
 * H              10     -0.08372              0.12433             -0.00000         *
 * H              11      0.08372             -0.12433             -0.00000         *
 * H              12     -0.08372             -0.12433             -0.00000         *
 * H              13      0.15003              0.00000              0.00000         *
 * H              14     -0.15003              0.00000              0.00000         *
 * H              15      0.15003              0.00000             -0.00000         *
 * H              16     -0.15003              0.00000             -0.00000         *
 *                                                                                  *
 ************************************************************************************

 *********** Symmetrised Stress Tensor ***********
 *                                               *
 *          Cartesian components (GPa)           *
 * --------------------------------------------- *
 *             x             y             z     *
 *                                               *
 *  x    -45.495823     -0.000000      0.000000  *
 *  y     -0.000000    -46.404070      0.000000  *
 *  z      0.000000      0.000000    -47.406690  *
 *                                               *
 *  Pressure:   46.4355                          *
 *                                               *
 *************************************************
  
 +------------+-------------+-------------+-----------------+ <-- min LBFGS
 |    Step    |   lambda    |   F.delta'  |    enthalpy     | <-- min LBFGS
 +------------+-------------+-------------+-----------------+ <-- min LBFGS
 |  previous  |    0.000000 |    0.192788 |     -234.986759 | <-- min LBFGS
 | trial step |    1.000000 |    0.125827 |     -235.036601 | <-- min LBFGS
 +------------+-------------+-------------+-----------------+ <-- min LBFGS
  

--------------------------------------------------------------------------------
 LBFGS: improving iteration         1 with line minimization (lambda=  2.879107)
--------------------------------------------------------------------------------
 
+---------------- MEMORY AND SCRATCH DISK ESTIMATES PER PROCESS --------------+
|                                                     Memory          Disk    |
| Model and support data                               43.7 MB         0.0 MB |
| Electronic energy minimisation requirements          22.7 MB         0.0 MB |
| Geometry minimisation requirements                   25.4 MB         0.0 MB |
|                                               ----------------------------- |
| Approx. total storage required per process           91.8 MB         0.0 MB |
|                                                                             |
| Requirements will fluctuate during execution and may exceed these estimates |
+-----------------------------------------------------------------------------+
 

                           -------------------------------
                                      Unit Cell
                           -------------------------------
        Real Lattice(A)              Reciprocal Lattice(1/A)
     2.9673710     0.0000000     0.0000000        2.117424906  -0.000000000   0.000000000
     0.0000000     2.9568234     0.0000000       -0.000000000   2.124978249   0.000000000
     0.0000000     0.0000000     5.8597295        0.000000000   0.000000000   1.072265416

                       Lattice parameters(A)       Cell Angles
                    a =      2.967371          alpha =   90.000000
                    b =      2.956823          beta  =   90.000000
                    c =      5.859730          gamma =   90.000000

                Current cell volume =            51.413219 A**3

                           -------------------------------
                                     Cell Contents
                           -------------------------------

            xxxxxxxxxxxxxxxxxxxxxxxxxxxxxxxxxxxxxxxxxxxxxxxxxxxxxxxxxxxxxxxxx
            x  Element         Atom        Fractional coordinates of atoms  x
            x                 Number           u          v          w      x
            x---------------------------------------------------------------x
            x  H                 1         0.429379   0.394967   0.000000   x
            x  H                 2        -0.429379   0.394967   0.500000   x
            x  H                 3         0.429379  -0.394967   0.500000   x
            x  H                 4        -0.429379  -0.394967   0.000000   x
            x  H                 5         0.374076   0.000000   0.250000   x
            x  H                 6        -0.374076  -0.000000   0.750000   x
            x  H                 7         0.374076   0.000000   0.750000   x
            x  H                 8        -0.374076  -0.000000   0.250000   x
            x  H                 9         0.929379   0.894967   0.500000   x
            x  H                10        -0.929379   0.894967   0.000000   x
            x  H                11         0.929379  -0.894967   0.000000   x
            x  H                12        -0.929379  -0.894967   0.500000   x
            x  H                13         0.874076   0.500000   0.750000   x
            x  H                14        -0.874076   0.500000   0.250000   x
            x  H                15         0.874076   0.500000   0.250000   x
            x  H                16        -0.874076   0.500000   0.750000   x
            xxxxxxxxxxxxxxxxxxxxxxxxxxxxxxxxxxxxxxxxxxxxxxxxxxxxxxxxxxxxxxxxx


------------------------------------------------------------------------ <-- SCF
SCF loop      Energy                           Energy gain       Timer   <-- SCF
                                               per atom          (sec)   <-- SCF
------------------------------------------------------------------------ <-- SCF
Initial  -2.47883298E+002                                         52.66  <-- SCF
      1  -2.47911922E+002                    1.78895631E-003      53.39  <-- SCF
      2  -2.47911982E+002                    3.77451684E-006      54.66  <-- SCF
      3  -2.47910568E+002                   -8.83738462E-005      55.95  <-- SCF
      4  -2.47910533E+002                   -2.19427613E-006      57.23  <-- SCF
      5  -2.47910535E+002                    1.31630052E-007      58.52  <-- SCF
      6  -2.47910535E+002                    1.47431756E-008      59.81  <-- SCF
      7  -2.47910535E+002                    6.47113350E-011      60.85  <-- SCF
      8  -2.47910535E+002                    7.38651793E-012      61.89  <-- SCF
      9  -2.47910535E+002                   -1.38969254E-013      62.92  <-- SCF
------------------------------------------------------------------------ <-- SCF
 
Final energy =  -247.9105353686     eV
(energy not corrected for finite basis set)
 

 ******************************** Symmetrised Forces ********************************
 *                                                                                  *
 *                           Cartesian components (eV/A)                            *
 * -------------------------------------------------------------------------------- *
 *                         x                    y                    z              *
 *                                                                                  *
 * H               1      0.23472              0.34846              0.00000         *
 * H               2     -0.23472              0.34846              0.00000         *
 * H               3      0.23472             -0.34846              0.00000         *
 * H               4     -0.23472             -0.34846              0.00000         *
 * H               5      0.42038             -0.00000             -0.00000         *
 * H               6     -0.42038             -0.00000             -0.00000         *
 * H               7      0.42038             -0.00000              0.00000         *
 * H               8     -0.42038             -0.00000              0.00000         *
 * H               9      0.23472              0.34846              0.00000         *
 * H              10     -0.23472              0.34846              0.00000         *
 * H              11      0.23472             -0.34846              0.00000         *
 * H              12     -0.23472             -0.34846              0.00000         *
 * H              13      0.42038             -0.00000              0.00000         *
 * H              14     -0.42038              0.00000              0.00000         *
 * H              15      0.42038             -0.00000             -0.00000         *
 * H              16     -0.42038             -0.00000             -0.00000         *
 *                                                                                  *
 ************************************************************************************

 *********** Symmetrised Stress Tensor ***********
 *                                               *
 *          Cartesian components (GPa)           *
 * --------------------------------------------- *
 *             x             y             z     *
 *                                               *
 *  x    -37.693050      0.000000      0.000000  *
 *  y      0.000000    -40.173188      0.000000  *
 *  z      0.000000      0.000000    -42.916535  *
 *                                               *
 *  Pressure:   40.2609                          *
 *                                               *
 *************************************************
  
 +------------+-------------+-------------+-----------------+ <-- min LBFGS
 |    Step    |   lambda    |   F.delta'  |    enthalpy     | <-- min LBFGS
 +------------+-------------+-------------+-----------------+ <-- min LBFGS
 |  previous  |    0.000000 |    0.192788 |     -234.986759 | <-- min LBFGS
 | trial step |    1.000000 |    0.125827 |     -235.036601 | <-- min LBFGS
 |  line step |    2.879107 |    0.005230 |     -235.074675 | <-- min LBFGS
 +------------+-------------+-------------+-----------------+ <-- min LBFGS
  
 LBFGS: finished iteration     1 with enthalpy= -2.35074675E+002 eV
  
 +-----------+-----------------+-----------------+------------+-----+ <-- LBFGS
 | Parameter |      value      |    tolerance    |    units   | OK? | <-- LBFGS
 +-----------+-----------------+-----------------+------------+-----+ <-- LBFGS
 |  dE/ion   |   5.494738E-003 |   1.000000E-009 |         eV | No  | <-- LBFGS
 |  |F|max   |   4.203778E-001 |   1.000000E-005 |       eV/A | No  | <-- LBFGS
 |  |dR|max  |   4.913769E-008 |   1.000000E-005 |          A | Yes | <-- LBFGS
 |   Smax    |   2.916535E+000 |   1.000000E-005 |        GPa | No  | <-- LBFGS
 +-----------+-----------------+-----------------+------------+-----+ <-- LBFGS
  

================================================================================
 Starting LBFGS iteration          2 ...
================================================================================
  
 +------------+-------------+-------------+-----------------+ <-- min LBFGS
 |    Step    |   lambda    |   F.delta'  |    enthalpy     | <-- min LBFGS
 +------------+-------------+-------------+-----------------+ <-- min LBFGS
 |  previous  |    0.000000 |    0.134312 |     -235.074675 | <-- min LBFGS
 +------------+-------------+-------------+-----------------+ <-- min LBFGS
  

--------------------------------------------------------------------------------
 LBFGS: starting iteration         2 with trial guess (lambda=  1.000000)
--------------------------------------------------------------------------------
 
+---------------- MEMORY AND SCRATCH DISK ESTIMATES PER PROCESS --------------+
|                                                     Memory          Disk    |
| Model and support data                               43.9 MB         0.0 MB |
| Electronic energy minimisation requirements          24.2 MB         0.0 MB |
| Geometry minimisation requirements                   27.1 MB         0.0 MB |
|                                               ----------------------------- |
| Approx. total storage required per process           95.2 MB         0.0 MB |
|                                                                             |
| Requirements will fluctuate during execution and may exceed these estimates |
+-----------------------------------------------------------------------------+
 

                           -------------------------------
                                      Unit Cell
                           -------------------------------
        Real Lattice(A)              Reciprocal Lattice(1/A)
     3.0609977     0.0000000     0.0000000        2.052659252  -0.000000000   0.000000000
     0.0000000     3.0552389     0.0000000       -0.000000000   2.056528321   0.000000000
     0.0000000     0.0000000     6.0659929        0.000000000   0.000000000   1.035804928

                       Lattice parameters(A)       Cell Angles
                    a =      3.060998          alpha =   90.000000
                    b =      3.055239          beta  =   90.000000
                    c =      6.065993          gamma =   90.000000

                Current cell volume =            56.729646 A**3

                           -------------------------------
                                     Cell Contents
                           -------------------------------

            xxxxxxxxxxxxxxxxxxxxxxxxxxxxxxxxxxxxxxxxxxxxxxxxxxxxxxxxxxxxxxxxx
            x  Element         Atom        Fractional coordinates of atoms  x
            x                 Number           u          v          w      x
            x---------------------------------------------------------------x
            x  H                 1         0.437570   0.407172   0.000000   x
            x  H                 2        -0.437570   0.407172   0.500000   x
            x  H                 3         0.437570  -0.407172   0.500000   x
            x  H                 4        -0.437570  -0.407172   0.000000   x
            x  H                 5         0.388746   0.000000   0.250000   x
            x  H                 6        -0.388746  -0.000000   0.750000   x
            x  H                 7         0.388746   0.000000   0.750000   x
            x  H                 8        -0.388746  -0.000000   0.250000   x
            x  H                 9         0.937570   0.907172   0.500000   x
            x  H                10        -0.937570   0.907172   0.000000   x
            x  H                11         0.937570  -0.907172   0.000000   x
            x  H                12        -0.937570  -0.907172   0.500000   x
            x  H                13         0.888746   0.500000   0.750000   x
            x  H                14        -0.888746   0.500000   0.250000   x
            x  H                15         0.888746   0.500000   0.250000   x
            x  H                16        -0.888746   0.500000   0.750000   x
            xxxxxxxxxxxxxxxxxxxxxxxxxxxxxxxxxxxxxxxxxxxxxxxxxxxxxxxxxxxxxxxxx


------------------------------------------------------------------------ <-- SCF
SCF loop      Energy                           Energy gain       Timer   <-- SCF
                                               per atom          (sec)   <-- SCF
------------------------------------------------------------------------ <-- SCF
Initial  -2.45460432E+002                                         66.61  <-- SCF
      1  -2.49003483E+002                    2.21440642E-001      67.32  <-- SCF
      2  -2.49012984E+002                    5.93814455E-004      68.61  <-- SCF
      3  -2.48689564E+002                   -2.02136944E-002      69.91  <-- SCF
      4  -2.48678979E+002                   -6.61587519E-004      71.20  <-- SCF
      5  -2.48679256E+002                    1.73359937E-005      72.49  <-- SCF
      6  -2.48679291E+002                    2.15126194E-006      73.79  <-- SCF
      7  -2.48679291E+002                    1.75174732E-008      75.08  <-- SCF
      8  -2.48679291E+002                    1.36175972E-009      76.37  <-- SCF
      9  -2.48679291E+002                    2.96850410E-011      77.41  <-- SCF
     10  -2.48679291E+002                    1.47428252E-012      78.45  <-- SCF
     11  -2.48679291E+002                    3.02107073E-014      79.49  <-- SCF
------------------------------------------------------------------------ <-- SCF
 
Final energy =  -248.6792911838     eV
(energy not corrected for finite basis set)
 

 ******************************** Symmetrised Forces ********************************
 *                                                                                  *
 *                           Cartesian components (eV/A)                            *
 * -------------------------------------------------------------------------------- *
 *                         x                    y                    z              *
 *                                                                                  *
 * H               1     -1.27325             -1.89786              0.00000         *
 * H               2      1.27325             -1.89786              0.00000         *
 * H               3     -1.27325              1.89786              0.00000         *
 * H               4      1.27325              1.89786              0.00000         *
 * H               5     -2.38887              0.00000             -0.00000         *
 * H               6      2.38887              0.00000              0.00000         *
 * H               7     -2.38887              0.00000              0.00000         *
 * H               8      2.38887              0.00000             -0.00000         *
 * H               9     -1.27325             -1.89786              0.00000         *
 * H              10      1.27325             -1.89786              0.00000         *
 * H              11     -1.27325              1.89786              0.00000         *
 * H              12      1.27325              1.89786              0.00000         *
 * H              13     -2.38887              0.00000             -0.00000         *
 * H              14      2.38887              0.00000              0.00000         *
 * H              15     -2.38887              0.00000              0.00000         *
 * H              16      2.38887              0.00000             -0.00000         *
 *                                                                                  *
 ************************************************************************************

 *********** Symmetrised Stress Tensor ***********
 *                                               *
 *          Cartesian components (GPa)           *
 * --------------------------------------------- *
 *             x             y             z     *
 *                                               *
 *  x    -55.075276     -0.000000      0.000000  *
 *  y     -0.000000    -43.352054      0.000000  *
 *  z      0.000000      0.000000    -30.995809  *
 *                                               *
 *  Pressure:   43.1410                          *
 *                                               *
 *************************************************
  
 +------------+-------------+-------------+-----------------+ <-- min LBFGS
 |    Step    |   lambda    |   F.delta'  |    enthalpy     | <-- min LBFGS
 +------------+-------------+-------------+-----------------+ <-- min LBFGS
 |  previous  |    0.000000 |    0.134312 |     -235.074675 | <-- min LBFGS
 | trial step |    1.000000 |   -0.700822 |     -234.516136 | <-- min LBFGS
 +------------+-------------+-------------+-----------------+ <-- min LBFGS
  

--------------------------------------------------------------------------------
 LBFGS: improving iteration         2 with line minimization (lambda=  0.160827)
--------------------------------------------------------------------------------

                           -------------------------------
                                      Unit Cell
                           -------------------------------
        Real Lattice(A)              Reciprocal Lattice(1/A)
     2.9824288     0.0000000     0.0000000        2.106734413  -0.000000000   0.000000000
     0.0000000     2.9726513     0.0000000       -0.000000000   2.113663778   0.000000000
     0.0000000     0.0000000     5.8929023        0.000000000   0.000000000   1.066229333

                       Lattice parameters(A)       Cell Angles
                    a =      2.982429          alpha =   90.000000
                    b =      2.972651          beta  =   90.000000
                    c =      5.892902          gamma =   90.000000

                Current cell volume =            52.244826 A**3

                           -------------------------------
                                     Cell Contents
                           -------------------------------

            xxxxxxxxxxxxxxxxxxxxxxxxxxxxxxxxxxxxxxxxxxxxxxxxxxxxxxxxxxxxxxxxx
            x  Element         Atom        Fractional coordinates of atoms  x
            x                 Number           u          v          w      x
            x---------------------------------------------------------------x
            x  H                 1         0.430696   0.396930   0.000000   x
            x  H                 2        -0.430696   0.396930   0.500000   x
            x  H                 3         0.430696  -0.396930   0.500000   x
            x  H                 4        -0.430696  -0.396930   0.000000   x
            x  H                 5         0.376435   0.000000   0.250000   x
            x  H                 6        -0.376435  -0.000000   0.750000   x
            x  H                 7         0.376435   0.000000   0.750000   x
            x  H                 8        -0.376435  -0.000000   0.250000   x
            x  H                 9         0.930696   0.896930   0.500000   x
            x  H                10        -0.930696   0.896930   0.000000   x
            x  H                11         0.930696  -0.896930   0.000000   x
            x  H                12        -0.930696  -0.896930   0.500000   x
            x  H                13         0.876435   0.500000   0.750000   x
            x  H                14        -0.876435   0.500000   0.250000   x
            x  H                15         0.876435   0.500000   0.250000   x
            x  H                16        -0.876435   0.500000   0.750000   x
            xxxxxxxxxxxxxxxxxxxxxxxxxxxxxxxxxxxxxxxxxxxxxxxxxxxxxxxxxxxxxxxxx


------------------------------------------------------------------------ <-- SCF
SCF loop      Energy                           Energy gain       Timer   <-- SCF
                                               per atom          (sec)   <-- SCF
------------------------------------------------------------------------ <-- SCF
Initial  -2.45633924E+002                                         83.16  <-- SCF
      1  -2.48395255E+002                    1.72583166E-001      83.89  <-- SCF
      2  -2.48401764E+002                    4.06827308E-004      85.17  <-- SCF
      3  -2.48155281E+002                   -1.54051791E-002      86.46  <-- SCF
      4  -2.48147664E+002                   -4.76027920E-004      87.75  <-- SCF
      5  -2.48147778E+002                    7.12448316E-006      89.03  <-- SCF
      6  -2.48147790E+002                    7.27846632E-007      90.33  <-- SCF
      7  -2.48147790E+002                    4.18453945E-009      91.63  <-- SCF
      8  -2.48147790E+002                    5.06990048E-010      92.89  <-- SCF
      9  -2.48147790E+002                    1.40902739E-011      93.93  <-- SCF
     10  -2.48147790E+002                    5.74003439E-013      94.97  <-- SCF
     11  -2.48147790E+002                   -4.68265963E-013      96.01  <-- SCF
------------------------------------------------------------------------ <-- SCF
 
Final energy =  -248.1477901580     eV
(energy not corrected for finite basis set)
 

 ******************************** Symmetrised Forces ********************************
 *                                                                                  *
 *                           Cartesian components (eV/A)                            *
 * -------------------------------------------------------------------------------- *
 *                         x                    y                    z              *
 *                                                                                  *
 * H               1      0.04564              0.06610              0.00000         *
 * H               2     -0.04564              0.06610              0.00000         *
 * H               3      0.04564             -0.06610              0.00000         *
 * H               4     -0.04564             -0.06610              0.00000         *
 * H               5      0.06661              0.00000             -0.00000         *
 * H               6     -0.06661             -0.00000             -0.00000         *
 * H               7      0.06661             -0.00000              0.00000         *
 * H               8     -0.06661             -0.00000              0.00000         *
 * H               9      0.04564              0.06610              0.00000         *
 * H              10     -0.04564              0.06610              0.00000         *
 * H              11      0.04564             -0.06610              0.00000         *
 * H              12     -0.04564             -0.06610              0.00000         *
 * H              13      0.06661              0.00000             -0.00000         *
 * H              14     -0.06661             -0.00000             -0.00000         *
 * H              15      0.06661              0.00000             -0.00000         *
 * H              16     -0.06661              0.00000              0.00000         *
 *                                                                                  *
 ************************************************************************************

 *********** Symmetrised Stress Tensor ***********
 *                                               *
 *          Cartesian components (GPa)           *
 * --------------------------------------------- *
 *             x             y             z     *
 *                                               *
 *  x    -39.932859     -0.000000      0.000000  *
 *  y     -0.000000    -40.306201      0.000000  *
 *  z      0.000000      0.000000    -40.790368  *
 *                                               *
 *  Pressure:   40.3431                          *
 *                                               *
 *************************************************
  
 +------------+-------------+-------------+-----------------+ <-- min LBFGS
 |    Step    |   lambda    |   F.delta'  |    enthalpy     | <-- min LBFGS
 +------------+-------------+-------------+-----------------+ <-- min LBFGS
 |  previous  |    0.000000 |    0.134312 |     -235.074675 | <-- min LBFGS
 | trial step |    1.000000 |   -0.700822 |     -234.516136 | <-- min LBFGS
 |  line step |    0.160827 |    0.027853 |     -235.104339 | <-- min LBFGS
 +------------+-------------+-------------+-----------------+ <-- min LBFGS
  
 LBFGS: finished iteration     2 with enthalpy= -2.35104339E+002 eV
  
 +-----------+-----------------+-----------------+------------+-----+ <-- LBFGS
 | Parameter |      value      |    tolerance    |    units   | OK? | <-- LBFGS
 +-----------+-----------------+-----------------+------------+-----+ <-- LBFGS
 |  dE/ion   |   1.854052E-003 |   1.000000E-009 |         eV | No  | <-- LBFGS
 |  |F|max   |   8.032403E-002 |   1.000000E-005 |       eV/A | No  | <-- LBFGS
 |  |dR|max  |   7.036710E-003 |   1.000000E-005 |          A | No  | <-- LBFGS
 |   Smax    |   7.903683E-001 |   1.000000E-005 |        GPa | No  | <-- LBFGS
 +-----------+-----------------+-----------------+------------+-----+ <-- LBFGS
  

================================================================================
 Starting LBFGS iteration          3 ...
================================================================================
  
 +------------+-------------+-------------+-----------------+ <-- min LBFGS
 |    Step    |   lambda    |   F.delta'  |    enthalpy     | <-- min LBFGS
 +------------+-------------+-------------+-----------------+ <-- min LBFGS
 |  previous  |    0.000000 |    0.023606 |     -235.104339 | <-- min LBFGS
 +------------+-------------+-------------+-----------------+ <-- min LBFGS
  

--------------------------------------------------------------------------------
 LBFGS: starting iteration         3 with trial guess (lambda=  1.000000)
--------------------------------------------------------------------------------

                           -------------------------------
                                      Unit Cell
                           -------------------------------
        Real Lattice(A)              Reciprocal Lattice(1/A)
     2.9887268     0.0000000     0.0000000        2.102294987  -0.000000000   0.000000000
     0.0000000     2.9789984     0.0000000       -0.000000000   2.109160347   0.000000000
     0.0000000     0.0000000     5.9059978        0.000000000   0.000000000   1.063865164

                       Lattice parameters(A)       Cell Angles
                    a =      2.988727          alpha =   90.000000
                    b =      2.978998          beta  =   90.000000
                    c =      5.905998          gamma =   90.000000

                Current cell volume =            52.583533 A**3

                           -------------------------------
                                     Cell Contents
                           -------------------------------

            xxxxxxxxxxxxxxxxxxxxxxxxxxxxxxxxxxxxxxxxxxxxxxxxxxxxxxxxxxxxxxxxx
            x  Element         Atom        Fractional coordinates of atoms  x
            x                 Number           u          v          w      x
            x---------------------------------------------------------------x
            x  H                 1         0.431246   0.397678   0.000000   x
            x  H                 2        -0.431246   0.397678   0.500000   x
            x  H                 3         0.431246  -0.397678   0.500000   x
            x  H                 4        -0.431246  -0.397678   0.000000   x
            x  H                 5         0.376768   0.000000   0.250000   x
            x  H                 6        -0.376768  -0.000000   0.750000   x
            x  H                 7         0.376768   0.000000   0.750000   x
            x  H                 8        -0.376768  -0.000000   0.250000   x
            x  H                 9         0.931246   0.897678   0.500000   x
            x  H                10        -0.931246   0.897678   0.000000   x
            x  H                11         0.931246  -0.897678   0.000000   x
            x  H                12        -0.931246  -0.897678   0.500000   x
            x  H                13         0.876768   0.500000   0.750000   x
            x  H                14        -0.876768   0.500000   0.250000   x
            x  H                15         0.876768   0.500000   0.250000   x
            x  H                16        -0.876768   0.500000   0.750000   x
            xxxxxxxxxxxxxxxxxxxxxxxxxxxxxxxxxxxxxxxxxxxxxxxxxxxxxxxxxxxxxxxxx


------------------------------------------------------------------------ <-- SCF
SCF loop      Energy                           Energy gain       Timer   <-- SCF
                                               per atom          (sec)   <-- SCF
------------------------------------------------------------------------ <-- SCF
Initial  -2.48224480E+002                                         99.70  <-- SCF
      1  -2.48234162E+002                    6.05134324E-004     100.42  <-- SCF
      2  -2.48234189E+002                    1.64513472E-006     101.69  <-- SCF
      3  -2.48233395E+002                   -4.96014462E-005     102.98  <-- SCF
      4  -2.48233370E+002                   -1.54061462E-006     104.27  <-- SCF
      5  -2.48233371E+002                    2.52301489E-008     105.56  <-- SCF
      6  -2.48233371E+002                    2.82374949E-009     106.84  <-- SCF
      7  -2.48233371E+002                    3.75247195E-011     107.88  <-- SCF
      8  -2.48233371E+002                    4.81558674E-012     108.93  <-- SCF
      9  -2.48233371E+002                    5.74003439E-013     109.97  <-- SCF
------------------------------------------------------------------------ <-- SCF
 
Final energy =  -248.2333708723     eV
(energy not corrected for finite basis set)
 

 ******************************** Symmetrised Forces ********************************
 *                                                                                  *
 *                           Cartesian components (eV/A)                            *
 * -------------------------------------------------------------------------------- *
 *                         x                    y                    z              *
 *                                                                                  *
 * H               1     -0.03411             -0.05308             -0.00000         *
 * H               2      0.03411             -0.05308             -0.00000         *
 * H               3     -0.03411              0.05308             -0.00000         *
 * H               4      0.03411              0.05308             -0.00000         *
 * H               5      0.04948              0.00000              0.00000         *
 * H               6     -0.04948              0.00000              0.00000         *
 * H               7      0.04948              0.00000              0.00000         *
 * H               8     -0.04948              0.00000             -0.00000         *
 * H               9     -0.03411             -0.05308             -0.00000         *
 * H              10      0.03411             -0.05308             -0.00000         *
 * H              11     -0.03411              0.05308             -0.00000         *
 * H              12      0.03411              0.05308             -0.00000         *
 * H              13      0.04948              0.00000             -0.00000         *
 * H              14     -0.04948              0.00000              0.00000         *
 * H              15      0.04948              0.00000              0.00000         *
 * H              16     -0.04948              0.00000             -0.00000         *
 *                                                                                  *
 ************************************************************************************

 *********** Symmetrised Stress Tensor ***********
 *                                               *
 *          Cartesian components (GPa)           *
 * --------------------------------------------- *
 *             x             y             z     *
 *                                               *
 *  x    -39.729981      0.000000      0.000000  *
 *  y      0.000000    -40.410890      0.000000  *
 *  z      0.000000      0.000000    -39.998157  *
 *                                               *
 *  Pressure:   40.0463                          *
 *                                               *
 *************************************************
  
 +------------+-------------+-------------+-----------------+ <-- min LBFGS
 |    Step    |   lambda    |   F.delta'  |    enthalpy     | <-- min LBFGS
 +------------+-------------+-------------+-----------------+ <-- min LBFGS
 |  previous  |    0.000000 |    0.023606 |     -235.104339 | <-- min LBFGS
 | trial step |    1.000000 |   -0.006994 |     -235.105353 | <-- min LBFGS
 +------------+-------------+-------------+-----------------+ <-- min LBFGS
  
 LBFGS: finished iteration     3 with enthalpy= -2.35105353E+002 eV
  
 +-----------+-----------------+-----------------+------------+-----+ <-- LBFGS
 | Parameter |      value      |    tolerance    |    units   | OK? | <-- LBFGS
 +-----------+-----------------+-----------------+------------+-----+ <-- LBFGS
 |  dE/ion   |   6.337113E-005 |   1.000000E-009 |         eV | No  | <-- LBFGS
 |  |F|max   |   6.310153E-002 |   1.000000E-005 |       eV/A | No  | <-- LBFGS
 |  |dR|max  |   2.767178E-003 |   1.000000E-005 |          A | No  | <-- LBFGS
 |   Smax    |   4.108901E-001 |   1.000000E-005 |        GPa | No  | <-- LBFGS
 +-----------+-----------------+-----------------+------------+-----+ <-- LBFGS
  

================================================================================
 Starting LBFGS iteration          4 ...
================================================================================
  
 +------------+-------------+-------------+-----------------+ <-- min LBFGS
 |    Step    |   lambda    |   F.delta'  |    enthalpy     | <-- min LBFGS
 +------------+-------------+-------------+-----------------+ <-- min LBFGS
 |  previous  |    0.000000 |    0.018177 |     -235.105353 | <-- min LBFGS
 +------------+-------------+-------------+-----------------+ <-- min LBFGS
  

--------------------------------------------------------------------------------
 LBFGS: starting iteration         4 with trial guess (lambda=  1.000000)
--------------------------------------------------------------------------------

                           -------------------------------
                                      Unit Cell
                           -------------------------------
        Real Lattice(A)              Reciprocal Lattice(1/A)
     2.9941991     0.0000000     0.0000000        2.098452746  -0.000000000   0.000000000
     0.0000000     2.9856353     0.0000000       -0.000000000   2.104471792   0.000000000
     0.0000000     0.0000000     5.9184602        0.000000000   0.000000000   1.061624995

                       Lattice parameters(A)       Cell Angles
                    a =      2.994199          alpha =   90.000000
                    b =      2.985635          beta  =   90.000000
                    c =      5.918460          gamma =   90.000000

                Current cell volume =            52.908587 A**3

                           -------------------------------
                                     Cell Contents
                           -------------------------------

            xxxxxxxxxxxxxxxxxxxxxxxxxxxxxxxxxxxxxxxxxxxxxxxxxxxxxxxxxxxxxxxxx
            x  Element         Atom        Fractional coordinates of atoms  x
            x                 Number           u          v          w      x
            x---------------------------------------------------------------x
            x  H                 1         0.430948   0.397101   0.000000   x
            x  H                 2        -0.430948   0.397101   0.500000   x
            x  H                 3         0.430948  -0.397101   0.500000   x
            x  H                 4        -0.430948  -0.397101   0.000000   x
            x  H                 5         0.378520  -0.000000   0.250000   x
            x  H                 6        -0.378520  -0.000000   0.750000   x
            x  H                 7         0.378520   0.000000   0.750000   x
            x  H                 8        -0.378520  -0.000000   0.250000   x
            x  H                 9         0.930948   0.897101   0.500000   x
            x  H                10        -0.930948   0.897101   0.000000   x
            x  H                11         0.930948  -0.897101   0.000000   x
            x  H                12        -0.930948  -0.897101   0.500000   x
            x  H                13         0.878520   0.500000   0.750000   x
            x  H                14        -0.878520   0.500000   0.250000   x
            x  H                15         0.878520   0.500000   0.250000   x
            x  H                16        -0.878520   0.500000   0.750000   x
            xxxxxxxxxxxxxxxxxxxxxxxxxxxxxxxxxxxxxxxxxxxxxxxxxxxxxxxxxxxxxxxxx


------------------------------------------------------------------------ <-- SCF
SCF loop      Energy                           Energy gain       Timer   <-- SCF
                                               per atom          (sec)   <-- SCF
------------------------------------------------------------------------ <-- SCF
Initial  -2.48284675E+002                                        113.67  <-- SCF
      1  -2.48311211E+002                    1.65848644E-003     114.42  <-- SCF
      2  -2.48311282E+002                    4.42851816E-006     115.69  <-- SCF
      3  -2.48308616E+002                   -1.66650338E-004     116.97  <-- SCF
      4  -2.48308574E+002                   -2.61103240E-006     118.26  <-- SCF
      5  -2.48308574E+002                    2.07468165E-008     119.54  <-- SCF
      6  -2.48308574E+002                    3.49056929E-009     120.83  <-- SCF
      7  -2.48308574E+002                    3.31393333E-010     122.09  <-- SCF
      8  -2.48308574E+002                    4.95757707E-011     123.13  <-- SCF
      9  -2.48308574E+002                    1.09966975E-012     124.17  <-- SCF
     10  -2.48308574E+002                   -3.08149214E-013     125.21  <-- SCF
------------------------------------------------------------------------ <-- SCF
 
Final energy =  -248.3085741884     eV
(energy not corrected for finite basis set)
 

 ******************************** Symmetrised Forces ********************************
 *                                                                                  *
 *                           Cartesian components (eV/A)                            *
 * -------------------------------------------------------------------------------- *
 *                         x                    y                    z              *
 *                                                                                  *
 * H               1      0.07283              0.10734             -0.00000         *
 * H               2     -0.07283              0.10734             -0.00000         *
 * H               3      0.07283             -0.10734             -0.00000         *
 * H               4     -0.07283             -0.10734             -0.00000         *
 * H               5     -0.29555              0.00000             -0.00000         *
 * H               6      0.29555              0.00000             -0.00000         *
 * H               7     -0.29555              0.00000             -0.00000         *
 * H               8      0.29555              0.00000             -0.00000         *
 * H               9      0.07283              0.10734             -0.00000         *
 * H              10     -0.07283              0.10734             -0.00000         *
 * H              11      0.07283             -0.10734             -0.00000         *
 * H              12     -0.07283             -0.10734             -0.00000         *
 * H              13     -0.29555              0.00000              0.00000         *
 * H              14      0.29555              0.00000              0.00000         *
 * H              15     -0.29555              0.00000              0.00000         *
 * H              16      0.29555              0.00000              0.00000         *
 *                                                                                  *
 ************************************************************************************

 *********** Symmetrised Stress Tensor ***********
 *                                               *
 *          Cartesian components (GPa)           *
 * --------------------------------------------- *
 *             x             y             z     *
 *                                               *
 *  x    -41.455235      0.000000      0.000000  *
 *  y      0.000000    -38.511974      0.000000  *
 *  z      0.000000      0.000000    -39.267878  *
 *                                               *
 *  Pressure:   39.7450                          *
 *                                               *
 *************************************************
  
 +------------+-------------+-------------+-----------------+ <-- min LBFGS
 |    Step    |   lambda    |   F.delta'  |    enthalpy     | <-- min LBFGS
 +------------+-------------+-------------+-----------------+ <-- min LBFGS
 |  previous  |    0.000000 |    0.018177 |     -235.105353 | <-- min LBFGS
 | trial step |    1.000000 |   -0.086391 |     -235.099404 | <-- min LBFGS
 +------------+-------------+-------------+-----------------+ <-- min LBFGS
  

--------------------------------------------------------------------------------
 LBFGS: improving iteration         4 with line minimization (lambda=  0.173831)
--------------------------------------------------------------------------------

                           -------------------------------
                                      Unit Cell
                           -------------------------------
        Real Lattice(A)              Reciprocal Lattice(1/A)
     2.9896780     0.0000000     0.0000000        2.101626078  -0.000000000   0.000000000
     0.0000000     2.9801521     0.0000000       -0.000000000   2.108343833   0.000000000
     0.0000000     0.0000000     5.9081641        0.000000000   0.000000000   1.063475075

                       Lattice parameters(A)       Cell Angles
                    a =      2.989678          alpha =   90.000000
                    b =      2.980152          beta  =   90.000000
                    c =      5.908164          gamma =   90.000000

                Current cell volume =            52.639942 A**3

                           -------------------------------
                                     Cell Contents
                           -------------------------------

            xxxxxxxxxxxxxxxxxxxxxxxxxxxxxxxxxxxxxxxxxxxxxxxxxxxxxxxxxxxxxxxxx
            x  Element         Atom        Fractional coordinates of atoms  x
            x                 Number           u          v          w      x
            x---------------------------------------------------------------x
            x  H                 1         0.431194   0.397578   0.000000   x
            x  H                 2        -0.431194   0.397578   0.500000   x
            x  H                 3         0.431194  -0.397578   0.500000   x
            x  H                 4        -0.431194  -0.397578   0.000000   x
            x  H                 5         0.377072   0.000000   0.250000   x
            x  H                 6        -0.377072  -0.000000   0.750000   x
            x  H                 7         0.377072   0.000000   0.750000   x
            x  H                 8        -0.377072  -0.000000   0.250000   x
            x  H                 9         0.931194   0.897578   0.500000   x
            x  H                10        -0.931194   0.897578   0.000000   x
            x  H                11         0.931194  -0.897578   0.000000   x
            x  H                12        -0.931194  -0.897578   0.500000   x
            x  H                13         0.877072   0.500000   0.750000   x
            x  H                14        -0.877072   0.500000   0.250000   x
            x  H                15         0.877072   0.500000   0.250000   x
[...]
                                               per atom          (sec)   <-- SCF
------------------------------------------------------------------------ <-- SCF
Initial  -2.48234802E+002                                        304.26  <-- SCF
      1  -2.48234802E+002                    3.77331734E-012     304.72  <-- SCF
      2  -2.48234802E+002                    1.60116749E-013     305.75  <-- SCF
      3  -2.48234802E+002                    6.43488065E-013     306.78  <-- SCF
      4  -2.48234802E+002                   -6.85783056E-013     307.80  <-- SCF
------------------------------------------------------------------------ <-- SCF
 
Final energy =  -248.2348023902     eV
(energy not corrected for finite basis set)
 

 ******************************** Symmetrised Forces ********************************
 *                                                                                  *
 *                           Cartesian components (eV/A)                            *
 * -------------------------------------------------------------------------------- *
 *                         x                    y                    z              *
 *                                                                                  *
 * H               1     -0.00000              0.00000              0.00000         *
 * H               2      0.00000              0.00000              0.00000         *
 * H               3     -0.00000             -0.00000              0.00000         *
 * H               4      0.00000             -0.00000              0.00000         *
 * H               5     -0.00000             -0.00000             -0.00000         *
 * H               6      0.00000              0.00000             -0.00000         *
 * H               7     -0.00000              0.00000              0.00000         *
 * H               8      0.00000              0.00000              0.00000         *
 * H               9     -0.00000              0.00000              0.00000         *
 * H              10      0.00000              0.00000              0.00000         *
 * H              11     -0.00000             -0.00000              0.00000         *
 * H              12      0.00000             -0.00000              0.00000         *
 * H              13     -0.00000              0.00000             -0.00000         *
 * H              14      0.00000              0.00000             -0.00000         *
 * H              15     -0.00000              0.00000              0.00000         *
 * H              16      0.00000              0.00000             -0.00000         *
 *                                                                                  *
 ************************************************************************************

 *********** Symmetrised Stress Tensor ***********
 *                                               *
 *          Cartesian components (GPa)           *
 * --------------------------------------------- *
 *             x             y             z     *
 *                                               *
 *  x    -39.999997      0.000000      0.000000  *
 *  y      0.000000    -40.000004      0.000000  *
 *  z      0.000000      0.000000    -39.999998  *
 *                                               *
 *  Pressure:   40.0000                          *
 *                                               *
 *************************************************
  
 +------------+-------------+-------------+-----------------+ <-- min LBFGS
 |    Step    |   lambda    |   F.delta'  |    enthalpy     | <-- min LBFGS
 +------------+-------------+-------------+-----------------+ <-- min LBFGS
 |  previous  |    0.000000 |  2.975E-007 |     -235.105726 | <-- min LBFGS
 | trial step |    1.000000 |  5.113E-009 |     -235.105726 | <-- min LBFGS
 +------------+-------------+-------------+-----------------+ <-- min LBFGS
  
 LBFGS: finished iteration    15 with enthalpy= -2.35105726E+002 eV
  
 +-----------+-----------------+-----------------+------------+-----+ <-- LBFGS
 | Parameter |      value      |    tolerance    |    units   | OK? | <-- LBFGS
 +-----------+-----------------+-----------------+------------+-----+ <-- LBFGS
 |  dE/ion   |   7.613098E-013 |   1.000000E-009 |         eV | Yes | <-- LBFGS
 |  |F|max   |   6.615537E-008 |   1.000000E-005 |       eV/A | Yes | <-- LBFGS
 |  |dR|max  |   2.589841E-007 |   1.000000E-005 |          A | Yes | <-- LBFGS
 |   Smax    |   4.274413E-006 |   1.000000E-005 |        GPa | Yes | <-- LBFGS
 +-----------+-----------------+-----------------+------------+-----+ <-- LBFGS
  
 LBFGS: Geometry optimization completed successfully.

================================================================================
 LBFGS: Final Configuration:
================================================================================

                           -------------------------------
                                      Unit Cell
                           -------------------------------
        Real Lattice(A)              Reciprocal Lattice(1/A)
     2.9885655     0.0000000     0.0000000        2.102408416  -0.000000000   0.000000000
     0.0000000     2.9805681     0.0000000       -0.000000000   2.108049542   0.000000000
     0.0000000     0.0000000     5.9036803        0.000000000   0.000000000   1.064282788

                       Lattice parameters(A)       Cell Angles
                    a =      2.988566          alpha =   90.000000
                    b =      2.980568          beta  =   90.000000
                    c =      5.903680          gamma =   90.000000

                Current cell volume =            52.587759 A**3

                           -------------------------------
                                     Cell Contents
                           -------------------------------

            xxxxxxxxxxxxxxxxxxxxxxxxxxxxxxxxxxxxxxxxxxxxxxxxxxxxxxxxxxxxxxxxx
            x  Element         Atom        Fractional coordinates of atoms  x
            x                 Number           u          v          w      x
            x---------------------------------------------------------------x
            x  H                 1         0.432287   0.396687   0.000000   x
            x  H                 2        -0.432287   0.396687   0.500000   x
            x  H                 3         0.432287  -0.396687   0.500000   x
            x  H                 4        -0.432287  -0.396687   0.000000   x
            x  H                 5         0.376985   0.000000   0.250000   x
            x  H                 6        -0.376985  -0.000000   0.750000   x
            x  H                 7         0.376985   0.000000   0.750000   x
            x  H                 8        -0.376985  -0.000000   0.250000   x
            x  H                 9         0.932287   0.896687   0.500000   x
            x  H                10        -0.932287   0.896687   0.000000   x
            x  H                11         0.932287  -0.896687   0.000000   x
            x  H                12        -0.932287  -0.896687   0.500000   x
            x  H                13         0.876985   0.500000   0.750000   x
            x  H                14        -0.876985   0.500000   0.250000   x
            x  H                15         0.876985   0.500000   0.250000   x
            x  H                16        -0.876985   0.500000   0.750000   x
            xxxxxxxxxxxxxxxxxxxxxxxxxxxxxxxxxxxxxxxxxxxxxxxxxxxxxxxxxxxxxxxxx


 LBFGS: Final Enthalpy     = -2.35105726E+002 eV
 LBFGS: Final <frequency>  =     305.98494 cm-1
 LBFGS: Final bulk modulus =     115.89460 GPa

 ******************************** Symmetrised Forces ********************************
 *                                                                                  *
 *                           Cartesian components (eV/A)                            *
 * -------------------------------------------------------------------------------- *
 *                         x                    y                    z              *
 *                                                                                  *
 * H               1     -0.00000              0.00000              0.00000         *
 * H               2      0.00000              0.00000              0.00000         *
 * H               3     -0.00000             -0.00000              0.00000         *
 * H               4      0.00000             -0.00000              0.00000         *
 * H               5     -0.00000             -0.00000             -0.00000         *
 * H               6      0.00000              0.00000             -0.00000         *
 * H               7     -0.00000              0.00000              0.00000         *
 * H               8      0.00000              0.00000              0.00000         *
 * H               9     -0.00000              0.00000              0.00000         *
 * H              10      0.00000              0.00000              0.00000         *
 * H              11     -0.00000             -0.00000              0.00000         *
 * H              12      0.00000             -0.00000              0.00000         *
 * H              13     -0.00000              0.00000             -0.00000         *
 * H              14      0.00000              0.00000             -0.00000         *
 * H              15     -0.00000              0.00000              0.00000         *
 * H              16      0.00000              0.00000             -0.00000         *
 *                                                                                  *
 ************************************************************************************

 *********** Symmetrised Stress Tensor ***********
 *                                               *
 *          Cartesian components (GPa)           *
 * --------------------------------------------- *
 *             x             y             z     *
 *                                               *
 *  x    -39.999997      0.000000      0.000000  *
 *  y      0.000000    -40.000004      0.000000  *
 *  z      0.000000      0.000000    -39.999998  *
 *                                               *
 *  Pressure:   40.0000                          *
 *                                               *
 *************************************************

 Pseudo atomic calculation performed for H 1s1

 Converged in 24 iterations to a total energy of -12.4843 eV

Charge spilling parameter for spin component 1 = 0.70%

            Orbital Populations       
     Ion    Atom   Orbital             Charge
  -------------------------------------------
      H     1      S                    0.998
      H     2      S                    1.001
      H     3      S                    1.001
      H     4      S                    0.998
      H     5      S                    1.001
      H     6      S                    1.001
      H     7      S                    1.001
      H     8      S                    1.001
      H     9      S                    0.998
      H    10      S                    1.001
      H    11      S                    1.001
      H    12      S                    0.998
      H    13      S                    1.001
      H    14      S                    1.001
      H    15      S                    1.001
      H    16      S                    1.001
  -------------------------------------------
                           Total:      16.000
  -------------------------------------------

     Atomic Populations (Mulliken)
     -----------------------------
Species          Ion     s      p      d      f     Total  Charge (e)
=====================================================================
  H               1     1.00   0.00   0.00   0.00   1.00     0.00
  H               2     1.00   0.00   0.00   0.00   1.00     0.00
  H               3     1.00   0.00   0.00   0.00   1.00     0.00
  H               4     1.00   0.00   0.00   0.00   1.00     0.00
  H               5     1.00   0.00   0.00   0.00   1.00    -0.00
  H               6     1.00   0.00   0.00   0.00   1.00    -0.00
  H               7     1.00   0.00   0.00   0.00   1.00    -0.00
  H               8     1.00   0.00   0.00   0.00   1.00    -0.00
  H               9     1.00   0.00   0.00   0.00   1.00     0.00
  H              10     1.00   0.00   0.00   0.00   1.00     0.00
  H              11     1.00   0.00   0.00   0.00   1.00     0.00
  H              12     1.00   0.00   0.00   0.00   1.00     0.00
  H              13     1.00   0.00   0.00   0.00   1.00    -0.00
  H              14     1.00   0.00   0.00   0.00   1.00    -0.00
  H              15     1.00   0.00   0.00   0.00   1.00    -0.00
  H              16     1.00   0.00   0.00   0.00   1.00    -0.00
=====================================================================

                 Bond                   Population      Length (A)
======================================================================
              H 6  -- H 7                    1.37        0.73527
              H 5  -- H 8                    1.37        0.73527
              H 14 -- H 15                   1.37        0.73527
              H 13 -- H 16                   1.37        0.73527
              H 2  -- H 3                    1.37        0.73695
              H 1  -- H 4                    1.37        0.73695
              H 10 -- H 11                   1.37        0.73695
              H 9  -- H 12                   1.37        0.73695
              H 8  -- H 15                  -0.19        1.67244
              H 7  -- H 16                  -0.19        1.67244
              H 6  -- H 13                  -0.19        1.67244
              H 5  -- H 14                  -0.19        1.67244
              H 4  -- H 10                  -0.21        1.73133
              H 3  -- H 9                   -0.21        1.73133
              H 2  -- H 12                  -0.21        1.73133
              H 1  -- H 11                  -0.21        1.73133
              H 4  -- H 15                  -0.09        1.76846
              H 4  -- H 13                  -0.09        1.76846
              H 3  -- H 16                  -0.09        1.76846
              H 3  -- H 14                  -0.09        1.76846
              H 2  -- H 15                  -0.09        1.76846
              H 2  -- H 13                  -0.09        1.76846
              H 1  -- H 16                  -0.09        1.76846
              H 1  -- H 14                  -0.09        1.76846
              H 8  -- H 11                  -0.09        1.76846
              H 8  -- H 9                   -0.09        1.76846
              H 7  -- H 12                  -0.09        1.76846
              H 7  -- H 10                  -0.09        1.76846
              H 6  -- H 11                  -0.09        1.76846
              H 6  -- H 9                   -0.09        1.76846
              H 5  -- H 12                  -0.09        1.76846
              H 5  -- H 10                  -0.09        1.76846
              H 4  -- H 11                  -0.23        1.84610
              H 3  -- H 12                  -0.23        1.84610
              H 2  -- H 9                   -0.23        1.84610
              H 1  -- H 10                  -0.23        1.84610
              H 12 -- H 16                  -0.10        1.89832
              H 12 -- H 14                  -0.10        1.89832
              H 11 -- H 15                  -0.10        1.89832
              H 11 -- H 13                  -0.10        1.89832
              H 10 -- H 16                  -0.10        1.89832
              H 10 -- H 14                  -0.10        1.89832
              H 9  -- H 15                  -0.10        1.89832
              H 9  -- H 13                  -0.10        1.89832
              H 4  -- H 8                   -0.10        1.89832
              H 4  -- H 6                   -0.10        1.89832
              H 3  -- H 7                   -0.10        1.89832
              H 3  -- H 5                   -0.10        1.89832
              H 2  -- H 8                   -0.10        1.89832
              H 2  -- H 6                   -0.10        1.89832
              H 1  -- H 7                   -0.10        1.89832
              H 1  -- H 5                   -0.10        1.89832
              H 4  -- H 7                   -0.10        1.97515
              H 4  -- H 5                   -0.10        1.97515
              H 3  -- H 8                   -0.10        1.97515
              H 3  -- H 6                   -0.10        1.97515
              H 2  -- H 7                   -0.10        1.97515
              H 2  -- H 5                   -0.10        1.97515
              H 1  -- H 8                   -0.10        1.97515
              H 1  -- H 6                   -0.10        1.97515
              H 12 -- H 15                  -0.10        1.97515
              H 12 -- H 13                  -0.10        1.97515
              H 11 -- H 16                  -0.10        1.97515
              H 11 -- H 14                  -0.10        1.97515
              H 10 -- H 15                  -0.10        1.97515
              H 10 -- H 13                  -0.10        1.97515
              H 9  -- H 16                  -0.10        1.97515
              H 9  -- H 14                  -0.10        1.97515
              H 4  -- H 16                  -0.11        2.00983
              H 4  -- H 14                  -0.11        2.00983
              H 3  -- H 15                  -0.11        2.00983
              H 3  -- H 13                  -0.11        2.00983
              H 2  -- H 16                  -0.11        2.00983
              H 2  -- H 14                  -0.11        2.00983
              H 1  -- H 15                  -0.11        2.00983
              H 1  -- H 13                  -0.11        2.00983
              H 8  -- H 12                  -0.11        2.00983
              H 8  -- H 10                  -0.11        2.00983
              H 7  -- H 11                  -0.11        2.00983
              H 7  -- H 9                   -0.11        2.00983
              H 6  -- H 12                  -0.11        2.00983
              H 6  -- H 10                  -0.11        2.00983
              H 5  -- H 11                  -0.11        2.00983
              H 5  -- H 9                   -0.11        2.00983
              H 8  -- H 14                  -0.25        2.11041
              H 7  -- H 13                  -0.25        2.11041
              H 6  -- H 16                  -0.25        2.11041
              H 5  -- H 15                  -0.25        2.11041
              H 14 -- H 16                   0.01        2.95184
              H 13 -- H 15                   0.01        2.95184
              H 6  -- H 8                    0.01        2.95184
              H 5  -- H 7                    0.01        2.95184
              H 11 -- H 12                   0.01        2.97946
              H 9  -- H 10                   0.01        2.97946
              H 3  -- H 4                    0.01        2.97946
              H 1  -- H 2                    0.01        2.97946
======================================================================


Writing analysis data to Hibam.castep_bin

Writing model to Hibam.check
 
 A BibTeX formatted list of references used in this run has been written to 
 Hibam.bib
 
Initialisation time =      3.08 s
Calculation time    =    309.40 s
Finalisation time   =      1.47 s
Total time          =    313.95 s
Peak Memory Use     = 562616 kB
  
Overall parallel efficiency rating: Very good (88%)                             
  
Data was distributed by:-
k-point (32-way); efficiency rating: Very good (88%)                            
  
Parallel notes:
1) Calculation only took 312.5 s, so efficiency estimates may be inaccurate.    
