 +-------------------------------------------------+
 |                                                 |
 |      CCC   AA    SSS  TTTTT  EEEEE  PPPP        |
 |     C     A  A  S       T    E      P   P       |
 |     C     AAAA   SS     T    EEE    PPPP        |
 |     C     A  A     S    T    E      P           |
 |      CCC  A  A  SSS     T    EEEEE  P           |
 |                                                 |
 +-------------------------------------------------+
 |                                                 |
 | Welcome to Academic Release CASTEP version 18.1 |          
 | Ab Initio Total Energy Program                  |
 |                                                 |
 | Authors:                                        |
 | M. Segall, M. Probert, C. Pickard, P. Hasnip,   |
 | S. Clark, K. Refson, J. R. Yates, M. Payne      |
 |                                                 |
 | Contributors:                                   |
 | P. Lindan, P. Haynes, J. White, V. Milman,      |
 | N. Govind, M. Gibson, P. Tulip, V. Cocula,      |
 | B. Montanari, D. Quigley, M. Glover,            |
 | L. Bernasconi, A. Perlov, M. Plummer,           |
 | E. McNellis, J. Meyer, J. Gale, D. Jochym       |
 | J. Aarons, B. Walker, R. Gillen, D. Jones       |
 | T. Green, I. J. Bush, C. J. Armstrong,          |
 | E. J. Higgins, E. L. Brown, M. S. McFly,        |
 | J. Wilkins, B-C. Shih, P. J. P. Byrne           |
 |                                                 |
 | Copyright (c) 2000 - 2017                       |
 |                                                 |
 |     Distributed under the terms of an           |
 |     Agreement between the United Kingdom        |
 |     Car-Parrinello (UKCP) Consortium,           |
 |     Daresbury Laboratory and Accelrys, Inc.     |
 |                                                 |
 | Please cite                                     |
 |                                                 |
 |     "First principles methods using CASTEP"     |
 |                                                 |
 |         Zeitschrift fuer Kristallographie       |
 |           220(5-6) pp. 567-570 (2005)           |
 |                                                 |
 | S. J. Clark, M. D. Segall, C. J. Pickard,       |
 | P. J. Hasnip, M. J. Probert, K. Refson,         |
 | M. C. Payne                                     |
 |                                                 |
 |       in all publications arising from          |
 |              your use of CASTEP                 |
 |                                                 |
 +-------------------------------------------------+


 Compiled for linux_x86_64_gfortran4.8 on Thu, 19 Jul 2018 15:42:32 +0100
 from code version 70483bd0ad64+  Sun, 10 Dec 2017 12:18:29 +0000
 Compiler: GNU Fortran 4.8.5; Optimisation: fast
 MATHLIBS: Intel MKL(2018.0.0) (LAPACK version 3.7.0)
 FFT Lib : mkl
 Fundamental constants values: CODATA 2014

 Run started: Wed, 26 Aug 2020 13:41:03 +0100

 Atomic calculation performed for H: 1s1

 Converged in 41 iterations to an ae energy of -12.488 eV

   ============================================================                
   | Pseudopotential Report - Date of generation 26-08-2020   |                
   ------------------------------------------------------------                
   | Element: H Ionic charge:  1.00 Level of theory: PBE      |                
   | Atomic Solver: Koelling-Harmon                           |                
   |                                                          |                
   |               Reference Electronic Structure             |                
   |         Orbital         Occupation         Energy        |                
   |            1s              1.000           -0.239        |                
   |                                                          |                
   |                 Pseudopotential Definition               |                
   |        Beta     l      e      Rc     scheme   norm       |                
   |         loc     0   -0.239   0.702     qc      1         |                
   |                                                          |                
   | No charge augmentation                                   |                
   | No partial core correction                               |                
   ------------------------------------------------------------                
   | "0|0.7|2|6|8|10L(qc=10)"                                 |                
   ------------------------------------------------------------                
   |      Author: Chris J. Pickard, Cambridge University      |                
   ============================================================                

 Pseudo atomic calculation performed for H 1s1

 Converged in 24 iterations to a total energy of -12.4843 eV

 Calculation parallelised over 32 processes.
 Data is distributed by k-point(32-way)

 ************************************ Title ************************************
 

 ***************************** General Parameters ******************************
  
 output verbosity                               : normal  (1)
 write checkpoint data to                       : Hibam.check
 type of calculation                            : geometry optimization
 stress calculation                             : on
 density difference calculation                 : off
 electron localisation func (ELF) calculation   : off
 Hirshfeld analysis                             : off
 unlimited duration calculation
 timing information                             : on
 memory usage estimate                          : on
 write extra output files                       : on
 write final potential to formatted file        : off
 write final density to formatted file          : off
 write structure in CELL formatted file         : on
 write BibTeX reference list                    : on
 write OTFG pseudopotential files               : on
 write electrostatic potential file             : on
 write bands file                               : on
 checkpoint writing                             : both castep_bin and check files
  
 output         length unit                     : A
 output           mass unit                     : amu
 output           time unit                     : ps
 output         charge unit                     : e
 output           spin unit                     : hbar/2
 output         energy unit                     : eV
 output          force unit                     : eV/A
 output       velocity unit                     : A/ps
 output       pressure unit                     : GPa
 output     inv_length unit                     : 1/A
 output      frequency unit                     : cm-1
 output force constant unit                     : eV/A**2
 output         volume unit                     : A**3
 output   IR intensity unit                     : (D/A)**2/amu
 output         dipole unit                     : D
 output         efield unit                     : eV/A/e
 output        entropy unit                     : J/mol/K
  
 wavefunctions paging                           : none
 random number generator seed                   : randomised (134103163)
 data distribution                              : optimal for this architecture
 optimization strategy                          : maximize speed(+++)

 *********************** Exchange-Correlation Parameters ***********************
  
 using functional                               : Perdew Burke Ernzerhof
 relativistic treatment                         : Koelling-Harmon
 DFT+D: Semi-empirical dispersion correction    : off

 ************************* Pseudopotential Parameters **************************
  
 pseudopotential representation                 : reciprocal space
 <beta|phi> representation                      : reciprocal space
 spin-orbit coupling                            : off

 **************************** Basis Set Parameters *****************************
  
 plane wave basis set cut-off                   :  1200.0000   eV
 size of standard grid                          :     2.0000
 size of   fine   gmax                          :    35.4943   1/A
 finite basis set correction                    : automatic
 number of sample energies                      :          3
           sample  spacing                      :     5.0000   eV

 **************************** Electronic Parameters ****************************
  
 number of  electrons                           :  16.00    
 net charge of system                           :  0.000    
 treating system as non-spin-polarized
 number of bands                                :          8

 ********************* Electronic Minimization Parameters **********************
  
 Method: Treating system as non-metallic,
         and number of  SD  steps               :          1
         and number of  CG  steps               :          4
  
 total energy / atom convergence tol.           : 0.1000E-10   eV
 eigen-energy convergence tolerance             : 0.2000E-10   eV
 max force / atom convergence tol.              : ignored
 convergence tolerance window                   :          3   cycles
 max. number of SCF cycles                      :        100
 periodic dipole correction                     : NONE

 ************************** Density Mixing Parameters **************************
  
 density-mixing scheme                          : Broyden
 max. length of mixing history                  :         20
 charge density mixing amplitude                : 0.8000    
 cut-off energy for mixing                      :  1200.       eV

 *********************** Population Analysis Parameters ************************
  
 Population analysis with cutoff                :  3.000       A
 Population analysis output                     : summary and pdos components

 ********************** Geometry Optimization Parameters ***********************
  
 optimization method                            : LBFGS
 max. no. of LBFGS updates                      : unbounded
 variable cell method                           : fixed basis quality
 max. number of steps                           :         60
 estimated bulk modulus                         :  500.0       GPa
 estimated <frequency>                          :  1668.       cm-1
 geom line minimiser                            : on
 with line minimiser tolerance                  :     0.4000
 total energy convergence tolerance             : 0.1000E-08   eV/atom
        max ionic |force| tolerance             : 0.1000E-04   eV/A
 max ionic |displacement| tolerance             : 0.1000E-04   A
   max |stress component| tolerance             : 0.1000E-04   GPa
 convergence tolerance window                   :          2   steps
 backup results every                           :      14400   seconds
 write geom trajectory file                     : on

 *******************************************************************************
  

                           -------------------------------
                                      Unit Cell
                           -------------------------------
        Real Lattice(A)                      Reciprocal Lattice(1/A)
     3.1365427     0.0000000     0.0000000        2.003220052  -0.000000000   0.000000000
     0.0000000     2.0999753     0.0000000       -0.000000000   2.992028217   0.000000000
     0.0000000     0.0000000     6.1534553        0.000000000   0.000000000   1.021082471

                       Lattice parameters(A)       Cell Angles
                    a =      3.136543          alpha =   90.000000
                    b =      2.099975          beta  =   90.000000
                    c =      6.153455          gamma =   90.000000

                       Current cell volume =            40.530731       A**3
                                   density =             0.397897   AMU/A**3
                                           =             0.660723     g/cm^3

                           -------------------------------
                                     Cell Contents
                           -------------------------------
                         Total number of ions in cell =   16
                      Total number of species in cell =    1
                        Max number of any one species =   16

            xxxxxxxxxxxxxxxxxxxxxxxxxxxxxxxxxxxxxxxxxxxxxxxxxxxxxxxxxxxx
            x  Element    Atom        Fractional coordinates of atoms  x
            x            Number           u          v          w      x
            x----------------------------------------------------------x
            x  H            1         0.417433   0.377372   0.000000   x 
            x  H            2        -0.417433   0.377372   0.500000   x 
            x  H            3         0.417433  -0.377372   0.500000   x 
            x  H            4        -0.417433  -0.377372   0.000000   x 
            x  H            5         0.381066  -0.000000   0.250000   x 
            x  H            6        -0.381066   0.000000   0.750000   x 
            x  H            7         0.381066  -0.000000   0.750000   x 
            x  H            8        -0.381066   0.000000   0.250000   x 
            x  H            9         0.917433   0.877372   0.500000   x 
            x  H           10        -0.917433   0.877372   0.000000   x 
            x  H           11         0.917433  -0.877372   0.000000   x 
            x  H           12        -0.917433  -0.877372   0.500000   x 
            x  H           13         0.881066   0.500000   0.750000   x 
            x  H           14        -0.881066   0.500000   0.250000   x 
            x  H           15         0.881066   0.500000   0.250000   x 
            x  H           16        -0.881066   0.500000   0.750000   x 
            xxxxxxxxxxxxxxxxxxxxxxxxxxxxxxxxxxxxxxxxxxxxxxxxxxxxxxxxxxxx


                         No user defined ionic velocities

                           -------------------------------
                                   Details of Species
                           -------------------------------

                               Mass of species in AMU
                                    H    1.0079400

                          Electric Quadrupole Moment (Barn)
                                    H    0.0028600 Isotope  2

                          Files used for pseudopotentials:
                                    H 0|0.7|2|6|8|10L(qc=10)

                           -------------------------------
                              k-Points For BZ Sampling
                           -------------------------------
                       MP grid size for SCF calculation is  8  8  8
                            with an offset of   0.000  0.000  0.000
                       Number of kpoints used =            64

                           -------------------------------
                               Symmetry and Constraints
                           -------------------------------

                      Cell is a supercell containing 2 primitive cells
                      Maximum deviation from symmetry = 0.182110E-33     ANG

                      Number of symmetry operations   =          16
                      Number of ionic constraints     =           3
                      Point group of crystal =     8: D2h, mmm, 2/m 2/m 2/m
                      Space group of crystal =    72: Ibam, -I 2 2c

             Set iprint > 1 for details on symmetry rotations/translations

                         Centre of mass is constrained
             Set iprint > 1 for details of linear ionic constraints

                         Number of cell constraints= 3
                         Cell constraints are:  1 2 3 0 0 0

                         External pressure/stress (GPa)
                         70.00000   0.00000   0.00000
                                   70.00000   0.00000
                                             70.00000
  
+---------------- MEMORY AND SCRATCH DISK ESTIMATES PER PROCESS --------------+
|                                                     Memory          Disk    |
| Baseline code, static data and system overhead      479.0 MB         0.0 MB |
| BLAS internal memory storage                          0.0 MB         0.0 MB |
| Model and support data                               37.1 MB         0.0 MB |
| Electronic energy minimisation requirements          16.9 MB         0.0 MB |
| Force calculation requirements                        7.1 MB         0.0 MB |
| Stress calculation requirements                       9.0 MB         0.0 MB |
|                                               ----------------------------- |
| Approx. total storage required per process          533.0 MB         0.0 MB |
|                                                                             |
| Requirements will fluctuate during execution and may exceed these estimates |
+-----------------------------------------------------------------------------+
Calculating finite basis set correction with  3 cut-off energies.
Calculating total energy with cut-off of 1190.000 eV.
------------------------------------------------------------------------ <-- SCF
SCF loop      Energy                           Energy gain       Timer   <-- SCF
                                               per atom          (sec)   <-- SCF
------------------------------------------------------------------------ <-- SCF
Initial   4.04967190E+002                                          3.95  <-- SCF
      1  -1.99403288E+002                    3.77731549E+001       4.56  <-- SCF
      2  -2.44000748E+002                    2.78734121E+000       4.98  <-- SCF
      3  -2.44860008E+002                    5.37038026E-002       5.35  <-- SCF
      4  -2.43618635E+002                   -7.75858319E-002       6.19  <-- SCF
      5  -2.43578181E+002                   -2.52838736E-003       7.06  <-- SCF
      6  -2.43579655E+002                    9.21224213E-005       7.93  <-- SCF
      7  -2.43579805E+002                    9.39949126E-006       8.80  <-- SCF
      8  -2.43579805E+002                    1.62622455E-008       9.67  <-- SCF
      9  -2.43579806E+002                    5.11264863E-010      10.51  <-- SCF
     10  -2.43579806E+002                    1.05163472E-011      11.20  <-- SCF
     11  -2.43579806E+002                   -1.54074607E-013      11.88  <-- SCF
     12  -2.43579806E+002                    7.34120187E-013      12.56  <-- SCF
------------------------------------------------------------------------ <-- SCF
 
Final energy =  -243.5798055064     eV
(energy not corrected for finite basis set)
 
Calculating total energy with cut-off of 1195.000 eV.
------------------------------------------------------------------------ <-- SCF
SCF loop      Energy                           Energy gain       Timer   <-- SCF
                                               per atom          (sec)   <-- SCF
------------------------------------------------------------------------ <-- SCF
Initial  -2.43579806E+002                                         13.29  <-- SCF
      1  -2.43581000E+002                    7.46839643E-005      13.74  <-- SCF
      2  -2.43581000E+002                    1.08601451E-010      14.58  <-- SCF
      3  -2.43581001E+002                    3.42229400E-008      15.43  <-- SCF
      4  -2.43581001E+002                    1.92337374E-009      16.28  <-- SCF
      5  -2.43581001E+002                    1.78605702E-011      16.98  <-- SCF
      6  -2.43581001E+002                    1.57095678E-012      17.67  <-- SCF
      7  -2.43581001E+002                   -5.31708448E-013      18.34  <-- SCF
------------------------------------------------------------------------ <-- SCF
 
Final energy =  -243.5810010302     eV
(energy not corrected for finite basis set)
 
Calculating total energy with cut-off of 1200.000 eV.
------------------------------------------------------------------------ <-- SCF
SCF loop      Energy                           Energy gain       Timer   <-- SCF
                                               per atom          (sec)   <-- SCF
------------------------------------------------------------------------ <-- SCF
Initial  -2.43581001E+002                                         19.07  <-- SCF
      1  -2.43582077E+002                    6.72320929E-005      19.54  <-- SCF
      2  -2.43582077E+002                    9.37679933E-011      20.36  <-- SCF
      3  -2.43582077E+002                    2.89066923E-008      21.20  <-- SCF
      4  -2.43582077E+002                    1.58957262E-009      22.05  <-- SCF
      5  -2.43582077E+002                    1.45494766E-011      22.75  <-- SCF
      6  -2.43582077E+002                    8.03604814E-013      23.44  <-- SCF
      7  -2.43582077E+002                    8.76110512E-014      24.13  <-- SCF
------------------------------------------------------------------------ <-- SCF
 
Final energy =  -243.5820772333     eV
(energy not corrected for finite basis set)
 
 For future reference: finite basis dEtot/dlog(Ecut) =      -0.269770eV
 Total energy corrected for finite basis set =    -243.582099 eV
 
+---------------- MEMORY AND SCRATCH DISK ESTIMATES PER PROCESS --------------+
|                                                     Memory          Disk    |
| Model and support data                               45.3 MB         0.0 MB |
| Electronic energy minimisation requirements          16.9 MB         0.0 MB |
| Geometry minimisation requirements                   18.9 MB         0.0 MB |
|                                               ----------------------------- |
| Approx. total storage required per process           81.1 MB         0.0 MB |
|                                                                             |
| Requirements will fluctuate during execution and may exceed these estimates |
+-----------------------------------------------------------------------------+
 

 ******************************** Symmetrised Forces ********************************
 *                                                                                  *
 *                           Cartesian components (eV/A)                            *
 * -------------------------------------------------------------------------------- *
 *                         x                    y                    z              *
 *                                                                                  *
 * H               1      0.00000              0.00000             -0.00000         *
 * H               2     -0.00000              0.00000             -0.00000         *
 * H               3      0.00000             -0.00000             -0.00000         *
 * H               4     -0.00000             -0.00000             -0.00000         *
 * H               5      0.00000              0.00000              0.00000         *
 * H               6     -0.00000              0.00000             -0.00000         *
 * H               7      0.00000             -0.00000             -0.00000         *
 * H               8     -0.00000              0.00000              0.00000         *
 * H               9      0.00000              0.00000             -0.00000         *
 * H              10     -0.00000              0.00000             -0.00000         *
 * H              11      0.00000             -0.00000             -0.00000         *
 * H              12     -0.00000             -0.00000             -0.00000         *
 * H              13      0.00000             -0.00000             -0.00000         *
 * H              14     -0.00000              0.00000             -0.00000         *
 * H              15      0.00000              0.00000              0.00000         *
 * H              16     -0.00000              0.00000              0.00000         *
 *                                                                                  *
 ************************************************************************************

 *********** Symmetrised Stress Tensor ***********
 *                                               *
 *          Cartesian components (GPa)           *
 * --------------------------------------------- *
 *             x             y             z     *
 *                                               *
 *  x    -79.999528      0.000000      0.000000  *
 *  y      0.000000    -79.999540      0.000000  *
 *  z      0.000000      0.000000    -79.999547  *
 *                                               *
 *  Pressure:   79.9995                          *
 *                                               *
 *************************************************
 LBFGS: finished iteration     0 with enthalpy= -2.25873993E+002 eV
  
 +-----------+-----------------+-----------------+------------+-----+ <-- LBFGS
 | Parameter |      value      |    tolerance    |    units   | OK? | <-- LBFGS
 +-----------+-----------------+-----------------+------------+-----+ <-- LBFGS
 |  dE/ion   |   0.000000E+000 |   1.000000E-009 |         eV | No  | <-- LBFGS
 |  |F|max   |   4.290657E-007 |   1.000000E-005 |       eV/A | Yes | <-- LBFGS
 |  |dR|max  |   0.000000E+000 |   1.000000E-005 |          A | No  | <-- LBFGS
 |   Smax    |   9.999547E+000 |   1.000000E-005 |        GPa | No  | <-- LBFGS
 +-----------+-----------------+-----------------+------------+-----+ <-- LBFGS
  

================================================================================
 Starting LBFGS iteration          1 ...
================================================================================
  
 +------------+-------------+-------------+-----------------+ <-- min LBFGS
 |    Step    |   lambda    |   F.delta'  |    enthalpy     | <-- min LBFGS
 +------------+-------------+-------------+-----------------+ <-- min LBFGS
 |  previous  |    0.000000 |    0.161014 |     -225.873993 | <-- min LBFGS
 +------------+-------------+-------------+-----------------+ <-- min LBFGS
  

--------------------------------------------------------------------------------
 LBFGS: starting iteration         1 with trial guess (lambda=  1.000000)
--------------------------------------------------------------------------------
 
+---------------- MEMORY AND SCRATCH DISK ESTIMATES PER PROCESS --------------+
|                                                     Memory          Disk    |
| Model and support data                               45.3 MB         0.0 MB |
| Electronic energy minimisation requirements          17.1 MB         0.0 MB |
| Geometry minimisation requirements                   19.2 MB         0.0 MB |
|                                               ----------------------------- |
| Approx. total storage required per process           81.5 MB         0.0 MB |
|                                                                             |
| Requirements will fluctuate during execution and may exceed these estimates |
+-----------------------------------------------------------------------------+
 

                           -------------------------------
                                      Unit Cell
                           -------------------------------
        Real Lattice(A)              Reciprocal Lattice(1/A)
     3.1574520     0.0000000     0.0000000        1.989954316  -0.000000000   0.000000000
     0.0000000     2.1139745     0.0000000       -0.000000000   2.972214366   0.000000000
     0.0000000     0.0000000     6.1944764        0.000000000   0.000000000   1.014320640

                       Lattice parameters(A)       Cell Angles
                    a =      3.157452          alpha =   90.000000
                    b =      2.113974          beta  =   90.000000
                    c =      6.194476          gamma =   90.000000

                Current cell volume =            41.346724 A**3

                           -------------------------------
                                     Cell Contents
                           -------------------------------

            xxxxxxxxxxxxxxxxxxxxxxxxxxxxxxxxxxxxxxxxxxxxxxxxxxxxxxxxxxxxxxxxx
            x  Element         Atom        Fractional coordinates of atoms  x
            x                 Number           u          v          w      x
            x---------------------------------------------------------------x
            x  H                 1         0.417433   0.377372   0.000000   x
            x  H                 2        -0.417433   0.377372   0.500000   x
            x  H                 3         0.417433  -0.377372   0.500000   x
            x  H                 4        -0.417433  -0.377372   0.000000   x
            x  H                 5         0.381066   0.000000   0.250000   x
            x  H                 6        -0.381066  -0.000000   0.750000   x
            x  H                 7         0.381066  -0.000000   0.750000   x
            x  H                 8        -0.381066   0.000000   0.250000   x
            x  H                 9         0.917433   0.877372   0.500000   x
            x  H                10        -0.917433   0.877372   0.000000   x
            x  H                11         0.917433  -0.877372   0.000000   x
            x  H                12        -0.917433  -0.877372   0.500000   x
            x  H                13         0.881066   0.500000   0.750000   x
            x  H                14        -0.881066   0.500000   0.250000   x
            x  H                15         0.881066   0.500000   0.250000   x
            x  H                16        -0.881066   0.500000   0.750000   x
            xxxxxxxxxxxxxxxxxxxxxxxxxxxxxxxxxxxxxxxxxxxxxxxxxxxxxxxxxxxxxxxxx


------------------------------------------------------------------------ <-- SCF
SCF loop      Energy                           Energy gain       Timer   <-- SCF
                                               per atom          (sec)   <-- SCF
------------------------------------------------------------------------ <-- SCF
Initial  -2.43967026E+002                                         26.90  <-- SCF
      1  -2.43976575E+002                    5.96847445E-004      27.38  <-- SCF
      2  -2.43976599E+002                    1.47368539E-006      28.24  <-- SCF
      3  -2.43976299E+002                   -1.87546734E-005      29.09  <-- SCF
      4  -2.43976291E+002                   -4.86747626E-007      29.94  <-- SCF
      5  -2.43976291E+002                    2.02658077E-008      30.80  <-- SCF
      6  -2.43976291E+002                    1.98023936E-009      31.66  <-- SCF
      7  -2.43976291E+002                    6.24455320E-012      32.34  <-- SCF
      8  -2.43976291E+002                    4.89413458E-013      33.01  <-- SCF
------------------------------------------------------------------------ <-- SCF
 
Final energy =  -243.9762913081     eV
(energy not corrected for finite basis set)
 

 ******************************** Symmetrised Forces ********************************
 *                                                                                  *
 *                           Cartesian components (eV/A)                            *
 * -------------------------------------------------------------------------------- *
 *                         x                    y                    z              *
 *                                                                                  *
 * H               1      0.10824              0.10557              0.00000         *
 * H               2     -0.10824              0.10557              0.00000         *
 * H               3      0.10824             -0.10557              0.00000         *
 * H               4     -0.10824             -0.10557              0.00000         *
 * H               5      0.14852              0.00000              0.00000         *
 * H               6     -0.14852              0.00000             -0.00000         *
 * H               7      0.14852              0.00000              0.00000         *
 * H               8     -0.14852              0.00000              0.00000         *
 * H               9      0.10824              0.10557              0.00000         *
 * H              10     -0.10824              0.10557              0.00000         *
 * H              11      0.10824             -0.10557              0.00000         *
 * H              12     -0.10824             -0.10557              0.00000         *
 * H              13      0.14852              0.00000              0.00000         *
 * H              14     -0.14852              0.00000             -0.00000         *
 * H              15      0.14852              0.00000             -0.00000         *
 * H              16     -0.14852              0.00000             -0.00000         *
 *                                                                                  *
 ************************************************************************************

 *********** Symmetrised Stress Tensor ***********
 *                                               *
 *          Cartesian components (GPa)           *
 * --------------------------------------------- *
 *             x             y             z     *
 *                                               *
 *  x    -73.174435     -0.000000      0.000000  *
 *  y     -0.000000    -75.258989      0.000000  *
 *  z      0.000000      0.000000    -76.291170  *
 *                                               *
 *  Pressure:   74.9082                          *
 *                                               *
 *************************************************
  
 +------------+-------------+-------------+-----------------+ <-- min LBFGS
 |    Step    |   lambda    |   F.delta'  |    enthalpy     | <-- min LBFGS
 +------------+-------------+-------------+-----------------+ <-- min LBFGS
 |  previous  |    0.000000 |    0.161014 |     -225.873993 | <-- min LBFGS
 | trial step |    1.000000 |    0.080090 |     -225.911684 | <-- min LBFGS
 +------------+-------------+-------------+-----------------+ <-- min LBFGS
  

--------------------------------------------------------------------------------
 LBFGS: improving iteration         1 with line minimization (lambda=  1.989695)
--------------------------------------------------------------------------------
 
+---------------- MEMORY AND SCRATCH DISK ESTIMATES PER PROCESS --------------+
|                                                     Memory          Disk    |
| Model and support data                               45.7 MB         0.0 MB |
| Electronic energy minimisation requirements          17.5 MB         0.0 MB |
| Geometry minimisation requirements                   19.6 MB         0.0 MB |
|                                               ----------------------------- |
| Approx. total storage required per process           82.8 MB         0.0 MB |
|                                                                             |
| Requirements will fluctuate during execution and may exceed these estimates |
+-----------------------------------------------------------------------------+
 

                           -------------------------------
                                      Unit Cell
                           -------------------------------
        Real Lattice(A)              Reciprocal Lattice(1/A)
     3.1781459     0.0000000     0.0000000        1.976997148  -0.000000000   0.000000000
     0.0000000     2.1278294     0.0000000       -0.000000000   2.952861397   0.000000000
     0.0000000     0.0000000     6.2350749        0.000000000   0.000000000   1.007716093

                       Lattice parameters(A)       Cell Angles
                    a =      3.178146          alpha =   90.000000
                    b =      2.127829          beta  =   90.000000
                    c =      6.235075          gamma =   90.000000

                Current cell volume =            42.165020 A**3

                           -------------------------------
                                     Cell Contents
                           -------------------------------

            xxxxxxxxxxxxxxxxxxxxxxxxxxxxxxxxxxxxxxxxxxxxxxxxxxxxxxxxxxxxxxxxx
            x  Element         Atom        Fractional coordinates of atoms  x
            x                 Number           u          v          w      x
            x---------------------------------------------------------------x
            x  H                 1         0.417433   0.377372   0.000000   x
            x  H                 2        -0.417433   0.377372   0.500000   x
            x  H                 3         0.417433  -0.377372   0.500000   x
            x  H                 4        -0.417433  -0.377372   0.000000   x
            x  H                 5         0.381066   0.000000   0.250000   x
            x  H                 6        -0.381066  -0.000000   0.750000   x
            x  H                 7         0.381066  -0.000000   0.750000   x
            x  H                 8        -0.381066   0.000000   0.250000   x
            x  H                 9         0.917433   0.877372   0.500000   x
            x  H                10        -0.917433   0.877372   0.000000   x
            x  H                11         0.917433  -0.877372   0.000000   x
            x  H                12        -0.917433  -0.877372   0.500000   x
            x  H                13         0.881066   0.500000   0.750000   x
            x  H                14        -0.881066   0.500000   0.250000   x
            x  H                15         0.881066   0.500000   0.250000   x
            x  H                16        -0.881066   0.500000   0.750000   x
            xxxxxxxxxxxxxxxxxxxxxxxxxxxxxxxxxxxxxxxxxxxxxxxxxxxxxxxxxxxxxxxxx


------------------------------------------------------------------------ <-- SCF
SCF loop      Energy                           Energy gain       Timer   <-- SCF
                                               per atom          (sec)   <-- SCF
------------------------------------------------------------------------ <-- SCF
Initial  -2.44337410E+002                                         35.77  <-- SCF
      1  -2.44346718E+002                    5.81784674E-004      36.30  <-- SCF
      2  -2.44346741E+002                    1.43200906E-006      37.23  <-- SCF
      3  -2.44346445E+002                   -1.84793386E-005      38.15  <-- SCF
      4  -2.44346438E+002                   -4.73920833E-007      39.07  <-- SCF
      5  -2.44346438E+002                    2.06518159E-008      40.13  <-- SCF
      6  -2.44346438E+002                    2.03305372E-009      41.06  <-- SCF
      7  -2.44346438E+002                    6.90314662E-012      41.79  <-- SCF
      8  -2.44346438E+002                    5.07539883E-013      42.53  <-- SCF
------------------------------------------------------------------------ <-- SCF
 
Final energy =  -244.3464381118     eV
(energy not corrected for finite basis set)
 

 ******************************** Symmetrised Forces ********************************
 *                                                                                  *
 *                           Cartesian components (eV/A)                            *
 * -------------------------------------------------------------------------------- *
 *                         x                    y                    z              *
 *                                                                                  *
 * H               1      0.21271              0.20727              0.00000         *
 * H               2     -0.21271              0.20727              0.00000         *
 * H               3      0.21271             -0.20727              0.00000         *
 * H               4     -0.21271             -0.20727              0.00000         *
 * H               5      0.29226              0.00000             -0.00000         *
 * H               6     -0.29226              0.00000              0.00000         *
 * H               7      0.29226              0.00000             -0.00000         *
 * H               8     -0.29226              0.00000             -0.00000         *
 * H               9      0.21271              0.20727              0.00000         *
 * H              10     -0.21271              0.20727              0.00000         *
 * H              11      0.21271             -0.20727              0.00000         *
 * H              12     -0.21271             -0.20727              0.00000         *
 * H              13      0.29226             -0.00000              0.00000         *
 * H              14     -0.29226              0.00000             -0.00000         *
 * H              15      0.29226              0.00000             -0.00000         *
 * H              16     -0.29226             -0.00000              0.00000         *
 *                                                                                  *
 ************************************************************************************

 *********** Symmetrised Stress Tensor ***********
 *                                               *
 *          Cartesian components (GPa)           *
 * --------------------------------------------- *
 *             x             y             z     *
 *                                               *
 *  x    -66.766886      0.000000      0.000000  *
 *  y      0.000000    -70.821641      0.000000  *
 *  z      0.000000      0.000000    -72.817161  *
 *                                               *
 *  Pressure:   70.1352                          *
 *                                               *
 *************************************************
  
 +------------+-------------+-------------+-----------------+ <-- min LBFGS
 |    Step    |   lambda    |   F.delta'  |    enthalpy     | <-- min LBFGS
 +------------+-------------+-------------+-----------------+ <-- min LBFGS
 |  previous  |    0.000000 |    0.161014 |     -225.873993 | <-- min LBFGS
 | trial step |    1.000000 |    0.080090 |     -225.911684 | <-- min LBFGS
 |  line step |    1.989695 |    0.002236 |     -225.924299 | <-- min LBFGS
 +------------+-------------+-------------+-----------------+ <-- min LBFGS
  
 LBFGS: finished iteration     1 with enthalpy= -2.25924299E+002 eV
  
 +-----------+-----------------+-----------------+------------+-----+ <-- LBFGS
 | Parameter |      value      |    tolerance    |    units   | OK? | <-- LBFGS
 +-----------+-----------------+-----------------+------------+-----+ <-- LBFGS
 |  dE/ion   |   3.144096E-003 |   1.000000E-009 |         eV | No  | <-- LBFGS
 |  |F|max   |   2.969952E-001 |   1.000000E-005 |       eV/A | No  | <-- LBFGS
 |  |dR|max  |   8.389959E-008 |   1.000000E-005 |          A | Yes | <-- LBFGS
 |   Smax    |   3.233114E+000 |   1.000000E-005 |        GPa | No  | <-- LBFGS
 +-----------+-----------------+-----------------+------------+-----+ <-- LBFGS
  

================================================================================
 Starting LBFGS iteration          2 ...
================================================================================
  
 +------------+-------------+-------------+-----------------+ <-- min LBFGS
 |    Step    |   lambda    |   F.delta'  |    enthalpy     | <-- min LBFGS
 +------------+-------------+-------------+-----------------+ <-- min LBFGS
 |  previous  |    0.000000 |    0.098334 |     -225.924299 | <-- min LBFGS
 +------------+-------------+-------------+-----------------+ <-- min LBFGS
  

--------------------------------------------------------------------------------
 LBFGS: starting iteration         2 with trial guess (lambda=  1.000000)
--------------------------------------------------------------------------------
 
+---------------- MEMORY AND SCRATCH DISK ESTIMATES PER PROCESS --------------+
|                                                     Memory          Disk    |
| Model and support data                               47.0 MB         0.0 MB |
| Electronic energy minimisation requirements          18.8 MB         0.0 MB |
| Geometry minimisation requirements                   21.1 MB         0.0 MB |
|                                               ----------------------------- |
| Approx. total storage required per process           87.0 MB         0.0 MB |
|                                                                             |
| Requirements will fluctuate during execution and may exceed these estimates |
+-----------------------------------------------------------------------------+
 

                           -------------------------------
                                      Unit Cell
                           -------------------------------
        Real Lattice(A)              Reciprocal Lattice(1/A)
     3.2316226     0.0000000     0.0000000        1.944281905  -0.000000000   0.000000000
     0.0000000     2.1695434     0.0000000       -0.000000000   2.896086483   0.000000000
     0.0000000     0.0000000     6.3658307        0.000000000   0.000000000   0.987017351

                       Lattice parameters(A)       Cell Angles
                    a =      3.231623          alpha =   90.000000
                    b =      2.169543          beta  =   90.000000
                    c =      6.365831          gamma =   90.000000

                Current cell volume =            44.631765 A**3

                           -------------------------------
                                     Cell Contents
                           -------------------------------

            xxxxxxxxxxxxxxxxxxxxxxxxxxxxxxxxxxxxxxxxxxxxxxxxxxxxxxxxxxxxxxxxx
            x  Element         Atom        Fractional coordinates of atoms  x
            x                 Number           u          v          w      x
            x---------------------------------------------------------------x
            x  H                 1         0.424191   0.387209   0.000000   x
            x  H                 2        -0.424191   0.387209   0.500000   x
            x  H                 3         0.424191  -0.387209   0.500000   x
            x  H                 4        -0.424191  -0.387209   0.000000   x
            x  H                 5         0.390352   0.000000   0.250000   x
            x  H                 6        -0.390352   0.000000   0.750000   x
            x  H                 7         0.390352   0.000000   0.750000   x
            x  H                 8        -0.390352   0.000000   0.250000   x
            x  H                 9         0.924191   0.887209   0.500000   x
            x  H                10        -0.924191   0.887209   0.000000   x
            x  H                11         0.924191  -0.887209   0.000000   x
            x  H                12        -0.924191  -0.887209   0.500000   x
            x  H                13         0.890352   0.500000   0.750000   x
            x  H                14        -0.890352   0.500000   0.250000   x
            x  H                15         0.890352   0.500000   0.250000   x
            x  H                16        -0.890352   0.500000   0.750000   x
            xxxxxxxxxxxxxxxxxxxxxxxxxxxxxxxxxxxxxxxxxxxxxxxxxxxxxxxxxxxxxxxxx


------------------------------------------------------------------------ <-- SCF
SCF loop      Energy                           Energy gain       Timer   <-- SCF
                                               per atom          (sec)   <-- SCF
------------------------------------------------------------------------ <-- SCF
Initial  -2.43682749E+002                                         45.49  <-- SCF
      1  -2.45391781E+002                    1.06814494E-001      46.09  <-- SCF
      2  -2.45398214E+002                    4.02075222E-004      47.09  <-- SCF
      3  -2.45260473E+002                   -8.60883776E-003      48.12  <-- SCF
      4  -2.45255180E+002                   -3.30791830E-004      49.13  <-- SCF
      5  -2.45255247E+002                    4.19011034E-006      50.13  <-- SCF
      6  -2.45255254E+002                    4.10910041E-007      51.14  <-- SCF
      7  -2.45255254E+002                    1.89883661E-009      52.17  <-- SCF
      8  -2.45255254E+002                    7.82215633E-011      53.00  <-- SCF
      9  -2.45255254E+002                    3.99687658E-012      53.80  <-- SCF
     10  -2.45255254E+002                   -2.23559234E-013      54.60  <-- SCF
------------------------------------------------------------------------ <-- SCF
 
Final energy =  -245.2552537575     eV
(energy not corrected for finite basis set)
 

 ******************************** Symmetrised Forces ********************************
 *                                                                                  *
 *                           Cartesian components (eV/A)                            *
 * -------------------------------------------------------------------------------- *
 *                         x                    y                    z              *
 *                                                                                  *
 * H               1     -1.04004             -1.09148              0.00000         *
 * H               2      1.04004             -1.09148              0.00000         *
 * H               3     -1.04004              1.09148              0.00000         *
 * H               4      1.04004              1.09148              0.00000         *
 * H               5     -0.92920              0.00000              0.00000         *
 * H               6      0.92920              0.00000              0.00000         *
 * H               7     -0.92920             -0.00000              0.00000         *
 * H               8      0.92920              0.00000              0.00000         *
 * H               9     -1.04004             -1.09148              0.00000         *
 * H              10      1.04004             -1.09148              0.00000         *
 * H              11     -1.04004              1.09148              0.00000         *
 * H              12      1.04004              1.09148              0.00000         *
 * H              13     -0.92920              0.00000              0.00000         *
 * H              14      0.92920              0.00000             -0.00000         *
 * H              15     -0.92920              0.00000             -0.00000         *
 * H              16      0.92920              0.00000              0.00000         *
 *                                                                                  *
 ************************************************************************************

 *********** Symmetrised Stress Tensor ***********
 *                                               *
 *          Cartesian components (GPa)           *
 * --------------------------------------------- *
 *             x             y             z     *
 *                                               *
 *  x    -78.522785      0.000000      0.000000  *
 *  y      0.000000    -72.818665      0.000000  *
 *  z      0.000000      0.000000    -63.576361  *
 *                                               *
 *  Pressure:   71.6393                          *
 *                                               *
 *************************************************
  
 +------------+-------------+-------------+-----------------+ <-- min LBFGS
 |    Step    |   lambda    |   F.delta'  |    enthalpy     | <-- min LBFGS
 +------------+-------------+-------------+-----------------+ <-- min LBFGS
 |  previous  |    0.000000 |    0.098334 |     -225.924299 | <-- min LBFGS
 | trial step |    1.000000 |   -0.386993 |     -225.755388 | <-- min LBFGS
 +------------+-------------+-------------+-----------------+ <-- min LBFGS
  

--------------------------------------------------------------------------------
 LBFGS: improving iteration         2 with line minimization (lambda=  0.202615)
--------------------------------------------------------------------------------

                           -------------------------------
                                      Unit Cell
                           -------------------------------
        Real Lattice(A)              Reciprocal Lattice(1/A)
     3.1889810     0.0000000     0.0000000        1.970279929  -0.000000000   0.000000000
     0.0000000     2.1362813     0.0000000       -0.000000000   2.941178863   0.000000000
     0.0000000     0.0000000     6.2615679        0.000000000   0.000000000   1.003452393

                       Lattice parameters(A)       Cell Angles
                    a =      3.188981          alpha =   90.000000
                    b =      2.136281          beta  =   90.000000
                    c =      6.261568          gamma =   90.000000

                Current cell volume =            42.657310 A**3

                           -------------------------------
                                     Cell Contents
                           -------------------------------

            xxxxxxxxxxxxxxxxxxxxxxxxxxxxxxxxxxxxxxxxxxxxxxxxxxxxxxxxxxxxxxxxx
            x  Element         Atom        Fractional coordinates of atoms  x
            x                 Number           u          v          w      x
            x---------------------------------------------------------------x
            x  H                 1         0.418802   0.379365   0.000000   x
            x  H                 2        -0.418802   0.379365   0.500000   x
            x  H                 3         0.418802  -0.379365   0.500000   x
            x  H                 4        -0.418802  -0.379365   0.000000   x
            x  H                 5         0.382947   0.000000   0.250000   x
            x  H                 6        -0.382947   0.000000   0.750000   x
            x  H                 7         0.382947  -0.000000   0.750000   x
            x  H                 8        -0.382947   0.000000   0.250000   x
            x  H                 9         0.918802   0.879365   0.500000   x
            x  H                10        -0.918802   0.879365   0.000000   x
            x  H                11         0.918802  -0.879365   0.000000   x
            x  H                12        -0.918802  -0.879365   0.500000   x
            x  H                13         0.882947   0.500000   0.750000   x
            x  H                14        -0.882947   0.500000   0.250000   x
            x  H                15         0.882947   0.500000   0.250000   x
            x  H                16        -0.882947   0.500000   0.750000   x
            xxxxxxxxxxxxxxxxxxxxxxxxxxxxxxxxxxxxxxxxxxxxxxxxxxxxxxxxxxxxxxxxx


------------------------------------------------------------------------ <-- SCF
SCF loop      Energy                           Energy gain       Timer   <-- SCF
                                               per atom          (sec)   <-- SCF
------------------------------------------------------------------------ <-- SCF
Initial  -2.43548046E+002                                         57.75  <-- SCF
      1  -2.44669986E+002                    7.01212643E-002      58.33  <-- SCF
      2  -2.44675574E+002                    3.49194802E-004      59.32  <-- SCF
      3  -2.44583048E+002                   -5.78285980E-003      60.32  <-- SCF
      4  -2.44579819E+002                   -2.01818755E-004      61.34  <-- SCF
      5  -2.44579844E+002                    1.56080899E-006      62.33  <-- SCF
      6  -2.44579846E+002                    1.31321646E-007      63.33  <-- SCF
      7  -2.44579846E+002                    5.10219572E-010      64.34  <-- SCF
      8  -2.44579846E+002                    3.53374643E-011      65.14  <-- SCF
      9  -2.44579846E+002                    1.81264244E-012      65.94  <-- SCF
     10  -2.44579846E+002                   -1.51053536E-013      66.74  <-- SCF
------------------------------------------------------------------------ <-- SCF
 
Final energy =  -244.5798457670     eV
(energy not corrected for finite basis set)
 

 ******************************** Symmetrised Forces ********************************
 *                                                                                  *
 *                           Cartesian components (eV/A)                            *
 * -------------------------------------------------------------------------------- *
 *                         x                    y                    z              *
 *                                                                                  *
 * H               1      0.01595             -0.00568              0.00000         *
 * H               2     -0.01595             -0.00568              0.00000         *
 * H               3      0.01595              0.00568              0.00000         *
 * H               4     -0.01595              0.00568              0.00000         *
 * H               5      0.11752             -0.00000             -0.00000         *
 * H               6     -0.11752              0.00000              0.00000         *
 * H               7      0.11752             -0.00000             -0.00000         *
 * H               8     -0.11752              0.00000             -0.00000         *
 * H               9      0.01595             -0.00568              0.00000         *
 * H              10     -0.01595             -0.00568              0.00000         *
 * H              11      0.01595              0.00568              0.00000         *
 * H              12     -0.01595              0.00568              0.00000         *
 * H              13      0.11752              0.00000              0.00000         *
 * H              14     -0.11752              0.00000              0.00000         *
 * H              15      0.11752              0.00000             -0.00000         *
 * H              16     -0.11752              0.00000             -0.00000         *
 *                                                                                  *
 ************************************************************************************

 *********** Symmetrised Stress Tensor ***********
 *                                               *
 *          Cartesian components (GPa)           *
 * --------------------------------------------- *
 *             x             y             z     *
 *                                               *
 *  x    -68.279023      0.000000      0.000000  *
 *  y      0.000000    -71.302531      0.000000  *
 *  z      0.000000      0.000000    -71.182493  *
 *                                               *
 *  Pressure:   70.2547                          *
 *                                               *
 *************************************************
  
 +------------+-------------+-------------+-----------------+ <-- min LBFGS
 |    Step    |   lambda    |   F.delta'  |    enthalpy     | <-- min LBFGS
 +------------+-------------+-------------+-----------------+ <-- min LBFGS
 |  previous  |    0.000000 |    0.098334 |     -225.924299 | <-- min LBFGS
 | trial step |    1.000000 |   -0.386993 |     -225.755388 | <-- min LBFGS
 |  line step |    0.202615 |    0.023819 |     -225.942612 | <-- min LBFGS
 +------------+-------------+-------------+-----------------+ <-- min LBFGS
  
 LBFGS: finished iteration     2 with enthalpy= -2.25942612E+002 eV
  
 +-----------+-----------------+-----------------+------------+-----+ <-- LBFGS
 | Parameter |      value      |    tolerance    |    units   | OK? | <-- LBFGS
 +-----------+-----------------+-----------------+------------+-----+ <-- LBFGS
 |  dE/ion   |   1.144557E-003 |   1.000000E-009 |         eV | No  | <-- LBFGS
 |  |F|max   |   1.175241E-001 |   1.000000E-005 |       eV/A | No  | <-- LBFGS
 |  |dR|max  |   6.099083E-003 |   1.000000E-005 |          A | No  | <-- LBFGS
 |   Smax    |   1.720977E+000 |   1.000000E-005 |        GPa | No  | <-- LBFGS
 +-----------+-----------------+-----------------+------------+-----+ <-- LBFGS
  

================================================================================
 Starting LBFGS iteration          3 ...
================================================================================
  
 +------------+-------------+-------------+-----------------+ <-- min LBFGS
 |    Step    |   lambda    |   F.delta'  |    enthalpy     | <-- min LBFGS
 +------------+-------------+-------------+-----------------+ <-- min LBFGS
 |  previous  |    0.000000 |    0.035889 |     -225.942612 | <-- min LBFGS
 +------------+-------------+-------------+-----------------+ <-- min LBFGS
  

--------------------------------------------------------------------------------
 LBFGS: starting iteration         3 with trial guess (lambda=  1.000000)
--------------------------------------------------------------------------------

                           -------------------------------
                                      Unit Cell
                           -------------------------------
        Real Lattice(A)              Reciprocal Lattice(1/A)
     3.1937571     0.0000000     0.0000000        1.967333522  -0.000000000   0.000000000
     0.0000000     2.1443570     0.0000000       -0.000000000   2.930102256   0.000000000
     0.0000000     0.0000000     6.2832557        0.000000000   0.000000000   0.999988791

                       Lattice parameters(A)       Cell Angles
                    a =      3.193757          alpha =   90.000000
                    b =      2.144357          beta  =   90.000000
                    c =      6.283256          gamma =   90.000000

                Current cell volume =            43.031224 A**3

                           -------------------------------
                                     Cell Contents
                           -------------------------------

            xxxxxxxxxxxxxxxxxxxxxxxxxxxxxxxxxxxxxxxxxxxxxxxxxxxxxxxxxxxxxxxxx
            x  Element         Atom        Fractional coordinates of atoms  x
            x                 Number           u          v          w      x
            x---------------------------------------------------------------x
            x  H                 1         0.418431   0.377510   0.000000   x
            x  H                 2        -0.418431   0.377510   0.500000   x
            x  H                 3         0.418431  -0.377510   0.500000   x
            x  H                 4        -0.418431  -0.377510   0.000000   x
            x  H                 5         0.386405   0.000000   0.250000   x
            x  H                 6        -0.386405   0.000000   0.750000   x
            x  H                 7         0.386405  -0.000000   0.750000   x
            x  H                 8        -0.386405  -0.000000   0.250000   x
            x  H                 9         0.918431   0.877510   0.500000   x
            x  H                10        -0.918431   0.877510   0.000000   x
            x  H                11         0.918431  -0.877510   0.000000   x
            x  H                12        -0.918431  -0.877510   0.500000   x
            x  H                13         0.886405   0.500000   0.750000   x
            x  H                14        -0.886405   0.500000   0.250000   x
            x  H                15         0.886405   0.500000   0.250000   x
            x  H                16        -0.886405   0.500000   0.750000   x
            xxxxxxxxxxxxxxxxxxxxxxxxxxxxxxxxxxxxxxxxxxxxxxxxxxxxxxxxxxxxxxxxx


------------------------------------------------------------------------ <-- SCF
SCF loop      Energy                           Energy gain       Timer   <-- SCF
                                               per atom          (sec)   <-- SCF
------------------------------------------------------------------------ <-- SCF
Initial  -2.44615282E+002                                         69.88  <-- SCF
      1  -2.44737162E+002                    7.61743996E-003      70.46  <-- SCF
      2  -2.44737786E+002                    3.90404606E-005      71.46  <-- SCF
      3  -2.44726682E+002                   -6.94004340E-004      72.46  <-- SCF
      4  -2.44726460E+002                   -1.38800280E-005      73.51  <-- SCF
      5  -2.44726460E+002                    1.74450400E-008      74.52  <-- SCF
      6  -2.44726460E+002                    1.57053383E-010      75.56  <-- SCF
      7  -2.44726460E+002                    3.71791090E-010      76.59  <-- SCF
      8  -2.44726460E+002                    3.79688169E-011      77.42  <-- SCF
      9  -2.44726460E+002                    1.02112191E-012      78.22  <-- SCF
     10  -2.44726460E+002                   -3.02107073E-014      79.01  <-- SCF
------------------------------------------------------------------------ <-- SCF
 
Final energy =  -244.7264603198     eV
(energy not corrected for finite basis set)
 

 ******************************** Symmetrised Forces ********************************
 *                                                                                  *
 *                           Cartesian components (eV/A)                            *
 * -------------------------------------------------------------------------------- *
 *                         x                    y                    z              *
 *                                                                                  *
 * H               1      0.26351              0.24162             -0.00000         *
 * H               2     -0.26351              0.24162             -0.00000         *
 * H               3      0.26351             -0.24162             -0.00000         *
 * H               4     -0.26351             -0.24162             -0.00000         *
 * H               5     -0.41859             -0.00000              0.00000         *
 * H               6      0.41859             -0.00000             -0.00000         *
 * H               7     -0.41859             -0.00000              0.00000         *
 * H               8      0.41859              0.00000             -0.00000         *
 * H               9      0.26351              0.24162             -0.00000         *
 * H              10     -0.26351              0.24162             -0.00000         *
 * H              11      0.26351             -0.24162             -0.00000         *
 * H              12     -0.26351             -0.24162             -0.00000         *
 * H              13     -0.41859             -0.00000             -0.00000         *
 * H              14      0.41859             -0.00000              0.00000         *
 * H              15     -0.41859             -0.00000              0.00000         *
 * H              16      0.41859              0.00000              0.00000         *
 *                                                                                  *
 ************************************************************************************

 *********** Symmetrised Stress Tensor ***********
 *                                               *
 *          Cartesian components (GPa)           *
 * --------------------------------------------- *
 *             x             y             z     *
 *                                               *
 *  x    -70.873095      0.000000      0.000000  *
 *  y      0.000000    -69.506269      0.000000  *
 *  z      0.000000      0.000000    -70.647225  *
 *                                               *
 *  Pressure:   70.3422                          *
 *                                               *
 *************************************************
  
 +------------+-------------+-------------+-----------------+ <-- min LBFGS
 |    Step    |   lambda    |   F.delta'  |    enthalpy     | <-- min LBFGS
 +------------+-------------+-------------+-----------------+ <-- min LBFGS
 |  previous  |    0.000000 |    0.035889 |     -225.942612 | <-- min LBFGS
 | trial step |    1.000000 |   -0.138423 |     -225.925891 | <-- min LBFGS
 +------------+-------------+-------------+-----------------+ <-- min LBFGS
  

--------------------------------------------------------------------------------
 LBFGS: improving iteration         3 with line minimization (lambda=  0.205891)
--------------------------------------------------------------------------------

                           -------------------------------
                                      Unit Cell
                           -------------------------------
        Real Lattice(A)              Reciprocal Lattice(1/A)
     3.1899644     0.0000000     0.0000000        1.969672568  -0.000000000   0.000000000
     0.0000000     2.1379440     0.0000000       -0.000000000   2.938891444   0.000000000
     0.0000000     0.0000000     6.2660333        0.000000000   0.000000000   1.002737307

                       Lattice parameters(A)       Cell Angles
                    a =      3.189964          alpha =   90.000000
                    b =      2.137944          beta  =   90.000000
                    c =      6.266033          gamma =   90.000000

                Current cell volume =            42.734128 A**3

                           -------------------------------
                                     Cell Contents
                           -------------------------------

            xxxxxxxxxxxxxxxxxxxxxxxxxxxxxxxxxxxxxxxxxxxxxxxxxxxxxxxxxxxxxxxxx
            x  Element         Atom        Fractional coordinates of atoms  x
            x                 Number           u          v          w      x
            x---------------------------------------------------------------x
            x  H                 1         0.418726   0.378983   0.000000   x
            x  H                 2        -0.418726   0.378983   0.500000   x
            x  H                 3         0.418726  -0.378983   0.500000   x
            x  H                 4        -0.418726  -0.378983   0.000000   x
            x  H                 5         0.383659   0.000000   0.250000   x
            x  H                 6        -0.383659   0.000000   0.750000   x
            x  H                 7         0.383659  -0.000000   0.750000   x
            x  H                 8        -0.383659   0.000000   0.250000   x
            x  H                 9         0.918726   0.878983   0.500000   x
            x  H                10        -0.918726   0.878983   0.000000   x
            x  H                11         0.918726  -0.878983   0.000000   x
            x  H                12        -0.918726  -0.878983   0.500000   x
            x  H                13         0.883659   0.500000   0.750000   x
            x  H                14        -0.883659   0.500000   0.250000   x
            x  H                15         0.883659   0.500000   0.250000   x
            x  H                16        -0.883659   0.500000   0.750000   x
            xxxxxxxxxxxxxxxxxxxxxxxxxxxxxxxxxxxxxxxxxxxxxxxxxxxxxxxxxxxxxxxxx


------------------------------------------------------------------------ <-- SCF
SCF loop      Energy                           Energy gain       Timer   <-- SCF
                                               per atom          (sec)   <-- SCF
------------------------------------------------------------------------ <-- SCF
Initial  -2.44544266E+002                                         82.12  <-- SCF
      1  -2.44621535E+002                    4.82930915E-003      82.67  <-- SCF
      2  -2.44621965E+002                    2.68562729E-005      83.67  <-- SCF
      3  -2.44614831E+002                   -4.45883389E-004      84.67  <-- SCF
      4  -2.44614687E+002                   -9.00668067E-006      85.71  <-- SCF
      5  -2.44614686E+002                   -1.41717068E-008      86.71  <-- SCF
      6  -2.44614686E+002                   -1.36059660E-009      87.73  <-- SCF
      7  -2.44614686E+002                    2.32024274E-010      88.65  <-- SCF
      8  -2.44614686E+002                    2.26731358E-011      89.45  <-- SCF
      9  -2.44614686E+002                    4.22949902E-014      90.25  <-- SCF
     10  -2.44614686E+002                    6.22340570E-013      91.09  <-- SCF
------------------------------------------------------------------------ <-- SCF
 
Final energy =  -244.6146863862     eV
(energy not corrected for finite basis set)
 

 ******************************** Symmetrised Forces ********************************
 *                                                                                  *
 *                           Cartesian components (eV/A)                            *
 * -------------------------------------------------------------------------------- *
 *                         x                    y                    z              *
 *                                                                                  *
 * H               1      0.06715              0.04538              0.00000         *
 * H               2     -0.06715              0.04538              0.00000         *
 * H               3      0.06715             -0.04538              0.00000         *
 * H               4     -0.06715             -0.04538              0.00000         *
 * H               5      0.01500             -0.00000              0.00000         *
 * H               6     -0.01500              0.00000              0.00000         *
 * H               7      0.01500              0.00000             -0.00000         *
 * H               8     -0.01500             -0.00000              0.00000         *
 * H               9      0.06715              0.04538              0.00000         *
 * H              10     -0.06715              0.04538              0.00000         *
 * H              11      0.06715             -0.04538              0.00000         *
 * H              12     -0.06715             -0.04538              0.00000         *
 * H              13      0.01500             -0.00000             -0.00000         *
 * H              14     -0.01500              0.00000             -0.00000         *
 * H              15      0.01500              0.00000             -0.00000         *
 * H              16     -0.01500             -0.00000              0.00000         *
 *                                                                                  *
 ************************************************************************************

 *********** Symmetrised Stress Tensor ***********
 *                                               *
 *          Cartesian components (GPa)           *
 * --------------------------------------------- *
 *             x             y             z     *
 *                                               *
 *  x    -68.775730      0.000000      0.000000  *
 *  y      0.000000    -70.912181      0.000000  *
 *  z      0.000000      0.000000    -71.033722  *
 *                                               *
 *  Pressure:   70.2405                          *
 *                                               *
 *************************************************
  
 +------------+-------------+-------------+-----------------+ <-- min LBFGS
 |    Step    |   lambda    |   F.delta'  |    enthalpy     | <-- min LBFGS
 +------------+-------------+-------------+-----------------+ <-- min LBFGS
 |  previous  |    0.000000 |    0.035889 |     -225.942612 | <-- min LBFGS
 | trial step |    1.000000 |   -0.138423 |     -225.925891 | <-- min LBFGS
 |  line step |    0.205891 |    0.001877 |     -225.943913 | <-- min LBFGS
 +------------+-------------+-------------+-----------------+ <-- min LBFGS
  
 LBFGS: finished iteration     3 with enthalpy= -2.25943913E+002 eV
  
 +-----------+-----------------+-----------------+------------+-----+ <-- LBFGS
 | Parameter |      value      |    tolerance    |    units   | OK? | <-- LBFGS
 +-----------+-----------------+-----------------+------------+-----+ <-- LBFGS
 |  dE/ion   |   8.132497E-005 |   1.000000E-009 |         eV | No  | <-- LBFGS
 |  |F|max   |   8.105152E-002 |   1.000000E-005 |       eV/A | No  | <-- LBFGS
 |  |dR|max  |   2.270813E-003 |   1.000000E-005 |          A | No  | <-- LBFGS
 |   Smax    |   1.224270E+000 |   1.000000E-005 |        GPa | No  | <-- LBFGS
 +-----------+-----------------+-----------------+------------+-----+ <-- LBFGS
  

================================================================================
 Starting LBFGS iteration          4 ...
================================================================================
  
 +------------+-------------+-------------+-----------------+ <-- min LBFGS
 |    Step    |   lambda    |   F.delta'  |    enthalpy     | <-- min LBFGS
 +------------+-------------+-------------+-----------------+ <-- min LBFGS
 |  previous  |    0.000000 |    0.022899 |     -225.943913 | <-- min LBFGS
 +------------+-------------+-------------+-----------------+ <-- min LBFGS
  

--------------------------------------------------------------------------------
 LBFGS: starting iteration         4 with trial guess (lambda=  1.000000)
--------------------------------------------------------------------------------

                           -------------------------------
                                      Unit Cell
                           -------------------------------
        Real Lattice(A)              Reciprocal Lattice(1/A)
     3.1918034     0.0000000     0.0000000        1.968537705  -0.000000000   0.000000000
     0.0000000     2.1434888     0.0000000       -0.000000000   2.931289020   0.000000000
     0.0000000     0.0000000     6.2806960        0.000000000   0.000000000   1.000396338

                       Lattice parameters(A)       Cell Angles
                    a =      3.191803          alpha =   90.000000
                    b =      2.143489          beta  =   90.000000
                    c =      6.280696          gamma =   90.000000

                Current cell volume =            42.969978 A**3

                           -------------------------------
                                     Cell Contents
                           -------------------------------

            xxxxxxxxxxxxxxxxxxxxxxxxxxxxxxxxxxxxxxxxxxxxxxxxxxxxxxxxxxxxxxxxx
            x  Element         Atom        Fractional coordinates of atoms  x
            x                 Number           u          v          w      x
            x---------------------------------------------------------------x
            x  H                 1         0.419748   0.378950   0.000000   x
            x  H                 2        -0.419748   0.378950   0.500000   x
            x  H                 3         0.419748  -0.378950   0.500000   x
            x  H                 4        -0.419748  -0.378950   0.000000   x
            x  H                 5         0.384100   0.000000   0.250000   x
            x  H                 6        -0.384100  -0.000000   0.750000   x
            x  H                 7         0.384100  -0.000000   0.750000   x
            x  H                 8        -0.384100   0.000000   0.250000   x
            x  H                 9         0.919748   0.878950   0.500000   x
            x  H                10        -0.919748   0.878950   0.000000   x
            x  H                11         0.919748  -0.878950   0.000000   x
            x  H                12        -0.919748  -0.878950   0.500000   x
            x  H                13         0.884100   0.500000   0.750000   x
            x  H                14        -0.884100   0.500000   0.250000   x
            x  H                15         0.884100   0.500000   0.250000   x
            x  H                16        -0.884100   0.500000   0.750000   x
            xxxxxxxxxxxxxxxxxxxxxxxxxxxxxxxxxxxxxxxxxxxxxxxxxxxxxxxxxxxxxxxxx


[...]
            xxxxxxxxxxxxxxxxxxxxxxxxxxxxxxxxxxxxxxxxxxxxxxxxxxxxxxxxxxxxxxxxx


------------------------------------------------------------------------ <-- SCF
SCF loop      Energy                           Energy gain       Timer   <-- SCF
                                               per atom          (sec)   <-- SCF
------------------------------------------------------------------------ <-- SCF
Initial  -2.45028605E+002                                        447.99  <-- SCF
      1  -2.45028605E+002                    1.66189101E-011     448.38  <-- SCF
      2  -2.45028605E+002                    3.32317780E-013     449.07  <-- SCF
      3  -2.45028605E+002                    2.41685658E-014     449.76  <-- SCF
      4  -2.45028605E+002                    2.44706729E-013     450.46  <-- SCF
------------------------------------------------------------------------ <-- SCF
 
Final energy =  -245.0286046916     eV
(energy not corrected for finite basis set)
 

 ******************************** Symmetrised Forces ********************************
 *                                                                                  *
 *                           Cartesian components (eV/A)                            *
 * -------------------------------------------------------------------------------- *
 *                         x                    y                    z              *
 *                                                                                  *
 * H               1      0.00000             -0.00000              0.00000         *
 * H               2     -0.00000             -0.00000              0.00000         *
 * H               3      0.00000              0.00000              0.00000         *
 * H               4     -0.00000              0.00000              0.00000         *
 * H               5     -0.00000              0.00000             -0.00000         *
 * H               6      0.00000              0.00000              0.00000         *
 * H               7     -0.00000              0.00000             -0.00000         *
 * H               8      0.00000              0.00000             -0.00000         *
 * H               9      0.00000             -0.00000              0.00000         *
 * H              10     -0.00000             -0.00000              0.00000         *
 * H              11      0.00000              0.00000              0.00000         *
 * H              12     -0.00000              0.00000              0.00000         *
 * H              13     -0.00000              0.00000              0.00000         *
 * H              14      0.00000              0.00000              0.00000         *
 * H              15     -0.00000              0.00000             -0.00000         *
 * H              16      0.00000              0.00000             -0.00000         *
 *                                                                                  *
 ************************************************************************************

 *********** Symmetrised Stress Tensor ***********
 *                                               *
 *          Cartesian components (GPa)           *
 * --------------------------------------------- *
 *             x             y             z     *
 *                                               *
 *  x    -70.000000      0.000000      0.000000  *
 *  y      0.000000    -69.999997      0.000000  *
 *  z      0.000000      0.000000    -70.000000  *
 *                                               *
 *  Pressure:   70.0000                          *
 *                                               *
 *************************************************
  
 +------------+-------------+-------------+-----------------+ <-- min LBFGS
 |    Step    |   lambda    |   F.delta'  |    enthalpy     | <-- min LBFGS
 +------------+-------------+-------------+-----------------+ <-- min LBFGS
 |  previous  |    0.000000 |  1.050E-006 |     -226.270268 | <-- min LBFGS
 | trial step |    1.000000 | -3.053E-008 |     -226.270268 | <-- min LBFGS
 +------------+-------------+-------------+-----------------+ <-- min LBFGS
  
 LBFGS: finished iteration    24 with enthalpy= -2.26270268E+002 eV
  
 +-----------+-----------------+-----------------+------------+-----+ <-- LBFGS
 | Parameter |      value      |    tolerance    |    units   | OK? | <-- LBFGS
 +-----------+-----------------+-----------------+------------+-----+ <-- LBFGS
 |  dE/ion   |   7.552677E-013 |   1.000000E-009 |         eV | Yes | <-- LBFGS
 |  |F|max   |   1.368785E-007 |   1.000000E-005 |       eV/A | Yes | <-- LBFGS
 |  |dR|max  |   7.157951E-007 |   1.000000E-005 |          A | Yes | <-- LBFGS
 |   Smax    |   3.115550E-006 |   1.000000E-005 |        GPa | Yes | <-- LBFGS
 +-----------+-----------------+-----------------+------------+-----+ <-- LBFGS
  
 LBFGS: Geometry optimization completed successfully.

================================================================================
 LBFGS: Final Configuration:
================================================================================

                           -------------------------------
                                      Unit Cell
                           -------------------------------
        Real Lattice(A)              Reciprocal Lattice(1/A)
     2.7958941     0.0000000     0.0000000        2.247290174  -0.000000000   0.000000000
     0.0000000     2.7827742     0.0000000       -0.000000000   2.257885412   0.000000000
     0.0000000     0.0000000     5.5183352        0.000000000   0.000000000   1.138601604

                       Lattice parameters(A)       Cell Angles
                    a =      2.795894          alpha =   90.000000
                    b =      2.782774          beta  =   90.000000
                    c =      5.518335          gamma =   90.000000

                Current cell volume =            42.934535 A**3

                           -------------------------------
                                     Cell Contents
                           -------------------------------

            xxxxxxxxxxxxxxxxxxxxxxxxxxxxxxxxxxxxxxxxxxxxxxxxxxxxxxxxxxxxxxxxx
            x  Element         Atom        Fractional coordinates of atoms  x
            x                 Number           u          v          w      x
            x---------------------------------------------------------------x
            x  H                 1         0.425248   0.391980   0.000000   x
            x  H                 2        -0.425248   0.391980   0.500000   x
            x  H                 3         0.425248  -0.391980   0.500000   x
            x  H                 4        -0.425248  -0.391980   0.000000   x
            x  H                 5         0.369476   0.000000   0.250000   x
            x  H                 6        -0.369476   0.000000   0.750000   x
            x  H                 7         0.369476  -0.000000   0.750000   x
            x  H                 8        -0.369476   0.000000   0.250000   x
            x  H                 9         0.925248   0.891980   0.500000   x
            x  H                10        -0.925248   0.891980   0.000000   x
            x  H                11         0.925248  -0.891980   0.000000   x
            x  H                12        -0.925248  -0.891980   0.500000   x
            x  H                13         0.869476   0.500000   0.750000   x
            x  H                14        -0.869476   0.500000   0.250000   x
            x  H                15         0.869476   0.500000   0.250000   x
            x  H                16        -0.869476   0.500000   0.750000   x
            xxxxxxxxxxxxxxxxxxxxxxxxxxxxxxxxxxxxxxxxxxxxxxxxxxxxxxxxxxxxxxxxx


 LBFGS: Final Enthalpy     = -2.26270268E+002 eV
 LBFGS: Final <frequency>  =     327.42437 cm-1
 LBFGS: Final bulk modulus =     168.62334 GPa

 ******************************** Symmetrised Forces ********************************
 *                                                                                  *
 *                           Cartesian components (eV/A)                            *
 * -------------------------------------------------------------------------------- *
 *                         x                    y                    z              *
 *                                                                                  *
 * H               1      0.00000             -0.00000              0.00000         *
 * H               2     -0.00000             -0.00000              0.00000         *
 * H               3      0.00000              0.00000              0.00000         *
 * H               4     -0.00000              0.00000              0.00000         *
 * H               5     -0.00000              0.00000             -0.00000         *
 * H               6      0.00000              0.00000              0.00000         *
 * H               7     -0.00000              0.00000             -0.00000         *
 * H               8      0.00000              0.00000             -0.00000         *
 * H               9      0.00000             -0.00000              0.00000         *
 * H              10     -0.00000             -0.00000              0.00000         *
 * H              11      0.00000              0.00000              0.00000         *
 * H              12     -0.00000              0.00000              0.00000         *
 * H              13     -0.00000              0.00000              0.00000         *
 * H              14      0.00000              0.00000              0.00000         *
 * H              15     -0.00000              0.00000             -0.00000         *
 * H              16      0.00000              0.00000             -0.00000         *
 *                                                                                  *
 ************************************************************************************

 *********** Symmetrised Stress Tensor ***********
 *                                               *
 *          Cartesian components (GPa)           *
 * --------------------------------------------- *
 *             x             y             z     *
 *                                               *
 *  x    -70.000000      0.000000      0.000000  *
 *  y      0.000000    -69.999997      0.000000  *
 *  z      0.000000      0.000000    -70.000000  *
 *                                               *
 *  Pressure:   70.0000                          *
 *                                               *
 *************************************************

 Pseudo atomic calculation performed for H 1s1

 Converged in 24 iterations to a total energy of -12.4843 eV

Charge spilling parameter for spin component 1 = 0.59%

            Orbital Populations       
     Ion    Atom   Orbital             Charge
  -------------------------------------------
      H     1      S                    0.999
      H     2      S                    0.999
      H     3      S                    0.999
      H     4      S                    0.999
      H     5      S                    1.001
      H     6      S                    1.001
      H     7      S                    1.001
      H     8      S                    1.001
      H     9      S                    0.999
      H    10      S                    0.999
      H    11      S                    0.999
      H    12      S                    0.999
      H    13      S                    1.001
      H    14      S                    1.001
      H    15      S                    1.001
      H    16      S                    1.001
  -------------------------------------------
                           Total:      16.000
  -------------------------------------------

     Atomic Populations (Mulliken)
     -----------------------------
Species          Ion     s      p      d      f     Total  Charge (e)
=====================================================================
  H               1     1.00   0.00   0.00   0.00   1.00     0.00
  H               2     1.00   0.00   0.00   0.00   1.00     0.00
  H               3     1.00   0.00   0.00   0.00   1.00     0.00
  H               4     1.00   0.00   0.00   0.00   1.00     0.00
  H               5     1.00   0.00   0.00   0.00   1.00    -0.00
  H               6     1.00   0.00   0.00   0.00   1.00    -0.00
  H               7     1.00   0.00   0.00   0.00   1.00    -0.00
  H               8     1.00   0.00   0.00   0.00   1.00    -0.00
  H               9     1.00   0.00   0.00   0.00   1.00     0.00
  H              10     1.00   0.00   0.00   0.00   1.00     0.00
  H              11     1.00   0.00   0.00   0.00   1.00     0.00
  H              12     1.00   0.00   0.00   0.00   1.00     0.00
  H              13     1.00   0.00   0.00   0.00   1.00    -0.00
  H              14     1.00   0.00   0.00   0.00   1.00    -0.00
  H              15     1.00   0.00   0.00   0.00   1.00    -0.00
  H              16     1.00   0.00   0.00   0.00   1.00    -0.00
=====================================================================

                 Bond                   Population      Length (A)
======================================================================
              H 6  -- H 7                    1.50        0.72986
              H 5  -- H 8                    1.50        0.72986
              H 14 -- H 15                   1.50        0.72986
              H 13 -- H 16                   1.50        0.72986
              H 2  -- H 3                    1.49        0.73223
              H 1  -- H 4                    1.49        0.73223
              H 10 -- H 11                   1.49        0.73223
              H 9  -- H 12                   1.49        0.73223
              H 7  -- H 16                  -0.23        1.54347
              H 5  -- H 14                  -0.23        1.54347
              H 8  -- H 15                  -0.23        1.54347
              H 6  -- H 13                  -0.23        1.54347
              H 4  -- H 10                  -0.27        1.60582
              H 3  -- H 9                   -0.27        1.60582
              H 2  -- H 12                  -0.27        1.60582
              H 1  -- H 11                  -0.27        1.60582
              H 8  -- H 11                  -0.12        1.63481
              H 8  -- H 9                   -0.12        1.63481
              H 7  -- H 12                  -0.12        1.63481
              H 7  -- H 10                  -0.12        1.63481
              H 6  -- H 11                  -0.12        1.63481
              H 6  -- H 9                   -0.12        1.63481
              H 5  -- H 12                  -0.12        1.63481
              H 5  -- H 10                  -0.12        1.63481
              H 4  -- H 15                  -0.12        1.63481
              H 4  -- H 13                  -0.12        1.63481
              H 3  -- H 16                  -0.12        1.63481
              H 3  -- H 14                  -0.12        1.63481
              H 2  -- H 15                  -0.12        1.63481
              H 2  -- H 13                  -0.12        1.63481
              H 1  -- H 16                  -0.12        1.63481
              H 1  -- H 14                  -0.12        1.63481
              H 4  -- H 11                  -0.30        1.70184
              H 3  -- H 12                  -0.30        1.70184
              H 2  -- H 9                   -0.30        1.70184
              H 1  -- H 10                  -0.30        1.70184
              H 4  -- H 8                   -0.13        1.76561
              H 4  -- H 6                   -0.13        1.76561
              H 3  -- H 7                   -0.13        1.76561
              H 3  -- H 5                   -0.13        1.76561
              H 2  -- H 8                   -0.13        1.76561
              H 2  -- H 6                   -0.13        1.76561
              H 1  -- H 7                   -0.13        1.76561
              H 1  -- H 5                   -0.13        1.76561
              H 12 -- H 16                  -0.13        1.76561
              H 12 -- H 14                  -0.13        1.76561
              H 11 -- H 15                  -0.13        1.76561
              H 11 -- H 13                  -0.13        1.76561
              H 10 -- H 16                  -0.13        1.76561
              H 10 -- H 14                  -0.13        1.76561
              H 9  -- H 15                  -0.13        1.76561
              H 9  -- H 13                  -0.13        1.76561
              H 4  -- H 7                   -0.14        1.84999
              H 4  -- H 5                   -0.14        1.84999
              H 3  -- H 8                   -0.14        1.84999
              H 3  -- H 6                   -0.14        1.84999
              H 2  -- H 7                   -0.14        1.84999
              H 2  -- H 5                   -0.14        1.84999
              H 1  -- H 8                   -0.14        1.84999
              H 1  -- H 6                   -0.14        1.84999
              H 11 -- H 16                  -0.14        1.84999
              H 11 -- H 14                  -0.14        1.84999
              H 9  -- H 16                  -0.14        1.84999
              H 9  -- H 14                  -0.14        1.84999
              H 12 -- H 15                  -0.14        1.84999
              H 12 -- H 13                  -0.14        1.84999
              H 10 -- H 15                  -0.14        1.84999
              H 10 -- H 13                  -0.14        1.84999
              H 4  -- H 16                  -0.15        1.88048
              H 4  -- H 14                  -0.15        1.88048
              H 3  -- H 15                  -0.15        1.88048
              H 3  -- H 13                  -0.15        1.88048
              H 2  -- H 16                  -0.15        1.88048
              H 2  -- H 14                  -0.15        1.88048
              H 1  -- H 15                  -0.15        1.88048
              H 1  -- H 13                  -0.15        1.88048
              H 8  -- H 12                  -0.15        1.88048
              H 8  -- H 10                  -0.15        1.88048
              H 7  -- H 11                  -0.15        1.88048
              H 7  -- H 9                   -0.15        1.88048
              H 6  -- H 12                  -0.15        1.88048
              H 6  -- H 10                  -0.15        1.88048
              H 5  -- H 11                  -0.15        1.88048
              H 5  -- H 9                   -0.15        1.88048
              H 8  -- H 14                  -0.35        1.97236
              H 7  -- H 13                  -0.35        1.97236
              H 6  -- H 16                  -0.35        1.97236
              H 5  -- H 15                  -0.35        1.97236
              H 14 -- H 16                   0.02        2.75917
              H 13 -- H 15                   0.02        2.75917
              H 6  -- H 8                    0.02        2.75917
              H 5  -- H 7                    0.02        2.75917
======================================================================


Writing analysis data to Hibam.castep_bin

Writing model to Hibam.check
 
 A BibTeX formatted list of references used in this run has been written to 
 Hibam.bib
 
Initialisation time =      2.92 s
Calculation time    =    451.25 s
Finalisation time   =      1.05 s
Total time          =    455.22 s
Peak Memory Use     = 578824 kB
  
Overall parallel efficiency rating: Very good (88%)                             
  
Data was distributed by:-
k-point (32-way); efficiency rating: Very good (89%)                            
  
Parallel notes:
1) Calculation only took 454.2 s, so efficiency estimates may be inaccurate.    
