 +-------------------------------------------------+
 |                                                 |
 |      CCC   AA    SSS  TTTTT  EEEEE  PPPP        |
 |     C     A  A  S       T    E      P   P       |
 |     C     AAAA   SS     T    EEE    PPPP        |
 |     C     A  A     S    T    E      P           |
 |      CCC  A  A  SSS     T    EEEEE  P           |
 |                                                 |
 +-------------------------------------------------+
 |                                                 |
 | Welcome to Academic Release CASTEP version 18.1 |          
 | Ab Initio Total Energy Program                  |
 |                                                 |
 | Authors:                                        |
 | M. Segall, M. Probert, C. Pickard, P. Hasnip,   |
 | S. Clark, K. Refson, J. R. Yates, M. Payne      |
 |                                                 |
 | Contributors:                                   |
 | P. Lindan, P. Haynes, J. White, V. Milman,      |
 | N. Govind, M. Gibson, P. Tulip, V. Cocula,      |
 | B. Montanari, D. Quigley, M. Glover,            |
 | L. Bernasconi, A. Perlov, M. Plummer,           |
 | E. McNellis, J. Meyer, J. Gale, D. Jochym       |
 | J. Aarons, B. Walker, R. Gillen, D. Jones       |
 | T. Green, I. J. Bush, C. J. Armstrong,          |
 | E. J. Higgins, E. L. Brown, M. S. McFly,        |
 | J. Wilkins, B-C. Shih, P. J. P. Byrne           |
 |                                                 |
 | Copyright (c) 2000 - 2017                       |
 |                                                 |
 |     Distributed under the terms of an           |
 |     Agreement between the United Kingdom        |
 |     Car-Parrinello (UKCP) Consortium,           |
 |     Daresbury Laboratory and Accelrys, Inc.     |
 |                                                 |
 | Please cite                                     |
 |                                                 |
 |     "First principles methods using CASTEP"     |
 |                                                 |
 |         Zeitschrift fuer Kristallographie       |
 |           220(5-6) pp. 567-570 (2005)           |
 |                                                 |
 | S. J. Clark, M. D. Segall, C. J. Pickard,       |
 | P. J. Hasnip, M. J. Probert, K. Refson,         |
 | M. C. Payne                                     |
 |                                                 |
 |       in all publications arising from          |
 |              your use of CASTEP                 |
 |                                                 |
 +-------------------------------------------------+


 Compiled for linux_x86_64_gfortran4.8 on Thu, 19 Jul 2018 15:42:32 +0100
 from code version 70483bd0ad64+  Sun, 10 Dec 2017 12:18:29 +0000
 Compiler: GNU Fortran 4.8.5; Optimisation: fast
 MATHLIBS: Intel MKL(2018.0.0) (LAPACK version 3.7.0)
 FFT Lib : mkl
 Fundamental constants values: CODATA 2014

 Run started: Wed, 26 Aug 2020 13:03:56 +0100

 Atomic calculation performed for H: 1s1

 Converged in 41 iterations to an ae energy of -12.488 eV

   ============================================================                
   | Pseudopotential Report - Date of generation 26-08-2020   |                
   ------------------------------------------------------------                
   | Element: H Ionic charge:  1.00 Level of theory: PBE      |                
   | Atomic Solver: Koelling-Harmon                           |                
   |                                                          |                
   |               Reference Electronic Structure             |                
   |         Orbital         Occupation         Energy        |                
   |            1s              1.000           -0.239        |                
   |                                                          |                
   |                 Pseudopotential Definition               |                
   |        Beta     l      e      Rc     scheme   norm       |                
   |         loc     0   -0.239   0.702     qc      1         |                
   |                                                          |                
   | No charge augmentation                                   |                
   | No partial core correction                               |                
   ------------------------------------------------------------                
   | "0|0.7|2|6|8|10L(qc=10)"                                 |                
   ------------------------------------------------------------                
   |      Author: Chris J. Pickard, Cambridge University      |                
   ============================================================                

 Pseudo atomic calculation performed for H 1s1

 Converged in 24 iterations to a total energy of -12.4843 eV

 Calculation parallelised over 32 processes.
 Data is distributed by k-point(32-way)

 ************************************ Title ************************************
 

 ***************************** General Parameters ******************************
  
 output verbosity                               : normal  (1)
 write checkpoint data to                       : Hibam.check
 type of calculation                            : geometry optimization
 stress calculation                             : on
 density difference calculation                 : off
 electron localisation func (ELF) calculation   : off
 Hirshfeld analysis                             : off
 unlimited duration calculation
 timing information                             : on
 memory usage estimate                          : on
 write extra output files                       : on
 write final potential to formatted file        : off
 write final density to formatted file          : off
 write structure in CELL formatted file         : on
 write BibTeX reference list                    : on
 write OTFG pseudopotential files               : on
 write electrostatic potential file             : on
 write bands file                               : on
 checkpoint writing                             : both castep_bin and check files
  
 output         length unit                     : A
 output           mass unit                     : amu
 output           time unit                     : ps
 output         charge unit                     : e
 output           spin unit                     : hbar/2
 output         energy unit                     : eV
 output          force unit                     : eV/A
 output       velocity unit                     : A/ps
 output       pressure unit                     : GPa
 output     inv_length unit                     : 1/A
 output      frequency unit                     : cm-1
 output force constant unit                     : eV/A**2
 output         volume unit                     : A**3
 output   IR intensity unit                     : (D/A)**2/amu
 output         dipole unit                     : D
 output         efield unit                     : eV/A/e
 output        entropy unit                     : J/mol/K
  
 wavefunctions paging                           : none
 random number generator seed                   : randomised (130356905)
 data distribution                              : optimal for this architecture
 optimization strategy                          : maximize speed(+++)

 *********************** Exchange-Correlation Parameters ***********************
  
 using functional                               : Perdew Burke Ernzerhof
 relativistic treatment                         : Koelling-Harmon
 DFT+D: Semi-empirical dispersion correction    : off

 ************************* Pseudopotential Parameters **************************
  
 pseudopotential representation                 : reciprocal space
 <beta|phi> representation                      : reciprocal space
 spin-orbit coupling                            : off

 **************************** Basis Set Parameters *****************************
  
 plane wave basis set cut-off                   :  1200.0000   eV
 size of standard grid                          :     2.0000
 size of   fine   gmax                          :    35.4943   1/A
 finite basis set correction                    : automatic
 number of sample energies                      :          3
           sample  spacing                      :     5.0000   eV

 **************************** Electronic Parameters ****************************
  
 number of  electrons                           :  16.00    
 net charge of system                           :  0.000    
 treating system as non-spin-polarized
 number of bands                                :          8

 ********************* Electronic Minimization Parameters **********************
  
 Method: Treating system as non-metallic,
         and number of  SD  steps               :          1
         and number of  CG  steps               :          4
  
 total energy / atom convergence tol.           : 0.1000E-10   eV
 eigen-energy convergence tolerance             : 0.2000E-10   eV
 max force / atom convergence tol.              : ignored
 convergence tolerance window                   :          3   cycles
 max. number of SCF cycles                      :        100
 periodic dipole correction                     : NONE

 ************************** Density Mixing Parameters **************************
  
 density-mixing scheme                          : Broyden
 max. length of mixing history                  :         20
 charge density mixing amplitude                : 0.8000    
 cut-off energy for mixing                      :  1200.       eV

 *********************** Population Analysis Parameters ************************
  
 Population analysis with cutoff                :  3.000       A
 Population analysis output                     : summary and pdos components

 ********************** Geometry Optimization Parameters ***********************
  
 optimization method                            : LBFGS
 max. no. of LBFGS updates                      : unbounded
 variable cell method                           : fixed basis quality
 max. number of steps                           :         60
 estimated bulk modulus                         :  500.0       GPa
 estimated <frequency>                          :  1668.       cm-1
 geom line minimiser                            : on
 with line minimiser tolerance                  :     0.4000
 total energy convergence tolerance             : 0.1000E-08   eV/atom
        max ionic |force| tolerance             : 0.1000E-04   eV/A
 max ionic |displacement| tolerance             : 0.1000E-04   A
   max |stress component| tolerance             : 0.1000E-04   GPa
 convergence tolerance window                   :          2   steps
 backup results every                           :      14400   seconds
 write geom trajectory file                     : on

 *******************************************************************************
  

                           -------------------------------
                                      Unit Cell
                           -------------------------------
        Real Lattice(A)                      Reciprocal Lattice(1/A)
     2.9145944     0.0000000     0.0000000        2.155766580  -0.000000000   0.000000000
     0.0000000     1.7195655     0.0000000       -0.000000000   3.653937711   0.000000000
     0.0000000     0.0000000     5.4201665        0.000000000   0.000000000   1.159223675

                       Lattice parameters(A)       Cell Angles
                    a =      2.914594          alpha =   90.000000
                    b =      1.719566          beta  =   90.000000
                    c =      5.420166          gamma =   90.000000

                       Current cell volume =            27.164986       A**3
                                   density =             0.593670   AMU/A**3
                                           =             0.985812     g/cm^3

                           -------------------------------
                                     Cell Contents
                           -------------------------------
                         Total number of ions in cell =   16
                      Total number of species in cell =    1
                        Max number of any one species =   16

            xxxxxxxxxxxxxxxxxxxxxxxxxxxxxxxxxxxxxxxxxxxxxxxxxxxxxxxxxxxx
            x  Element    Atom        Fractional coordinates of atoms  x
            x            Number           u          v          w      x
            x----------------------------------------------------------x
            x  H            1         0.419800   0.338250   0.000000   x 
            x  H            2        -0.419800   0.338250   0.500000   x 
            x  H            3         0.419800  -0.338250   0.500000   x 
            x  H            4        -0.419800  -0.338250   0.000000   x 
            x  H            5         0.338266   0.000000   0.250000   x 
            x  H            6        -0.338266  -0.000000   0.750000   x 
            x  H            7         0.338266   0.000000   0.750000   x 
            x  H            8        -0.338266  -0.000000   0.250000   x 
            x  H            9         0.919800   0.838250   0.500000   x 
            x  H           10        -0.919800   0.838250   0.000000   x 
            x  H           11         0.919800  -0.838250   0.000000   x 
            x  H           12        -0.919800  -0.838250   0.500000   x 
            x  H           13         0.838266   0.500000   0.750000   x 
            x  H           14        -0.838266   0.500000   0.250000   x 
            x  H           15         0.838266   0.500000   0.250000   x 
            x  H           16        -0.838266   0.500000   0.750000   x 
            xxxxxxxxxxxxxxxxxxxxxxxxxxxxxxxxxxxxxxxxxxxxxxxxxxxxxxxxxxxx


                         No user defined ionic velocities

                           -------------------------------
                                   Details of Species
                           -------------------------------

                               Mass of species in AMU
                                    H    1.0079400

                          Electric Quadrupole Moment (Barn)
                                    H    0.0028600 Isotope  2

                          Files used for pseudopotentials:
                                    H 0|0.7|2|6|8|10L(qc=10)

                           -------------------------------
                              k-Points For BZ Sampling
                           -------------------------------
                       MP grid size for SCF calculation is  8  8  8
                            with an offset of   0.000  0.000  0.000
                       Number of kpoints used =            64

                           -------------------------------
                               Symmetry and Constraints
                           -------------------------------

                      Cell is a supercell containing 2 primitive cells
                      Maximum deviation from symmetry = 0.161300E-34     ANG

                      Number of symmetry operations   =          16
                      Number of ionic constraints     =           3
                      Point group of crystal =     8: D2h, mmm, 2/m 2/m 2/m
                      Space group of crystal =    72: Ibam, -I 2 2c

             Set iprint > 1 for details on symmetry rotations/translations

                         Centre of mass is constrained
             Set iprint > 1 for details of linear ionic constraints

                         Number of cell constraints= 3
                         Cell constraints are:  1 2 3 0 0 0

                         External pressure/stress (GPa)
                        200.00000   0.00000   0.00000
                                  200.00000   0.00000
                                            200.00000
  
+---------------- MEMORY AND SCRATCH DISK ESTIMATES PER PROCESS --------------+
|                                                     Memory          Disk    |
| Baseline code, static data and system overhead      479.0 MB         0.0 MB |
| BLAS internal memory storage                          0.0 MB         0.0 MB |
| Model and support data                               33.9 MB         0.0 MB |
| Electronic energy minimisation requirements          11.7 MB         0.0 MB |
| Force calculation requirements                        5.3 MB         0.0 MB |
| Stress calculation requirements                       6.7 MB         0.0 MB |
|                                               ----------------------------- |
| Approx. total storage required per process          524.6 MB         0.0 MB |
|                                                                             |
| Requirements will fluctuate during execution and may exceed these estimates |
+-----------------------------------------------------------------------------+
Calculating finite basis set correction with  3 cut-off energies.
Calculating total energy with cut-off of 1190.000 eV.
------------------------------------------------------------------------ <-- SCF
SCF loop      Energy                           Energy gain       Timer   <-- SCF
                                               per atom          (sec)   <-- SCF
------------------------------------------------------------------------ <-- SCF
Initial   3.67739248E+002                                          3.62  <-- SCF
      1  -1.97601832E+002                    3.53338175E+001       4.02  <-- SCF
      2  -2.32730941E+002                    2.19556932E+000       4.31  <-- SCF
      3  -2.33047956E+002                    1.98134017E-002       4.91  <-- SCF
      4  -2.33044587E+002                   -2.10546914E-004       5.50  <-- SCF
      5  -2.33044789E+002                    1.25886277E-005       6.11  <-- SCF
      6  -2.33044813E+002                    1.53808997E-006       6.70  <-- SCF
      7  -2.33044814E+002                    3.98424487E-008       7.32  <-- SCF
      8  -2.33044814E+002                    2.30621591E-009       7.90  <-- SCF
      9  -2.33044814E+002                    3.71742753E-011       8.40  <-- SCF
     10  -2.33044814E+002                    2.57999440E-012       8.88  <-- SCF
     11  -2.33044814E+002                   -1.20842829E-014       9.36  <-- SCF
------------------------------------------------------------------------ <-- SCF
 
Final energy =  -233.0448138074     eV
(energy not corrected for finite basis set)
 
Calculating total energy with cut-off of 1195.000 eV.
------------------------------------------------------------------------ <-- SCF
SCF loop      Energy                           Energy gain       Timer   <-- SCF
                                               per atom          (sec)   <-- SCF
------------------------------------------------------------------------ <-- SCF
Initial  -2.33044814E+002                                          9.88  <-- SCF
      1  -2.33045967E+002                    7.20919841E-005      10.21  <-- SCF
      2  -2.33045967E+002                    1.46884459E-010      10.80  <-- SCF
      3  -2.33045968E+002                    2.38807061E-008      11.38  <-- SCF
      4  -2.33045968E+002                    9.38812835E-010      11.96  <-- SCF
      5  -2.33045968E+002                    7.53455040E-012      12.45  <-- SCF
      6  -2.33045968E+002                    1.11477510E-012      12.94  <-- SCF
------------------------------------------------------------------------ <-- SCF
 
Final energy =  -233.0459676788     eV
(energy not corrected for finite basis set)
 
Calculating total energy with cut-off of 1200.000 eV.
------------------------------------------------------------------------ <-- SCF
SCF loop      Energy                           Energy gain       Timer   <-- SCF
                                               per atom          (sec)   <-- SCF
------------------------------------------------------------------------ <-- SCF
Initial  -2.33045968E+002                                         13.47  <-- SCF
      1  -2.33047108E+002                    7.12742382E-005      13.79  <-- SCF
      2  -2.33047108E+002                    1.28341127E-010      14.37  <-- SCF
      3  -2.33047108E+002                    2.38324506E-008      14.97  <-- SCF
      4  -2.33047108E+002                    9.84992922E-010      15.56  <-- SCF
      5  -2.33047108E+002                    8.00281636E-012      16.04  <-- SCF
      6  -2.33047108E+002                    6.04214146E-015      16.51  <-- SCF
------------------------------------------------------------------------ <-- SCF
 
Final energy =  -233.0471084659     eV
(energy not corrected for finite basis set)
 
 For future reference: finite basis dEtot/dlog(Ecut) =      -0.272519eV
 Total energy corrected for finite basis set =    -233.047095 eV
 
+---------------- MEMORY AND SCRATCH DISK ESTIMATES PER PROCESS --------------+
|                                                     Memory          Disk    |
| Model and support data                               42.8 MB         0.0 MB |
| Electronic energy minimisation requirements          11.7 MB         0.0 MB |
| Geometry minimisation requirements                   13.2 MB         0.0 MB |
|                                               ----------------------------- |
| Approx. total storage required per process           67.7 MB         0.0 MB |
|                                                                             |
| Requirements will fluctuate during execution and may exceed these estimates |
+-----------------------------------------------------------------------------+
 

 ******************************** Symmetrised Forces ********************************
 *                                                                                  *
 *                           Cartesian components (eV/A)                            *
 * -------------------------------------------------------------------------------- *
 *                         x                    y                    z              *
 *                                                                                  *
 * H               1     -0.00676              0.16339              0.00000         *
 * H               2      0.00676              0.16339              0.00000         *
 * H               3     -0.00676             -0.16339              0.00000         *
 * H               4      0.00676             -0.16339              0.00000         *
 * H               5     -0.01162              0.00000              0.00000         *
 * H               6      0.01162              0.00000              0.00000         *
 * H               7     -0.01162              0.00000             -0.00000         *
 * H               8      0.01162              0.00000             -0.00000         *
 * H               9     -0.00676              0.16339              0.00000         *
 * H              10      0.00676              0.16339              0.00000         *
 * H              11     -0.00676             -0.16339              0.00000         *
 * H              12      0.00676             -0.16339              0.00000         *
 * H              13     -0.01162              0.00000             -0.00000         *
 * H              14      0.01162             -0.00000              0.00000         *
 * H              15     -0.01162              0.00000              0.00000         *
 * H              16      0.01162              0.00000              0.00000         *
 *                                                                                  *
 ************************************************************************************

 *********** Symmetrised Stress Tensor ***********
 *                                               *
 *          Cartesian components (GPa)           *
 * --------------------------------------------- *
 *             x             y             z     *
 *                                               *
 *  x   -197.772511      0.000000      0.000000  *
 *  y      0.000000   -203.848653      0.000000  *
 *  z      0.000000      0.000000   -202.382927  *
 *                                               *
 *  Pressure:  201.3347                          *
 *                                               *
 *************************************************
 LBFGS: finished iteration     0 with enthalpy= -1.99136993E+002 eV
  
 +-----------+-----------------+-----------------+------------+-----+ <-- LBFGS
 | Parameter |      value      |    tolerance    |    units   | OK? | <-- LBFGS
 +-----------+-----------------+-----------------+------------+-----+ <-- LBFGS
 |  dE/ion   |   0.000000E+000 |   1.000000E-009 |         eV | No  | <-- LBFGS
 |  |F|max   |   1.635267E-001 |   1.000000E-005 |       eV/A | No  | <-- LBFGS
 |  |dR|max  |   0.000000E+000 |   1.000000E-005 |          A | No  | <-- LBFGS
 |   Smax    |   3.848653E+000 |   1.000000E-005 |        GPa | No  | <-- LBFGS
 +-----------+-----------------+-----------------+------------+-----+ <-- LBFGS
  

================================================================================
 Starting LBFGS iteration          1 ...
================================================================================
  
 +------------+-------------+-------------+-----------------+ <-- min LBFGS
 |    Step    |   lambda    |   F.delta'  |    enthalpy     | <-- min LBFGS
 +------------+-------------+-------------+-----------------+ <-- min LBFGS
 |  previous  |    0.000000 |    0.033144 |     -199.136993 | <-- min LBFGS
 +------------+-------------+-------------+-----------------+ <-- min LBFGS
  

--------------------------------------------------------------------------------
 LBFGS: starting iteration         1 with trial guess (lambda=  1.000000)
--------------------------------------------------------------------------------
 
+---------------- MEMORY AND SCRATCH DISK ESTIMATES PER PROCESS --------------+
|                                                     Memory          Disk    |
| Model and support data                               42.8 MB         0.0 MB |
| Electronic energy minimisation requirements          11.7 MB         0.0 MB |
| Geometry minimisation requirements                   13.2 MB         0.0 MB |
|                                               ----------------------------- |
| Approx. total storage required per process           67.7 MB         0.0 MB |
|                                                                             |
| Requirements will fluctuate during execution and may exceed these estimates |
+-----------------------------------------------------------------------------+
 

                           -------------------------------
                                      Unit Cell
                           -------------------------------
        Real Lattice(A)              Reciprocal Lattice(1/A)
     2.9102663     0.0000000     0.0000000        2.158972639  -0.000000000   0.000000000
     0.0000000     1.7239775     0.0000000       -0.000000000   3.644586545   0.000000000
     0.0000000     0.0000000     5.4287771        0.000000000   0.000000000   1.157385032

                       Lattice parameters(A)       Cell Angles
                    a =      2.910266          alpha =   90.000000
                    b =      1.723978          beta  =   90.000000
                    c =      5.428777          gamma =   90.000000

                Current cell volume =            27.237443 A**3

                           -------------------------------
                                     Cell Contents
                           -------------------------------

            xxxxxxxxxxxxxxxxxxxxxxxxxxxxxxxxxxxxxxxxxxxxxxxxxxxxxxxxxxxxxxxxx
            x  Element         Atom        Fractional coordinates of atoms  x
            x                 Number           u          v          w      x
            x---------------------------------------------------------------x
            x  H                 1         0.419575   0.347465   0.000000   x
            x  H                 2        -0.419575   0.347465   0.500000   x
            x  H                 3         0.419575  -0.347465   0.500000   x
            x  H                 4        -0.419575  -0.347465   0.000000   x
            x  H                 5         0.337879  -0.000000   0.250000   x
            x  H                 6        -0.337879   0.000000   0.750000   x
            x  H                 7         0.337879  -0.000000   0.750000   x
            x  H                 8        -0.337879   0.000000   0.250000   x
            x  H                 9         0.919575   0.847465   0.500000   x
            x  H                10        -0.919575   0.847465   0.000000   x
            x  H                11         0.919575  -0.847465   0.000000   x
            x  H                12        -0.919575  -0.847465   0.500000   x
            x  H                13         0.837879   0.500000   0.750000   x
            x  H                14        -0.837879   0.500000   0.250000   x
            x  H                15         0.837879   0.500000   0.250000   x
            x  H                16        -0.837879   0.500000   0.750000   x
            xxxxxxxxxxxxxxxxxxxxxxxxxxxxxxxxxxxxxxxxxxxxxxxxxxxxxxxxxxxxxxxxx


------------------------------------------------------------------------ <-- SCF
SCF loop      Energy                           Energy gain       Timer   <-- SCF
                                               per atom          (sec)   <-- SCF
------------------------------------------------------------------------ <-- SCF
Initial  -2.32972406E+002                                         18.64  <-- SCF
      1  -2.33128391E+002                    9.74904209E-003      18.96  <-- SCF
      2  -2.33129006E+002                    3.84234066E-005      19.56  <-- SCF
      3  -2.33123188E+002                   -3.63586968E-004      20.16  <-- SCF
      4  -2.33123063E+002                   -7.86390856E-006      20.77  <-- SCF
      5  -2.33123061E+002                   -7.67094087E-008      21.35  <-- SCF
      6  -2.33123061E+002                    2.09181052E-009      21.96  <-- SCF
      7  -2.33123061E+002                    1.50639650E-010      22.48  <-- SCF
      8  -2.33123061E+002                    7.73998321E-012      22.96  <-- SCF
      9  -2.33123061E+002                    3.98781336E-013      23.44  <-- SCF
------------------------------------------------------------------------ <-- SCF
 
Final energy =  -233.1230613098     eV
(energy not corrected for finite basis set)
 

 ******************************** Symmetrised Forces ********************************
 *                                                                                  *
 *                           Cartesian components (eV/A)                            *
 * -------------------------------------------------------------------------------- *
 *                         x                    y                    z              *
 *                                                                                  *
 * H               1     -0.50922             -0.46321             -0.00000         *
 * H               2      0.50922             -0.46321             -0.00000         *
 * H               3     -0.50922              0.46321             -0.00000         *
 * H               4      0.50922              0.46321             -0.00000         *
 * H               5      0.01452              0.00000             -0.00000         *
 * H               6     -0.01452              0.00000              0.00000         *
 * H               7      0.01452              0.00000              0.00000         *
 * H               8     -0.01452              0.00000             -0.00000         *
 * H               9     -0.50922             -0.46321             -0.00000         *
 * H              10      0.50922             -0.46321             -0.00000         *
 * H              11     -0.50922              0.46321             -0.00000         *
 * H              12      0.50922              0.46321             -0.00000         *
 * H              13      0.01452              0.00000             -0.00000         *
 * H              14     -0.01452              0.00000             -0.00000         *
 * H              15      0.01452             -0.00000              0.00000         *
 * H              16     -0.01452              0.00000              0.00000         *
 *                                                                                  *
 ************************************************************************************

 *********** Symmetrised Stress Tensor ***********
 *                                               *
 *          Cartesian components (GPa)           *
 * --------------------------------------------- *
 *             x             y             z     *
 *                                               *
 *  x   -203.650734      0.000000      0.000000  *
 *  y      0.000000   -206.964988      0.000000  *
 *  z      0.000000      0.000000   -199.876856  *
 *                                               *
 *  Pressure:  203.4975                          *
 *                                               *
 *************************************************
  
 +------------+-------------+-------------+-----------------+ <-- min LBFGS
 |    Step    |   lambda    |   F.delta'  |    enthalpy     | <-- min LBFGS
 +------------+-------------+-------------+-----------------+ <-- min LBFGS
 |  previous  |    0.000000 |    0.033144 |     -199.136993 | <-- min LBFGS
 | trial step |    1.000000 |   -0.075787 |     -199.122484 | <-- min LBFGS
 +------------+-------------+-------------+-----------------+ <-- min LBFGS
  

--------------------------------------------------------------------------------
 LBFGS: improving iteration         1 with line minimization (lambda=  0.304263)
--------------------------------------------------------------------------------

                           -------------------------------
                                      Unit Cell
                           -------------------------------
        Real Lattice(A)              Reciprocal Lattice(1/A)
     2.9132776     0.0000000     0.0000000        2.156741057  -0.000000000   0.000000000
     0.0000000     1.7209079     0.0000000       -0.000000000   3.651087420   0.000000000
     0.0000000     0.0000000     5.4227864        0.000000000   0.000000000   1.158663625

                       Lattice parameters(A)       Cell Angles
                    a =      2.913278          alpha =   90.000000
                    b =      1.720908          beta  =   90.000000
                    c =      5.422786          gamma =   90.000000

                Current cell volume =            27.187044 A**3

                           -------------------------------
                                     Cell Contents
                           -------------------------------

            xxxxxxxxxxxxxxxxxxxxxxxxxxxxxxxxxxxxxxxxxxxxxxxxxxxxxxxxxxxxxxxxx
            x  Element         Atom        Fractional coordinates of atoms  x
            x                 Number           u          v          w      x
            x---------------------------------------------------------------x
            x  H                 1         0.419732   0.341054   0.000000   x
            x  H                 2        -0.419732   0.341054   0.500000   x
            x  H                 3         0.419732  -0.341054   0.500000   x
            x  H                 4        -0.419732  -0.341054   0.000000   x
            x  H                 5         0.338148  -0.000000   0.250000   x
            x  H                 6        -0.338148   0.000000   0.750000   x
            x  H                 7         0.338148  -0.000000   0.750000   x
            x  H                 8        -0.338148   0.000000   0.250000   x
            x  H                 9         0.919732   0.841054   0.500000   x
            x  H                10        -0.919732   0.841054   0.000000   x
            x  H                11         0.919732  -0.841054   0.000000   x
            x  H                12        -0.919732  -0.841054   0.500000   x
            x  H                13         0.838148   0.500000   0.750000   x
            x  H                14        -0.838148   0.500000   0.250000   x
            x  H                15         0.838148   0.500000   0.250000   x
            x  H                16        -0.838148   0.500000   0.750000   x
            xxxxxxxxxxxxxxxxxxxxxxxxxxxxxxxxxxxxxxxxxxxxxxxxxxxxxxxxxxxxxxxxx


------------------------------------------------------------------------ <-- SCF
SCF loop      Energy                           Energy gain       Timer   <-- SCF
                                               per atom          (sec)   <-- SCF
------------------------------------------------------------------------ <-- SCF
Initial  -2.33005229E+002                                         25.56  <-- SCF
      1  -2.33080988E+002                    4.73498024E-003      25.88  <-- SCF
      2  -2.33081292E+002                    1.89582164E-005      26.50  <-- SCF
      3  -2.33078484E+002                   -1.75471416E-004      27.10  <-- SCF
      4  -2.33078423E+002                   -3.82280292E-006      27.71  <-- SCF
      5  -2.33078422E+002                   -3.02265166E-008      28.31  <-- SCF
      6  -2.33078422E+002                    9.00221677E-010      28.92  <-- SCF
      7  -2.33078422E+002                    9.32272216E-011      29.40  <-- SCF
      8  -2.33078422E+002                    3.40474671E-012      29.88  <-- SCF
      9  -2.33078422E+002                   -1.78243173E-013      30.38  <-- SCF
------------------------------------------------------------------------ <-- SCF
 
Final energy =  -233.0784223551     eV
(energy not corrected for finite basis set)
 

 ******************************** Symmetrised Forces ********************************
 *                                                                                  *
 *                           Cartesian components (eV/A)                            *
 * -------------------------------------------------------------------------------- *
 *                         x                    y                    z              *
 *                                                                                  *
 * H               1     -0.14676             -0.01973             -0.00000         *
 * H               2      0.14676             -0.01973             -0.00000         *
 * H               3     -0.14676              0.01973             -0.00000         *
 * H               4      0.14676              0.01973             -0.00000         *
 * H               5     -0.00343              0.00000              0.00000         *
 * H               6      0.00343              0.00000              0.00000         *
 * H               7     -0.00343              0.00000             -0.00000         *
 * H               8      0.00343              0.00000              0.00000         *
 * H               9     -0.14676             -0.01973             -0.00000         *
 * H              10      0.14676             -0.01973             -0.00000         *
 * H              11     -0.14676              0.01973             -0.00000         *
 * H              12      0.14676              0.01973             -0.00000         *
 * H              13     -0.00343              0.00000              0.00000         *
 * H              14      0.00343              0.00000             -0.00000         *
 * H              15     -0.00343              0.00000              0.00000         *
 * H              16      0.00343              0.00000              0.00000         *
 *                                                                                  *
 ************************************************************************************

 *********** Symmetrised Stress Tensor ***********
 *                                               *
 *          Cartesian components (GPa)           *
 * --------------------------------------------- *
 *             x             y             z     *
 *                                               *
 *  x   -199.438522      0.000000      0.000000  *
 *  y      0.000000   -204.795920      0.000000  *
 *  z      0.000000      0.000000   -201.618571  *
 *                                               *
 *  Pressure:  201.9510                          *
 *                                               *
 *************************************************
  
 +------------+-------------+-------------+-----------------+ <-- min LBFGS
 |    Step    |   lambda    |   F.delta'  |    enthalpy     | <-- min LBFGS
 +------------+-------------+-------------+-----------------+ <-- min LBFGS
 |  previous  |    0.000000 |    0.033144 |     -199.136993 | <-- min LBFGS
 | trial step |    1.000000 |   -0.075787 |     -199.122484 | <-- min LBFGS
 |  line step |    0.304263 |    0.001342 |     -199.140772 | <-- min LBFGS
 +------------+-------------+-------------+-----------------+ <-- min LBFGS
  
 LBFGS: finished iteration     1 with enthalpy= -1.99140772E+002 eV
  
 +-----------+-----------------+-----------------+------------+-----+ <-- LBFGS
 | Parameter |      value      |    tolerance    |    units   | OK? | <-- LBFGS
 +-----------+-----------------+-----------------+------------+-----+ <-- LBFGS
 |  dE/ion   |   2.361882E-004 |   1.000000E-009 |         eV | No  | <-- LBFGS
 |  |F|max   |   1.480813E-001 |   1.000000E-005 |       eV/A | No  | <-- LBFGS
 |  |dR|max  |   4.829510E-003 |   1.000000E-005 |          A | No  | <-- LBFGS
 |   Smax    |   4.795920E+000 |   1.000000E-005 |        GPa | No  | <-- LBFGS
 +-----------+-----------------+-----------------+------------+-----+ <-- LBFGS
  

================================================================================
 Starting LBFGS iteration          2 ...
================================================================================
  
 +------------+-------------+-------------+-----------------+ <-- min LBFGS
 |    Step    |   lambda    |   F.delta'  |    enthalpy     | <-- min LBFGS
 +------------+-------------+-------------+-----------------+ <-- min LBFGS
 |  previous  |    0.000000 |    0.031089 |     -199.140772 | <-- min LBFGS
 +------------+-------------+-------------+-----------------+ <-- min LBFGS
  

--------------------------------------------------------------------------------
 LBFGS: starting iteration         2 with trial guess (lambda=  1.000000)
--------------------------------------------------------------------------------
 
+---------------- MEMORY AND SCRATCH DISK ESTIMATES PER PROCESS --------------+
|                                                     Memory          Disk    |
| Model and support data                               42.8 MB         0.0 MB |
| Electronic energy minimisation requirements          11.8 MB         0.0 MB |
| Geometry minimisation requirements                   13.3 MB         0.0 MB |
|                                               ----------------------------- |
| Approx. total storage required per process           67.8 MB         0.0 MB |
|                                                                             |
| Requirements will fluctuate during execution and may exceed these estimates |
+-----------------------------------------------------------------------------+
 

                           -------------------------------
                                      Unit Cell
                           -------------------------------
        Real Lattice(A)              Reciprocal Lattice(1/A)
     2.9083235     0.0000000     0.0000000        2.160414883  -0.000000000   0.000000000
     0.0000000     1.7305276     0.0000000       -0.000000000   3.630791744   0.000000000
     0.0000000     0.0000000     5.4364747        0.000000000   0.000000000   1.155746258

                       Lattice parameters(A)       Cell Angles
                    a =      2.908323          alpha =   90.000000
                    b =      1.730528          beta  =   90.000000
                    c =      5.436475          gamma =   90.000000

                Current cell volume =            27.361419 A**3

                           -------------------------------
                                     Cell Contents
                           -------------------------------

            xxxxxxxxxxxxxxxxxxxxxxxxxxxxxxxxxxxxxxxxxxxxxxxxxxxxxxxxxxxxxxxxx
            x  Element         Atom        Fractional coordinates of atoms  x
            x                 Number           u          v          w      x
            x---------------------------------------------------------------x
            x  H                 1         0.414446   0.348017   0.000000   x
            x  H                 2        -0.414446   0.348017   0.500000   x
            x  H                 3         0.414446  -0.348017   0.500000   x
            x  H                 4        -0.414446  -0.348017   0.000000   x
            x  H                 5         0.337688  -0.000000   0.250000   x
            x  H                 6        -0.337688   0.000000   0.750000   x
            x  H                 7         0.337688  -0.000000   0.750000   x
            x  H                 8        -0.337688   0.000000   0.250000   x
            x  H                 9         0.914446   0.848017   0.500000   x
            x  H                10        -0.914446   0.848017   0.000000   x
            x  H                11         0.914446  -0.848017   0.000000   x
            x  H                12        -0.914446  -0.848017   0.500000   x
            x  H                13         0.837688   0.500000   0.750000   x
            x  H                14        -0.837688   0.500000   0.250000   x
            x  H                15         0.837688   0.500000   0.250000   x
            x  H                16        -0.837688   0.500000   0.750000   x
            xxxxxxxxxxxxxxxxxxxxxxxxxxxxxxxxxxxxxxxxxxxxxxxxxxxxxxxxxxxxxxxxx


------------------------------------------------------------------------ <-- SCF
SCF loop      Energy                           Energy gain       Timer   <-- SCF
                                               per atom          (sec)   <-- SCF
------------------------------------------------------------------------ <-- SCF
Initial  -2.33141722E+002                                         32.51  <-- SCF
      1  -2.33307216E+002                    1.03433724E-002      32.84  <-- SCF
      2  -2.33307868E+002                    4.07333091E-005      33.44  <-- SCF
      3  -2.33309670E+002                    1.12615627E-004      34.05  <-- SCF
      4  -2.33309795E+002                    7.84187436E-006      34.66  <-- SCF
      5  -2.33309796E+002                    6.26159959E-008      35.26  <-- SCF
      6  -2.33309796E+002                    5.33198743E-009      35.87  <-- SCF
      7  -2.33309796E+002                   -9.39552997E-013      36.34  <-- SCF
      8  -2.33309796E+002                    6.31403782E-013      36.82  <-- SCF
------------------------------------------------------------------------ <-- SCF
 
Final energy =  -233.3097962232     eV
(energy not corrected for finite basis set)
 

 ******************************** Symmetrised Forces ********************************
 *                                                                                  *
 *                           Cartesian components (eV/A)                            *
 * -------------------------------------------------------------------------------- *
 *                         x                    y                    z              *
 *                                                                                  *
 * H               1     -0.03941              0.02932             -0.00000         *
 * H               2      0.03941              0.02932             -0.00000         *
 * H               3     -0.03941             -0.02932             -0.00000         *
 * H               4      0.03941             -0.02932             -0.00000         *
 * H               5      0.05166              0.00000             -0.00000         *
 * H               6     -0.05166              0.00000             -0.00000         *
 * H               7      0.05166              0.00000             -0.00000         *
 * H               8     -0.05166              0.00000              0.00000         *
 * H               9     -0.03941              0.02932             -0.00000         *
 * H              10      0.03941              0.02932             -0.00000         *
 * H              11     -0.03941             -0.02932             -0.00000         *
 * H              12      0.03941             -0.02932             -0.00000         *
 * H              13      0.05166              0.00000              0.00000         *
 * H              14     -0.05166              0.00000              0.00000         *
 * H              15      0.05166              0.00000             -0.00000         *
 * H              16     -0.05166              0.00000              0.00000         *
 *                                                                                  *
 ************************************************************************************

 *********** Symmetrised Stress Tensor ***********
 *                                               *
 *          Cartesian components (GPa)           *
 * --------------------------------------------- *
 *             x             y             z     *
 *                                               *
 *  x   -197.084171     -0.000000      0.000000  *
 *  y     -0.000000   -198.442399      0.000000  *
 *  z      0.000000      0.000000   -197.918699  *
 *                                               *
 *  Pressure:  197.8151                          *
 *                                               *
 *************************************************
  
 +------------+-------------+-------------+-----------------+ <-- min LBFGS
 |    Step    |   lambda    |   F.delta'  |    enthalpy     | <-- min LBFGS
 +------------+-------------+-------------+-----------------+ <-- min LBFGS
 |  previous  |    0.000000 |    0.031089 |     -199.140772 | <-- min LBFGS
 | trial step |    1.000000 |    0.008042 |     -199.154460 | <-- min LBFGS
 +------------+-------------+-------------+-----------------+ <-- min LBFGS
  
 LBFGS: finished iteration     2 with enthalpy= -1.99154460E+002 eV
  
 +-----------+-----------------+-----------------+------------+-----+ <-- LBFGS
 | Parameter |      value      |    tolerance    |    units   | OK? | <-- LBFGS
 +-----------+-----------------+-----------------+------------+-----+ <-- LBFGS
 |  dE/ion   |   8.554723E-004 |   1.000000E-009 |         eV | No  | <-- LBFGS
 |  |F|max   |   5.166460E-002 |   1.000000E-005 |       eV/A | No  | <-- LBFGS
 |  |dR|max  |   1.953324E-002 |   1.000000E-005 |          A | No  | <-- LBFGS
 |   Smax    |   2.915829E+000 |   1.000000E-005 |        GPa | No  | <-- LBFGS
 +-----------+-----------------+-----------------+------------+-----+ <-- LBFGS
  

================================================================================
 Starting LBFGS iteration          3 ...
================================================================================
  
 +------------+-------------+-------------+-----------------+ <-- min LBFGS
 |    Step    |   lambda    |   F.delta'  |    enthalpy     | <-- min LBFGS
 +------------+-------------+-------------+-----------------+ <-- min LBFGS
 |  previous  |    0.000000 |    0.016526 |     -199.154460 | <-- min LBFGS
 +------------+-------------+-------------+-----------------+ <-- min LBFGS
  

--------------------------------------------------------------------------------
 LBFGS: starting iteration         3 with trial guess (lambda=  1.000000)
--------------------------------------------------------------------------------

                           -------------------------------
                                      Unit Cell
                           -------------------------------
        Real Lattice(A)              Reciprocal Lattice(1/A)
     2.8974813     0.0000000     0.0000000        2.168499023  -0.000000000   0.000000000
     0.0000000     1.7340162     0.0000000       -0.000000000   3.623487001   0.000000000
     0.0000000     0.0000000     5.4347830        0.000000000   0.000000000   1.156106014

                       Lattice parameters(A)       Cell Angles
                    a =      2.897481          alpha =   90.000000
                    b =      1.734016          beta  =   90.000000
                    c =      5.434783          gamma =   90.000000

                Current cell volume =            27.305869 A**3

                           -------------------------------
                                     Cell Contents
                           -------------------------------

            xxxxxxxxxxxxxxxxxxxxxxxxxxxxxxxxxxxxxxxxxxxxxxxxxxxxxxxxxxxxxxxxx
            x  Element         Atom        Fractional coordinates of atoms  x
            x                 Number           u          v          w      x
            x---------------------------------------------------------------x
            x  H                 1         0.409535   0.354795   0.000000   x
            x  H                 2        -0.409535   0.354795   0.500000   x
            x  H                 3         0.409535  -0.354795   0.500000   x
            x  H                 4        -0.409535  -0.354795   0.000000   x
            x  H                 5         0.339713  -0.000000   0.250000   x
            x  H                 6        -0.339713   0.000000   0.750000   x
            x  H                 7         0.339713   0.000000   0.750000   x
            x  H                 8        -0.339713  -0.000000   0.250000   x
            x  H                 9         0.909535   0.854795   0.500000   x
            x  H                10        -0.909535   0.854795   0.000000   x
            x  H                11         0.909535  -0.854795   0.000000   x
            x  H                12        -0.909535  -0.854795   0.500000   x
            x  H                13         0.839713   0.500000   0.750000   x
            x  H                14        -0.839713   0.500000   0.250000   x
            x  H                15         0.839713   0.500000   0.250000   x
            x  H                16        -0.839713   0.500000   0.750000   x
            xxxxxxxxxxxxxxxxxxxxxxxxxxxxxxxxxxxxxxxxxxxxxxxxxxxxxxxxxxxxxxxxx


------------------------------------------------------------------------ <-- SCF
SCF loop      Energy                           Energy gain       Timer   <-- SCF
                                               per atom          (sec)   <-- SCF
------------------------------------------------------------------------ <-- SCF
Initial  -2.33076364E+002                                         38.94  <-- SCF
      1  -2.33246466E+002                    1.06314058E-002      39.27  <-- SCF
      2  -2.33247010E+002                    3.39853180E-005      39.88  <-- SCF
      3  -2.33248575E+002                    9.78053136E-005      40.47  <-- SCF
      4  -2.33248706E+002                    8.19399627E-006      41.08  <-- SCF
      5  -2.33248707E+002                    4.49580882E-008      41.69  <-- SCF
      6  -2.33248707E+002                    4.81278017E-009      42.29  <-- SCF
      7  -2.33248707E+002                    9.40459318E-012      42.78  <-- SCF
      8  -2.33248707E+002                    2.33830874E-012      43.26  <-- SCF
      9  -2.33248707E+002                   -5.46813802E-013      43.74  <-- SCF
------------------------------------------------------------------------ <-- SCF
 
Final energy =  -233.2487067994     eV
(energy not corrected for finite basis set)
 

 ******************************** Symmetrised Forces ********************************
 *                                                                                  *
 *                           Cartesian components (eV/A)                            *
 * -------------------------------------------------------------------------------- *
 *                         x                    y                    z              *
 *                                                                                  *
 * H               1      0.03246              0.04568              0.00000         *
 * H               2     -0.03246              0.04568              0.00000         *
 * H               3      0.03246             -0.04568              0.00000         *
 * H               4     -0.03246             -0.04568              0.00000         *
 * H               5      0.07605             -0.00000              0.00000         *
 * H               6     -0.07605              0.00000             -0.00000         *
 * H               7      0.07605              0.00000             -0.00000         *
 * H               8     -0.07605             -0.00000              0.00000         *
 * H               9      0.03246              0.04568              0.00000         *
 * H              10     -0.03246              0.04568              0.00000         *
 * H              11      0.03246             -0.04568              0.00000         *
 * H              12     -0.03246             -0.04568              0.00000         *
 * H              13      0.07605              0.00000             -0.00000         *
 * H              14     -0.07605             -0.00000             -0.00000         *
 * H              15      0.07605              0.00000              0.00000         *
 * H              16     -0.07605              0.00000              0.00000         *
 *                                                                                  *
 ************************************************************************************

 *********** Symmetrised Stress Tensor ***********
 *                                               *
 *          Cartesian components (GPa)           *
 * --------------------------------------------- *
 *             x             y             z     *
 *                                               *
 *  x   -198.428812      0.000000      0.000000  *
 *  y      0.000000   -199.571703      0.000000  *
 *  z      0.000000      0.000000   -198.345694  *
 *                                               *
 *  Pressure:  198.7821                          *
 *                                               *
 *************************************************
  
 +------------+-------------+-------------+-----------------+ <-- min LBFGS
 |    Step    |   lambda    |   F.delta'  |    enthalpy     | <-- min LBFGS
 +------------+-------------+-------------+-----------------+ <-- min LBFGS
 |  previous  |    0.000000 |    0.016526 |     -199.154460 | <-- min LBFGS
 | trial step |    1.000000 |    0.007597 |     -199.162717 | <-- min LBFGS
 +------------+-------------+-------------+-----------------+ <-- min LBFGS
  

--------------------------------------------------------------------------------
 LBFGS: improving iteration         3 with line minimization (lambda=  1.850702)
--------------------------------------------------------------------------------

                           -------------------------------
                                      Unit Cell
                           -------------------------------
        Real Lattice(A)              Reciprocal Lattice(1/A)
     2.8882578     0.0000000     0.0000000        2.175423993   0.000000000   0.000000000
    -0.0000000     1.7369840     0.0000000       -0.000000000   3.617295942   0.000000000
     0.0000000     0.0000000     5.4333439        0.000000000   0.000000000   1.156412235

                       Lattice parameters(A)       Cell Angles
                    a =      2.888258          alpha =   90.000000
                    b =      1.736984          beta  =   90.000000
                    c =      5.433344          gamma =   90.000000

                Current cell volume =            27.258313 A**3

                           -------------------------------
                                     Cell Contents
                           -------------------------------

            xxxxxxxxxxxxxxxxxxxxxxxxxxxxxxxxxxxxxxxxxxxxxxxxxxxxxxxxxxxxxxxxx
            x  Element         Atom        Fractional coordinates of atoms  x
            x                 Number           u          v          w      x
            x---------------------------------------------------------------x
            x  H                 1         0.405357   0.360561   0.000000   x
            x  H                 2        -0.405357   0.360561   0.500000   x
            x  H                 3         0.405357  -0.360561   0.500000   x
            x  H                 4        -0.405357  -0.360561   0.000000   x
            x  H                 5         0.341435  -0.000000   0.250000   x
            x  H                 6        -0.341435   0.000000   0.750000   x
            x  H                 7         0.341435   0.000000   0.750000   x
            x  H                 8        -0.341435  -0.000000   0.250000   x
            x  H                 9         0.905357   0.860561   0.500000   x
            x  H                10        -0.905357   0.860561   0.000000   x
            x  H                11         0.905357  -0.860561   0.000000   x
            x  H                12        -0.905357  -0.860561   0.500000   x
            x  H                13         0.841435   0.500000   0.750000   x
            x  H                14        -0.841435   0.500000   0.250000   x
            x  H                15         0.841435   0.500000   0.250000   x
            x  H                16        -0.841435   0.500000   0.750000   x
            xxxxxxxxxxxxxxxxxxxxxxxxxxxxxxxxxxxxxxxxxxxxxxxxxxxxxxxxxxxxxxxxx


------------------------------------------------------------------------ <-- SCF
SCF loop      Energy                           Energy gain       Timer   <-- SCF
                                               per atom          (sec)   <-- SCF
------------------------------------------------------------------------ <-- SCF
Initial  -2.33066629E+002                                         45.84  <-- SCF
      1  -2.33189530E+002                    7.68131954E-003      46.17  <-- SCF
      2  -2.33189922E+002                    2.44763299E-005      46.77  <-- SCF
      3  -2.33190915E+002                    6.20952412E-005      47.38  <-- SCF
      4  -2.33191009E+002                    5.87392827E-006      47.99  <-- SCF
      5  -2.33191009E+002                    2.60089659E-008      48.60  <-- SCF
      6  -2.33191010E+002                    3.41734760E-009      49.20  <-- SCF
      7  -2.33191010E+002                    1.60237591E-011      49.69  <-- SCF
      8  -2.33191010E+002                    2.08151773E-012      50.17  <-- SCF
      9  -2.33191010E+002                    7.46204470E-013      50.66  <-- SCF
------------------------------------------------------------------------ <-- SCF
 
Final energy =  -233.1910095393     eV
(energy not corrected for finite basis set)
 

 ******************************** Symmetrised Forces ********************************
 *                                                                                  *
 *                           Cartesian components (eV/A)                            *
 * -------------------------------------------------------------------------------- *
 *                         x                    y                    z              *
 *                                                                                  *
 * H               1      0.11427              0.07856              0.00000         *
 * H               2     -0.11427              0.07856              0.00000         *
 * H               3      0.11427             -0.07856              0.00000         *
 * H               4     -0.11427             -0.07856              0.00000         *
 * H               5      0.08696              0.00000             -0.00000         *
 * H               6     -0.08696              0.00000             -0.00000         *
 * H               7      0.08696             -0.00000              0.00000         *
 * H               8     -0.08696             -0.00000              0.00000         *
 * H               9      0.11427              0.07856              0.00000         *
 * H              10     -0.11427              0.07856              0.00000         *
 * H              11      0.11427             -0.07856              0.00000         *
 * H              12     -0.11427             -0.07856              0.00000         *
 * H              13      0.08696              0.00000             -0.00000         *
 * H              14     -0.08696              0.00000             -0.00000         *
 * H              15      0.08696              0.00000              0.00000         *
 * H              16     -0.08696             -0.00000              0.00000         *
 *                                                                                  *
 ************************************************************************************

 *********** Symmetrised Stress Tensor ***********
 *                                               *
 *          Cartesian components (GPa)           *
 * --------------------------------------------- *
 *             x             y             z     *
 *                                               *
 *  x   -199.779298     -0.000000      0.000000  *
 *  y     -0.000000   -200.154946      0.000000  *
 *  z      0.000000      0.000000   -198.783770  *
 *                                               *
 *  Pressure:  199.5727                          *
 *                                               *
 *************************************************
  
 +------------+-------------+-------------+-----------------+ <-- min LBFGS
 |    Step    |   lambda    |   F.delta'  |    enthalpy     | <-- min LBFGS
 +------------+-------------+-------------+-----------------+ <-- min LBFGS
 |  previous  |    0.000000 |    0.016526 |     -199.154460 | <-- min LBFGS
 | trial step |    1.000000 |    0.007597 |     -199.162717 | <-- min LBFGS
 |  line step |    1.850702 |   -0.001846 |     -199.164420 | <-- min LBFGS
 +------------+-------------+-------------+-----------------+ <-- min LBFGS
  
 LBFGS: finished iteration     3 with enthalpy= -1.99164420E+002 eV
  
 +-----------+-----------------+-----------------+------------+-----+ <-- LBFGS
 | Parameter |      value      |    tolerance    |    units   | OK? | <-- LBFGS
 +-----------+-----------------+-----------------+------------+-----+ <-- LBFGS
 |  dE/ion   |   6.225238E-004 |   1.000000E-009 |         eV | No  | <-- LBFGS
 |  |F|max   |   1.386660E-001 |   1.000000E-005 |       eV/A | No  | <-- LBFGS
 |  |dR|max  |   3.411530E-002 |   1.000000E-005 |          A | No  | <-- LBFGS
 |   Smax    |   1.216230E+000 |   1.000000E-005 |        GPa | No  | <-- LBFGS
 +-----------+-----------------+-----------------+------------+-----+ <-- LBFGS
  

================================================================================
 Starting LBFGS iteration          4 ...
================================================================================
  
 +------------+-------------+-------------+-----------------+ <-- min LBFGS
 |    Step    |   lambda    |   F.delta'  |    enthalpy     | <-- min LBFGS
 +------------+-------------+-------------+-----------------+ <-- min LBFGS
 |  previous  |    0.000000 |    0.025971 |     -199.164420 | <-- min LBFGS
 +------------+-------------+-------------+-----------------+ <-- min LBFGS
  

--------------------------------------------------------------------------------
 LBFGS: starting iteration         4 with trial guess (lambda=  1.000000)
--------------------------------------------------------------------------------

                           -------------------------------
                                      Unit Cell
                           -------------------------------
        Real Lattice(A)              Reciprocal Lattice(1/A)
     2.8859827     0.0000000     0.0000000        2.177138941  -0.000000000   0.000000000
     0.0000000     1.7394320     0.0000000       -0.000000000   3.612205216   0.000000000
     0.0000000     0.0000000     5.4290158        0.000000000   0.000000000   1.157334130

                       Lattice parameters(A)       Cell Angles
                    a =      2.885983          alpha =   90.000000
                    b =      1.739432          beta  =   90.000000
                    c =      5.429016          gamma =   90.000000

                Current cell volume =            27.253500 A**3

                           -------------------------------
                                     Cell Contents
                           -------------------------------

            xxxxxxxxxxxxxxxxxxxxxxxxxxxxxxxxxxxxxxxxxxxxxxxxxxxxxxxxxxxxxxxxx
            x  Element         Atom        Fractional coordinates of atoms  x
            x                 Number           u          v          w      x
            x---------------------------------------------------------------x
            x  H                 1         0.404926   0.362488   0.000000   x
            x  H                 2        -0.404926   0.362488   0.500000   x
            x  H                 3         0.404926  -0.362488   0.500000   x
            x  H                 4        -0.404926  -0.362488   0.000000   x
            x  H                 5         0.344621  -0.000000   0.250000   x
            x  H                 6        -0.344621   0.000000   0.750000   x
            x  H                 7         0.344621   0.000000   0.750000   x
            x  H                 8        -0.344621  -0.000000   0.250000   x
            x  H                 9         0.904926   0.862488   0.500000   x
            x  H                10        -0.904926   0.862488   0.000000   x
            x  H                11         0.904926  -0.862488   0.000000   x
            x  H                12        -0.904926  -0.862488   0.500000   x
            x  H                13         0.844621   0.500000   0.750000   x
            x  H                14        -0.844621   0.500000   0.250000   x
            x  H                15         0.844621   0.500000   0.250000   x
            x  H                16        -0.844621   0.500000   0.750000   x
            xxxxxxxxxxxxxxxxxxxxxxxxxxxxxxxxxxxxxxxxxxxxxxxxxxxxxxxxxxxxxxxxx


------------------------------------------------------------------------ <-- SCF
SCF loop      Energy                           Energy gain       Timer   <-- SCF
                                               per atom          (sec)   <-- SCF
------------------------------------------------------------------------ <-- SCF
Initial  -2.33125376E+002                                         52.77  <-- SCF
      1  -2.33192891E+002                    4.21972573E-003      53.10  <-- SCF
      2  -2.33193159E+002                    1.67352005E-005      53.71  <-- SCF
      3  -2.33191301E+002                   -1.16145572E-004      54.31  <-- SCF
      4  -2.33191194E+002                   -6.65744225E-006      54.93  <-- SCF
      5  -2.33191195E+002                    1.80222125E-008      55.54  <-- SCF
      6  -2.33191195E+002                    1.39724219E-009      56.14  <-- SCF
      7  -2.33191195E+002                    1.45917716E-012      56.61  <-- SCF
      8  -2.33191195E+002                   -3.83675983E-013      57.09  <-- SCF
------------------------------------------------------------------------ <-- SCF
 
Final energy =  -233.1911946710     eV
(energy not corrected for finite basis set)
 

 ******************************** Symmetrised Forces ********************************
 *                                                                                  *
 *                           Cartesian components (eV/A)                            *
 * -------------------------------------------------------------------------------- *
 *                         x                    y                    z              *
 *                                                                                  *
 * H               1      0.05184              0.01905              0.00000         *
 * H               2     -0.05184              0.01905              0.00000         *
 * H               3      0.05184             -0.01905              0.00000         *
 * H               4     -0.05184             -0.01905              0.00000         *
 * H               5      0.05580              0.00000             -0.00000         *
 * H               6     -0.05580              0.00000             -0.00000         *
 * H               7      0.05580             -0.00000              0.00000         *
 * H               8     -0.05580              0.00000             -0.00000         *
 * H               9      0.05184              0.01905              0.00000         *
 * H              10     -0.05184              0.01905              0.00000         *
 * H              11      0.05184             -0.01905              0.00000         *
 * H              12     -0.05184             -0.01905              0.00000         *
 * H              13      0.05580              0.00000              0.00000         *
 * H              14     -0.05580              0.00000              0.00000         *
 * H              15      0.05580              0.00000             -0.00000         *
 * H              16     -0.05580             -0.00000             -0.00000         *
 *                                                                                  *
 ************************************************************************************

 *********** Symmetrised Stress Tensor ***********
 *                                               *
 *          Cartesian components (GPa)           *
 * --------------------------------------------- *
 *             x             y             z     *
 *                                               *
 *  x   -200.614308      0.000000      0.000000  *
 *  y      0.000000   -201.766570      0.000000  *
 *  z      0.000000      0.000000   -199.334227  *
 *                                               *
 *  Pressure:  200.5717                          *
 *                                               *
 *************************************************
  
 +------------+-------------+-------------+-----------------+ <-- min LBFGS
 |    Step    |   lambda    |   F.delta'  |    enthalpy     | <-- min LBFGS
 +------------+-------------+-------------+-----------------+ <-- min LBFGS
 |  previous  |    0.000000 |    0.025971 |     -199.164420 | <-- min LBFGS
 | trial step |    1.000000 |    0.015483 |     -199.170610 | <-- min LBFGS
 +------------+-------------+-------------+-----------------+ <-- min LBFGS
  

--------------------------------------------------------------------------------
 LBFGS: improving iteration         4 with line minimization (lambda=  2.476255)
--------------------------------------------------------------------------------

                           -------------------------------
                                      Unit Cell
                           -------------------------------
        Real Lattice(A)              Reciprocal Lattice(1/A)
     2.8826241     0.0000000     0.0000000        2.179675589  -0.000000000   0.000000000
     0.0000000     1.7430458     0.0000000       -0.000000000   3.604716143   0.000000000
     0.0000000     0.0000000     5.4226266        0.000000000   0.000000000   1.158697773

                       Lattice parameters(A)       Cell Angles
                    a =      2.882624          alpha =   90.000000
                    b =      1.743046          beta  =   90.000000
                    c =      5.422627          gamma =   90.000000

                Current cell volume =            27.246235 A**3

                           -------------------------------
                                     Cell Contents
                           -------------------------------

            xxxxxxxxxxxxxxxxxxxxxxxxxxxxxxxxxxxxxxxxxxxxxxxxxxxxxxxxxxxxxxxxx
            x  Element         Atom        Fractional coordinates of atoms  x
            x                 Number           u          v          w      x
            x---------------------------------------------------------------x
            x  H                 1         0.404291   0.365334   0.000000   x
            x  H                 2        -0.404291   0.365334   0.500000   x
            x  H                 3         0.404291  -0.365334   0.500000   x
            x  H                 4        -0.404291  -0.365334   0.000000   x
            x  H                 5         0.349325   0.000000   0.250000   x
            x  H                 6        -0.349325  -0.000000   0.750000   x
            x  H                 7         0.349325   0.000000   0.750000   x
            x  H                 8        -0.349325  -0.000000   0.250000   x
            x  H                 9         0.904291   0.865334   0.500000   x
            x  H                10        -0.904291   0.865334   0.000000   x
            x  H                11         0.904291  -0.865334   0.000000   x
            x  H                12        -0.904291  -0.865334   0.500000   x
            x  H                13         0.849325   0.500000   0.750000   x
            x  H                14        -0.849325   0.500000   0.250000   x
            x  H                15         0.849325   0.500000   0.250000   x
            x  H                16        -0.849325   0.500000   0.750000   x
            xxxxxxxxxxxxxxxxxxxxxxxxxxxxxxxxxxxxxxxxxxxxxxxxxxxxxxxxxxxxxxxxx


------------------------------------------------------------------------ <-- SCF
SCF loop      Energy                           Energy gain       Timer   <-- SCF
                                               per atom          (sec)   <-- SCF
------------------------------------------------------------------------ <-- SCF
Initial  -2.33037782E+002                                         59.20  <-- SCF
      1  -2.33187746E+002                    9.37272242E-003      59.54  <-- SCF
      2  -2.33188323E+002                    3.60485337E-005      60.14  <-- SCF
      3  -2.33183829E+002                   -2.80868913E-004      60.76  <-- SCF
      4  -2.33183582E+002                   -1.54240775E-005      61.38  <-- SCF
      5  -2.33183583E+002                    3.58181741E-008      62.00  <-- SCF
      6  -2.33183583E+002                    3.06071322E-009      62.63  <-- SCF
      7  -2.33183583E+002                    8.97258007E-013      63.12  <-- SCF
      8  -2.33183583E+002                    6.55572348E-013      63.61  <-- SCF
------------------------------------------------------------------------ <-- SCF
 
Final energy =  -233.1835826184     eV
(energy not corrected for finite basis set)
 

 ******************************** Symmetrised Forces ********************************
 *                                                                                  *
[...]
            x---------------------------------------------------------------x
            x  H                 1         0.407111   0.359700   0.000000   x
            x  H                 2        -0.407111   0.359700   0.500000   x
            x  H                 3         0.407111  -0.359700   0.500000   x
            x  H                 4        -0.407111  -0.359700   0.000000   x
            x  H                 5         0.348022   0.000000   0.250000   x
            x  H                 6        -0.348022  -0.000000   0.750000   x
            x  H                 7         0.348022  -0.000000   0.750000   x
            x  H                 8        -0.348022   0.000000   0.250000   x
            x  H                 9         0.907111   0.859700   0.500000   x
            x  H                10        -0.907111   0.859700   0.000000   x
            x  H                11         0.907111  -0.859700   0.000000   x
            x  H                12        -0.907111  -0.859700   0.500000   x
            x  H                13         0.848022   0.500000   0.750000   x
            x  H                14        -0.848022   0.500000   0.250000   x
            x  H                15         0.848022   0.500000   0.250000   x
            x  H                16        -0.848022   0.500000   0.750000   x
            xxxxxxxxxxxxxxxxxxxxxxxxxxxxxxxxxxxxxxxxxxxxxxxxxxxxxxxxxxxxxxxxx


------------------------------------------------------------------------ <-- SCF
SCF loop      Energy                           Energy gain       Timer   <-- SCF
                                               per atom          (sec)   <-- SCF
------------------------------------------------------------------------ <-- SCF
Initial  -2.33283718E+002                                        125.56  <-- SCF
      1  -2.33283718E+002                    1.51657751E-012     125.76  <-- SCF
      2  -2.33283718E+002                    6.94846268E-014     126.23  <-- SCF
      3  -2.33283718E+002                   -3.02107073E-013     126.70  <-- SCF
      4  -2.33283718E+002                   -3.77633841E-013     127.16  <-- SCF
------------------------------------------------------------------------ <-- SCF
 
Final energy =  -233.2837178761     eV
(energy not corrected for finite basis set)
 

 ******************************** Symmetrised Forces ********************************
 *                                                                                  *
 *                           Cartesian components (eV/A)                            *
 * -------------------------------------------------------------------------------- *
 *                         x                    y                    z              *
 *                                                                                  *
 * H               1      0.00000              0.00000             -0.00000         *
 * H               2     -0.00000              0.00000             -0.00000         *
 * H               3      0.00000             -0.00000             -0.00000         *
 * H               4     -0.00000             -0.00000             -0.00000         *
 * H               5     -0.00000              0.00000              0.00000         *
 * H               6      0.00000              0.00000             -0.00000         *
 * H               7     -0.00000              0.00000              0.00000         *
 * H               8      0.00000              0.00000              0.00000         *
 * H               9      0.00000              0.00000             -0.00000         *
 * H              10     -0.00000              0.00000             -0.00000         *
 * H              11      0.00000             -0.00000             -0.00000         *
 * H              12     -0.00000             -0.00000             -0.00000         *
 * H              13     -0.00000              0.00000              0.00000         *
 * H              14      0.00000              0.00000             -0.00000         *
 * H              15     -0.00000              0.00000              0.00000         *
 * H              16      0.00000              0.00000              0.00000         *
 *                                                                                  *
 ************************************************************************************

 *********** Symmetrised Stress Tensor ***********
 *                                               *
 *          Cartesian components (GPa)           *
 * --------------------------------------------- *
 *             x             y             z     *
 *                                               *
 *  x   -200.000009      0.000000      0.000000  *
 *  y      0.000000   -200.000003      0.000000  *
 *  z      0.000000      0.000000   -200.000007  *
 *                                               *
 *  Pressure:  200.0000                          *
 *                                               *
 *************************************************
  
 +------------+-------------+-------------+-----------------+ <-- min LBFGS
 |    Step    |   lambda    |   F.delta'  |    enthalpy     | <-- min LBFGS
 +------------+-------------+-------------+-----------------+ <-- min LBFGS
 |  previous  |    0.000000 |  2.020E-007 |     -199.174716 | <-- min LBFGS
 | trial step |    1.000000 |  3.298E-008 |     -199.174716 | <-- min LBFGS
 +------------+-------------+-------------+-----------------+ <-- min LBFGS
  
 LBFGS: finished iteration    14 with enthalpy= -1.99174716E+002 eV
  
 +-----------+-----------------+-----------------+------------+-----+ <-- LBFGS
 | Parameter |      value      |    tolerance    |    units   | OK? | <-- LBFGS
 +-----------+-----------------+-----------------+------------+-----+ <-- LBFGS
 |  dE/ion   |   6.857831E-013 |   1.000000E-009 |         eV | Yes | <-- LBFGS
 |  |F|max   |   6.736513E-007 |   1.000000E-005 |       eV/A | Yes | <-- LBFGS
 |  |dR|max  |   2.337303E-007 |   1.000000E-005 |          A | Yes | <-- LBFGS
 |   Smax    |   8.998031E-006 |   1.000000E-005 |        GPa | Yes | <-- LBFGS
 +-----------+-----------------+-----------------+------------+-----+ <-- LBFGS
  
 LBFGS: Geometry optimization completed successfully.

================================================================================
 LBFGS: Final Configuration:
================================================================================

                           -------------------------------
                                      Unit Cell
                           -------------------------------
        Real Lattice(A)              Reciprocal Lattice(1/A)
     2.8856170     0.0000000     0.0000000        2.177414872  -0.000000000   0.000000000
     0.0000000     1.7474134     0.0000000       -0.000000000   3.595706328   0.000000000
     0.0000000     0.0000000     5.4189550        0.000000000   0.000000000   1.159482827

                       Lattice parameters(A)       Cell Angles
                    a =      2.885617          alpha =   90.000000
                    b =      1.747413          beta  =   90.000000
                    c =      5.418955          gamma =   90.000000

                Current cell volume =            27.324353 A**3

                           -------------------------------
                                     Cell Contents
                           -------------------------------

            xxxxxxxxxxxxxxxxxxxxxxxxxxxxxxxxxxxxxxxxxxxxxxxxxxxxxxxxxxxxxxxxx
            x  Element         Atom        Fractional coordinates of atoms  x
            x                 Number           u          v          w      x
            x---------------------------------------------------------------x
            x  H                 1         0.407111   0.359700   0.000000   x
            x  H                 2        -0.407111   0.359700   0.500000   x
            x  H                 3         0.407111  -0.359700   0.500000   x
            x  H                 4        -0.407111  -0.359700   0.000000   x
            x  H                 5         0.348022   0.000000   0.250000   x
            x  H                 6        -0.348022  -0.000000   0.750000   x
            x  H                 7         0.348022  -0.000000   0.750000   x
            x  H                 8        -0.348022   0.000000   0.250000   x
            x  H                 9         0.907111   0.859700   0.500000   x
            x  H                10        -0.907111   0.859700   0.000000   x
            x  H                11         0.907111  -0.859700   0.000000   x
            x  H                12        -0.907111  -0.859700   0.500000   x
            x  H                13         0.848022   0.500000   0.750000   x
            x  H                14        -0.848022   0.500000   0.250000   x
            x  H                15         0.848022   0.500000   0.250000   x
            x  H                16        -0.848022   0.500000   0.750000   x
            xxxxxxxxxxxxxxxxxxxxxxxxxxxxxxxxxxxxxxxxxxxxxxxxxxxxxxxxxxxxxxxxx


 LBFGS: Final Enthalpy     = -1.99174716E+002 eV
 LBFGS: Final <frequency>  =     715.36560 cm-1
 LBFGS: Final bulk modulus =     479.74312 GPa

 ******************************** Symmetrised Forces ********************************
 *                                                                                  *
 *                           Cartesian components (eV/A)                            *
 * -------------------------------------------------------------------------------- *
 *                         x                    y                    z              *
 *                                                                                  *
 * H               1      0.00000              0.00000             -0.00000         *
 * H               2     -0.00000              0.00000             -0.00000         *
 * H               3      0.00000             -0.00000             -0.00000         *
 * H               4     -0.00000             -0.00000             -0.00000         *
 * H               5     -0.00000              0.00000              0.00000         *
 * H               6      0.00000              0.00000             -0.00000         *
 * H               7     -0.00000              0.00000              0.00000         *
 * H               8      0.00000              0.00000              0.00000         *
 * H               9      0.00000              0.00000             -0.00000         *
 * H              10     -0.00000              0.00000             -0.00000         *
 * H              11      0.00000             -0.00000             -0.00000         *
 * H              12     -0.00000             -0.00000             -0.00000         *
 * H              13     -0.00000              0.00000              0.00000         *
 * H              14      0.00000              0.00000             -0.00000         *
 * H              15     -0.00000              0.00000              0.00000         *
 * H              16      0.00000              0.00000              0.00000         *
 *                                                                                  *
 ************************************************************************************

 *********** Symmetrised Stress Tensor ***********
 *                                               *
 *          Cartesian components (GPa)           *
 * --------------------------------------------- *
 *             x             y             z     *
 *                                               *
 *  x   -200.000009      0.000000      0.000000  *
 *  y      0.000000   -200.000003      0.000000  *
 *  z      0.000000      0.000000   -200.000007  *
 *                                               *
 *  Pressure:  200.0000                          *
 *                                               *
 *************************************************

 Pseudo atomic calculation performed for H 1s1

 Converged in 24 iterations to a total energy of -12.4843 eV

Charge spilling parameter for spin component 1 = 0.59%

            Orbital Populations       
     Ion    Atom   Orbital             Charge
  -------------------------------------------
      H     1      S                    1.006
      H     2      S                    1.005
      H     3      S                    1.005
      H     4      S                    1.006
      H     5      S                    0.994
      H     6      S                    0.994
      H     7      S                    0.994
      H     8      S                    0.994
      H     9      S                    1.006
      H    10      S                    1.005
      H    11      S                    1.005
      H    12      S                    1.006
      H    13      S                    0.994
      H    14      S                    0.994
      H    15      S                    0.994
      H    16      S                    0.994
  -------------------------------------------
                           Total:      16.000
  -------------------------------------------

     Atomic Populations (Mulliken)
     -----------------------------
Species          Ion     s      p      d      f     Total  Charge (e)
=====================================================================
  H               1     1.01   0.00   0.00   0.00   1.01    -0.01
  H               2     1.01   0.00   0.00   0.00   1.01    -0.01
  H               3     1.01   0.00   0.00   0.00   1.01    -0.01
  H               4     1.01   0.00   0.00   0.00   1.01    -0.01
  H               5     0.99   0.00   0.00   0.00   0.99     0.01
  H               6     0.99   0.00   0.00   0.00   0.99     0.01
  H               7     0.99   0.00   0.00   0.00   0.99     0.01
  H               8     0.99   0.00   0.00   0.00   0.99     0.01
  H               9     1.01   0.00   0.00   0.00   1.01    -0.01
  H              10     1.01   0.00   0.00   0.00   1.01    -0.01
  H              11     1.01   0.00   0.00   0.00   1.01    -0.01
  H              12     1.01   0.00   0.00   0.00   1.01    -0.01
  H              13     0.99   0.00   0.00   0.00   0.99     0.01
  H              14     0.99   0.00   0.00   0.00   0.99     0.01
  H              15     0.99   0.00   0.00   0.00   0.99     0.01
  H              16     0.99   0.00   0.00   0.00   0.99     0.01
=====================================================================

                 Bond                   Population      Length (A)
======================================================================
              H 10 -- H 11                   1.55        0.72650
              H 9  -- H 12                   1.55        0.72650
              H 2  -- H 3                    1.55        0.72650
              H 1  -- H 4                    1.55        0.72650
              H 6  -- H 7                    0.31        0.87710
              H 13 -- H 16                   0.31        0.87710
              H 5  -- H 8                    0.31        0.87710
              H 14 -- H 15                   0.31        0.87710
              H 7  -- H 16                   1.02        1.04086
              H 5  -- H 14                   1.02        1.04086
              H 8  -- H 15                   1.02        1.04086
              H 6  -- H 13                   1.02        1.04086
              H 4  -- H 11                  -0.30        1.25917
              H 3  -- H 12                  -0.30        1.25917
              H 2  -- H 9                   -0.30        1.25917
              H 1  -- H 10                  -0.30        1.25917
              H 4  -- H 10                  -0.63        1.49288
              H 3  -- H 9                   -0.63        1.49288
              H 2  -- H 12                  -0.63        1.49288
              H 1  -- H 11                  -0.63        1.49288
              H 1  -- H 7                   -0.12        1.50315
              H 1  -- H 5                   -0.12        1.50315
              H 12 -- H 16                  -0.12        1.50315
              H 12 -- H 14                  -0.12        1.50315
              H 11 -- H 15                  -0.12        1.50315
              H 11 -- H 13                  -0.12        1.50315
              H 10 -- H 16                  -0.12        1.50315
              H 10 -- H 14                  -0.12        1.50315
              H 9  -- H 15                  -0.12        1.50315
              H 9  -- H 13                  -0.12        1.50315
              H 4  -- H 8                   -0.12        1.50315
              H 4  -- H 6                   -0.12        1.50315
              H 3  -- H 7                   -0.12        1.50315
              H 3  -- H 5                   -0.12        1.50315
              H 2  -- H 8                   -0.12        1.50315
              H 2  -- H 6                   -0.12        1.50315
              H 8  -- H 11                  -0.11        1.56123
              H 8  -- H 9                   -0.11        1.56123
              H 7  -- H 12                  -0.11        1.56123
              H 7  -- H 10                  -0.11        1.56123
              H 6  -- H 11                  -0.11        1.56123
              H 6  -- H 9                   -0.11        1.56123
              H 5  -- H 12                  -0.11        1.56123
              H 5  -- H 10                  -0.11        1.56123
              H 4  -- H 15                  -0.11        1.56123
              H 4  -- H 13                  -0.11        1.56123
              H 3  -- H 16                  -0.11        1.56123
              H 3  -- H 14                  -0.11        1.56123
              H 2  -- H 15                  -0.11        1.56123
              H 2  -- H 13                  -0.11        1.56123
              H 1  -- H 16                  -0.11        1.56123
              H 1  -- H 14                  -0.11        1.56123
              H 12 -- H 15                  -0.21        1.65217
              H 12 -- H 13                  -0.21        1.65217
              H 11 -- H 16                  -0.21        1.65217
              H 11 -- H 14                  -0.21        1.65217
              H 10 -- H 15                  -0.21        1.65217
              H 10 -- H 13                  -0.21        1.65217
              H 9  -- H 16                  -0.21        1.65217
              H 9  -- H 14                  -0.21        1.65217
              H 4  -- H 7                   -0.21        1.65217
              H 4  -- H 5                   -0.21        1.65217
              H 3  -- H 8                   -0.21        1.65217
              H 3  -- H 6                   -0.21        1.65217
              H 2  -- H 7                   -0.21        1.65217
              H 2  -- H 5                   -0.21        1.65217
              H 1  -- H 8                   -0.21        1.65217
              H 1  -- H 6                   -0.21        1.65217
              H 8  -- H 14                  -0.73        1.68673
              H 7  -- H 13                  -0.73        1.68673
              H 6  -- H 16                  -0.73        1.68673
              H 5  -- H 15                  -0.73        1.68673
======================================================================


Writing analysis data to Hibam.castep_bin

Writing model to Hibam.check
 
 A BibTeX formatted list of references used in this run has been written to 
 Hibam.bib
 
Initialisation time =      2.83 s
Calculation time    =    127.30 s
Finalisation time   =      0.80 s
Total time          =    130.93 s
Peak Memory Use     = 559688 kB
  
Overall parallel efficiency rating: Very good (83%)                             
  
Data was distributed by:-
k-point (32-way); efficiency rating: Very good (84%)                            
  
Parallel notes:
1) Calculation only took 130.2 s, so efficiency estimates may be inaccurate.    
