 +-------------------------------------------------+
 |                                                 |
 |      CCC   AA    SSS  TTTTT  EEEEE  PPPP        |
 |     C     A  A  S       T    E      P   P       |
 |     C     AAAA   SS     T    EEE    PPPP        |
 |     C     A  A     S    T    E      P           |
 |      CCC  A  A  SSS     T    EEEEE  P           |
 |                                                 |
 +-------------------------------------------------+
 |                                                 |
 | Welcome to Academic Release CASTEP version 18.1 |          
 | Ab Initio Total Energy Program                  |
 |                                                 |
 | Authors:                                        |
 | M. Segall, M. Probert, C. Pickard, P. Hasnip,   |
 | S. Clark, K. Refson, J. R. Yates, M. Payne      |
 |                                                 |
 | Contributors:                                   |
 | P. Lindan, P. Haynes, J. White, V. Milman,      |
 | N. Govind, M. Gibson, P. Tulip, V. Cocula,      |
 | B. Montanari, D. Quigley, M. Glover,            |
 | L. Bernasconi, A. Perlov, M. Plummer,           |
 | E. McNellis, J. Meyer, J. Gale, D. Jochym       |
 | J. Aarons, B. Walker, R. Gillen, D. Jones       |
 | T. Green, I. J. Bush, C. J. Armstrong,          |
 | E. J. Higgins, E. L. Brown, M. S. McFly,        |
 | J. Wilkins, B-C. Shih, P. J. P. Byrne           |
 |                                                 |
 | Copyright (c) 2000 - 2017                       |
 |                                                 |
 |     Distributed under the terms of an           |
 |     Agreement between the United Kingdom        |
 |     Car-Parrinello (UKCP) Consortium,           |
 |     Daresbury Laboratory and Accelrys, Inc.     |
 |                                                 |
 | Please cite                                     |
 |                                                 |
 |     "First principles methods using CASTEP"     |
 |                                                 |
 |         Zeitschrift fuer Kristallographie       |
 |           220(5-6) pp. 567-570 (2005)           |
 |                                                 |
 | S. J. Clark, M. D. Segall, C. J. Pickard,       |
 | P. J. Hasnip, M. J. Probert, K. Refson,         |
 | M. C. Payne                                     |
 |                                                 |
 |       in all publications arising from          |
 |              your use of CASTEP                 |
 |                                                 |
 +-------------------------------------------------+


 Compiled for linux_x86_64_gfortran4.8 on Thu, 19 Jul 2018 15:42:32 +0100
 from code version 70483bd0ad64+  Sun, 10 Dec 2017 12:18:29 +0000
 Compiler: GNU Fortran 4.8.5; Optimisation: fast
 MATHLIBS: Intel MKL(2018.0.0) (LAPACK version 3.7.0)
 FFT Lib : mkl
 Fundamental constants values: CODATA 2014

 Run started: Wed, 26 Aug 2020 13:37:13 +0100

 Atomic calculation performed for H: 1s1

 Converged in 41 iterations to an ae energy of -12.488 eV

   ============================================================                
   | Pseudopotential Report - Date of generation 26-08-2020   |                
   ------------------------------------------------------------                
   | Element: H Ionic charge:  1.00 Level of theory: PBE      |                
   | Atomic Solver: Koelling-Harmon                           |                
   |                                                          |                
   |               Reference Electronic Structure             |                
   |         Orbital         Occupation         Energy        |                
   |            1s              1.000           -0.239        |                
   |                                                          |                
   |                 Pseudopotential Definition               |                
   |        Beta     l      e      Rc     scheme   norm       |                
   |         loc     0   -0.239   0.702     qc      1         |                
   |                                                          |                
   | No charge augmentation                                   |                
   | No partial core correction                               |                
   ------------------------------------------------------------                
   | "0|0.7|2|6|8|10L(qc=10)"                                 |                
   ------------------------------------------------------------                
   |      Author: Chris J. Pickard, Cambridge University      |                
   ============================================================                

 Pseudo atomic calculation performed for H 1s1

 Converged in 24 iterations to a total energy of -12.4843 eV

 Calculation parallelised over 32 processes.
 Data is distributed by k-point(32-way)

 ************************************ Title ************************************
 

 ***************************** General Parameters ******************************
  
 output verbosity                               : normal  (1)
 write checkpoint data to                       : Hibam.check
 type of calculation                            : geometry optimization
 stress calculation                             : on
 density difference calculation                 : off
 electron localisation func (ELF) calculation   : off
 Hirshfeld analysis                             : off
 unlimited duration calculation
 timing information                             : on
 memory usage estimate                          : on
 write extra output files                       : on
 write final potential to formatted file        : off
 write final density to formatted file          : off
 write structure in CELL formatted file         : on
 write BibTeX reference list                    : on
 write OTFG pseudopotential files               : on
 write electrostatic potential file             : on
 write bands file                               : on
 checkpoint writing                             : both castep_bin and check files
  
 output         length unit                     : A
 output           mass unit                     : amu
 output           time unit                     : ps
 output         charge unit                     : e
 output           spin unit                     : hbar/2
 output         energy unit                     : eV
 output          force unit                     : eV/A
 output       velocity unit                     : A/ps
 output       pressure unit                     : GPa
 output     inv_length unit                     : 1/A
 output      frequency unit                     : cm-1
 output force constant unit                     : eV/A**2
 output         volume unit                     : A**3
 output   IR intensity unit                     : (D/A)**2/amu
 output         dipole unit                     : D
 output         efield unit                     : eV/A/e
 output        entropy unit                     : J/mol/K
  
 wavefunctions paging                           : none
 random number generator seed                   : randomised (133713927)
 data distribution                              : optimal for this architecture
 optimization strategy                          : maximize speed(+++)

 *********************** Exchange-Correlation Parameters ***********************
  
 using functional                               : Perdew Burke Ernzerhof
 relativistic treatment                         : Koelling-Harmon
 DFT+D: Semi-empirical dispersion correction    : off

 ************************* Pseudopotential Parameters **************************
  
 pseudopotential representation                 : reciprocal space
 <beta|phi> representation                      : reciprocal space
 spin-orbit coupling                            : off

 **************************** Basis Set Parameters *****************************
  
 plane wave basis set cut-off                   :  1200.0000   eV
 size of standard grid                          :     2.0000
 size of   fine   gmax                          :    35.4943   1/A
 finite basis set correction                    : automatic
 number of sample energies                      :          3
           sample  spacing                      :     5.0000   eV

 **************************** Electronic Parameters ****************************
  
 number of  electrons                           :  16.00    
 net charge of system                           :  0.000    
 treating system as non-spin-polarized
 number of bands                                :          8

 ********************* Electronic Minimization Parameters **********************
  
 Method: Treating system as non-metallic,
         and number of  SD  steps               :          1
         and number of  CG  steps               :          4
  
 total energy / atom convergence tol.           : 0.1000E-10   eV
 eigen-energy convergence tolerance             : 0.2000E-10   eV
 max force / atom convergence tol.              : ignored
 convergence tolerance window                   :          3   cycles
 max. number of SCF cycles                      :        100
 periodic dipole correction                     : NONE

 ************************** Density Mixing Parameters **************************
  
 density-mixing scheme                          : Broyden
 max. length of mixing history                  :         20
 charge density mixing amplitude                : 0.8000    
 cut-off energy for mixing                      :  1200.       eV

 *********************** Population Analysis Parameters ************************
  
 Population analysis with cutoff                :  3.000       A
 Population analysis output                     : summary and pdos components

 ********************** Geometry Optimization Parameters ***********************
  
 optimization method                            : LBFGS
 max. no. of LBFGS updates                      : unbounded
 variable cell method                           : fixed basis quality
 max. number of steps                           :         60
 estimated bulk modulus                         :  500.0       GPa
 estimated <frequency>                          :  1668.       cm-1
 geom line minimiser                            : on
 with line minimiser tolerance                  :     0.4000
 total energy convergence tolerance             : 0.1000E-08   eV/atom
        max ionic |force| tolerance             : 0.1000E-04   eV/A
 max ionic |displacement| tolerance             : 0.1000E-04   A
   max |stress component| tolerance             : 0.1000E-04   GPa
 convergence tolerance window                   :          2   steps
 backup results every                           :      14400   seconds
 write geom trajectory file                     : on

 *******************************************************************************
  

                           -------------------------------
                                      Unit Cell
                           -------------------------------
        Real Lattice(A)                      Reciprocal Lattice(1/A)
     3.1028091    -0.0000000     0.0000000        2.024999022   0.000000000   0.000000000
    -0.0000000     2.0513380     0.0000000        0.000000000   3.062969242   0.000000000
     0.0000000     0.0000000     6.0628367        0.000000000   0.000000000   1.036344141

                       Lattice parameters(A)       Cell Angles
                    a =      3.102809          alpha =   90.000000
                    b =      2.051338          beta  =   90.000000
                    c =      6.062837          gamma =   90.000000

                       Current cell volume =            38.589411       A**3
                                   density =             0.417914   AMU/A**3
                                           =             0.693962     g/cm^3

                           -------------------------------
                                     Cell Contents
                           -------------------------------
                         Total number of ions in cell =   16
                      Total number of species in cell =    1
                        Max number of any one species =   16

            xxxxxxxxxxxxxxxxxxxxxxxxxxxxxxxxxxxxxxxxxxxxxxxxxxxxxxxxxxxx
            x  Element    Atom        Fractional coordinates of atoms  x
            x            Number           u          v          w      x
            x----------------------------------------------------------x
            x  H            1         0.413100   0.379832   0.000000   x 
            x  H            2        -0.413100   0.379832   0.500000   x 
            x  H            3         0.413100  -0.379832   0.500000   x 
            x  H            4        -0.413100  -0.379832   0.000000   x 
            x  H            5         0.379071   0.000000   0.250000   x 
            x  H            6        -0.379071   0.000000   0.750000   x 
            x  H            7         0.379071   0.000000   0.750000   x 
            x  H            8        -0.379071   0.000000   0.250000   x 
            x  H            9         0.913100   0.879832   0.500000   x 
            x  H           10        -0.913100   0.879832   0.000000   x 
            x  H           11         0.913100  -0.879832   0.000000   x 
            x  H           12        -0.913100  -0.879832   0.500000   x 
            x  H           13         0.879071   0.500000   0.750000   x 
            x  H           14        -0.879071   0.500000   0.250000   x 
            x  H           15         0.879071   0.500000   0.250000   x 
            x  H           16        -0.879071   0.500000   0.750000   x 
            xxxxxxxxxxxxxxxxxxxxxxxxxxxxxxxxxxxxxxxxxxxxxxxxxxxxxxxxxxxx


                         No user defined ionic velocities

                           -------------------------------
                                   Details of Species
                           -------------------------------

                               Mass of species in AMU
                                    H    1.0079400

                          Electric Quadrupole Moment (Barn)
                                    H    0.0028600 Isotope  2

                          Files used for pseudopotentials:
                                    H 0|0.7|2|6|8|10L(qc=10)

                           -------------------------------
                              k-Points For BZ Sampling
                           -------------------------------
                       MP grid size for SCF calculation is  8  8  8
                            with an offset of   0.000  0.000  0.000
                       Number of kpoints used =            64

                           -------------------------------
                               Symmetry and Constraints
                           -------------------------------

                      Cell is a supercell containing 2 primitive cells
                      Maximum deviation from symmetry = 0.227744E-15     ANG

                      Number of symmetry operations   =          16
                      Number of ionic constraints     =           3
                      Point group of crystal =     8: D2h, mmm, 2/m 2/m 2/m
                      Space group of crystal =    72: Ibam, -I 2 2c

             Set iprint > 1 for details on symmetry rotations/translations

                         Centre of mass is constrained
             Set iprint > 1 for details of linear ionic constraints

                         Number of cell constraints= 3
                         Cell constraints are:  1 2 3 0 0 0

                         External pressure/stress (GPa)
                         80.00000   0.00000   0.00000
                                   80.00000   0.00000
                                             80.00000
  
+---------------- MEMORY AND SCRATCH DISK ESTIMATES PER PROCESS --------------+
|                                                     Memory          Disk    |
| Baseline code, static data and system overhead      479.0 MB         0.0 MB |
| BLAS internal memory storage                          0.0 MB         0.0 MB |
| Model and support data                               37.0 MB         0.0 MB |
| Electronic energy minimisation requirements          16.3 MB         0.0 MB |
| Force calculation requirements                        7.1 MB         0.0 MB |
| Stress calculation requirements                       9.0 MB         0.0 MB |
|                                               ----------------------------- |
| Approx. total storage required per process          532.3 MB         0.0 MB |
|                                                                             |
| Requirements will fluctuate during execution and may exceed these estimates |
+-----------------------------------------------------------------------------+
Calculating finite basis set correction with  3 cut-off energies.
Calculating total energy with cut-off of 1190.000 eV.
------------------------------------------------------------------------ <-- SCF
SCF loop      Energy                           Energy gain       Timer   <-- SCF
                                               per atom          (sec)   <-- SCF
------------------------------------------------------------------------ <-- SCF
Initial   3.99170123E+002                                          4.00  <-- SCF
      1  -1.96694812E+002                    3.72415585E+001       4.61  <-- SCF
      2  -2.42798556E+002                    2.88148401E+000       5.03  <-- SCF
      3  -2.43705872E+002                    5.67072448E-002       5.40  <-- SCF
      4  -2.42589173E+002                   -6.97937077E-002       6.26  <-- SCF
      5  -2.42550951E+002                   -2.38890246E-003       7.11  <-- SCF
      6  -2.42552197E+002                    7.79167011E-005       7.96  <-- SCF
      7  -2.42552321E+002                    7.72767100E-006       8.80  <-- SCF
      8  -2.42552321E+002                    1.34797910E-008       9.66  <-- SCF
      9  -2.42552321E+002                    4.05850642E-010      10.52  <-- SCF
     10  -2.42552321E+002                    8.03604814E-012      11.22  <-- SCF
     11  -2.42552321E+002                    3.80654912E-013      11.89  <-- SCF
------------------------------------------------------------------------ <-- SCF
 
Final energy =  -242.5523211710     eV
(energy not corrected for finite basis set)
 
Calculating total energy with cut-off of 1195.000 eV.
------------------------------------------------------------------------ <-- SCF
SCF loop      Energy                           Energy gain       Timer   <-- SCF
                                               per atom          (sec)   <-- SCF
------------------------------------------------------------------------ <-- SCF
Initial  -2.42552321E+002                                         12.62  <-- SCF
      1  -2.42553448E+002                    7.04229151E-005      13.10  <-- SCF
      2  -2.42553448E+002                    9.49401687E-011      13.93  <-- SCF
      3  -2.42553448E+002                    2.94641161E-008      14.77  <-- SCF
      4  -2.42553448E+002                    1.46325259E-009      15.61  <-- SCF
      5  -2.42553448E+002                    1.17126912E-011      16.30  <-- SCF
      6  -2.42553448E+002                    6.82761985E-013      16.97  <-- SCF
      7  -2.42553448E+002                    3.35338851E-013      17.64  <-- SCF
------------------------------------------------------------------------ <-- SCF
 
Final energy =  -242.5534484342     eV
(energy not corrected for finite basis set)
 
Calculating total energy with cut-off of 1200.000 eV.
------------------------------------------------------------------------ <-- SCF
SCF loop      Energy                           Energy gain       Timer   <-- SCF
                                               per atom          (sec)   <-- SCF
------------------------------------------------------------------------ <-- SCF
Initial  -2.42553448E+002                                         18.36  <-- SCF
      1  -2.42554562E+002                    6.96285929E-005      18.81  <-- SCF
      2  -2.42554562E+002                    9.41365639E-011      19.65  <-- SCF
      3  -2.42554563E+002                    2.96807541E-008      20.51  <-- SCF
      4  -2.42554563E+002                    1.46855154E-009      21.36  <-- SCF
      5  -2.42554563E+002                    1.15344480E-011      22.05  <-- SCF
      6  -2.42554563E+002                    1.37156611E-012      22.74  <-- SCF
      7  -2.42554563E+002                    3.92739195E-014      23.40  <-- SCF
------------------------------------------------------------------------ <-- SCF
 
Final energy =  -242.5545629918     eV
(energy not corrected for finite basis set)
 
 For future reference: finite basis dEtot/dlog(Ecut) =      -0.269946eV
 Total energy corrected for finite basis set =    -242.554571 eV
 
+---------------- MEMORY AND SCRATCH DISK ESTIMATES PER PROCESS --------------+
|                                                     Memory          Disk    |
| Model and support data                               45.2 MB         0.0 MB |
| Electronic energy minimisation requirements          16.3 MB         0.0 MB |
| Geometry minimisation requirements                   18.3 MB         0.0 MB |
|                                               ----------------------------- |
| Approx. total storage required per process           79.8 MB         0.0 MB |
|                                                                             |
| Requirements will fluctuate during execution and may exceed these estimates |
+-----------------------------------------------------------------------------+
 

 ******************************** Symmetrised Forces ********************************
 *                                                                                  *
 *                           Cartesian components (eV/A)                            *
 * -------------------------------------------------------------------------------- *
 *                         x                    y                    z              *
 *                                                                                  *
 * H               1      0.00000             -0.00000              0.00000         *
 * H               2     -0.00000             -0.00000              0.00000         *
 * H               3      0.00000              0.00000              0.00000         *
 * H               4     -0.00000              0.00000              0.00000         *
 * H               5      0.00000             -0.00000              0.00000         *
 * H               6     -0.00000             -0.00000              0.00000         *
 * H               7      0.00000             -0.00000              0.00000         *
 * H               8     -0.00000             -0.00000             -0.00000         *
 * H               9      0.00000             -0.00000              0.00000         *
 * H              10     -0.00000             -0.00000              0.00000         *
 * H              11      0.00000              0.00000              0.00000         *
 * H              12     -0.00000              0.00000              0.00000         *
 * H              13      0.00000             -0.00000             -0.00000         *
 * H              14     -0.00000              0.00000              0.00000         *
 * H              15      0.00000             -0.00000              0.00000         *
 * H              16     -0.00000             -0.00000             -0.00000         *
 *                                                                                  *
 ************************************************************************************

 *********** Symmetrised Stress Tensor ***********
 *                                               *
 *          Cartesian components (GPa)           *
 * --------------------------------------------- *
 *             x             y             z     *
 *                                               *
 *  x    -89.993288      0.000000      0.000000  *
 *  y      0.000000    -89.993295      0.000000  *
 *  z      0.000000      0.000000    -89.993299  *
 *                                               *
 *  Pressure:   89.9933                          *
 *                                               *
 *************************************************
 LBFGS: finished iteration     0 with enthalpy= -2.23286078E+002 eV
  
 +-----------+-----------------+-----------------+------------+-----+ <-- LBFGS
 | Parameter |      value      |    tolerance    |    units   | OK? | <-- LBFGS
 +-----------+-----------------+-----------------+------------+-----+ <-- LBFGS
 |  dE/ion   |   0.000000E+000 |   1.000000E-009 |         eV | No  | <-- LBFGS
 |  |F|max   |   3.579269E-007 |   1.000000E-005 |       eV/A | Yes | <-- LBFGS
 |  |dR|max  |   0.000000E+000 |   1.000000E-005 |          A | No  | <-- LBFGS
 |   Smax    |   9.993299E+000 |   1.000000E-005 |        GPa | No  | <-- LBFGS
 +-----------+-----------------+-----------------+------------+-----+ <-- LBFGS
  

================================================================================
 Starting LBFGS iteration          1 ...
================================================================================
  
 +------------+-------------+-------------+-----------------+ <-- min LBFGS
 |    Step    |   lambda    |   F.delta'  |    enthalpy     | <-- min LBFGS
 +------------+-------------+-------------+-----------------+ <-- min LBFGS
 |  previous  |    0.000000 |    0.153206 |     -223.286078 | <-- min LBFGS
 +------------+-------------+-------------+-----------------+ <-- min LBFGS
  

--------------------------------------------------------------------------------
 LBFGS: starting iteration         1 with trial guess (lambda=  1.000000)
--------------------------------------------------------------------------------
 
+---------------- MEMORY AND SCRATCH DISK ESTIMATES PER PROCESS --------------+
|                                                     Memory          Disk    |
| Model and support data                               45.2 MB         0.0 MB |
| Electronic energy minimisation requirements          16.6 MB         0.0 MB |
| Geometry minimisation requirements                   18.6 MB         0.0 MB |
|                                               ----------------------------- |
| Approx. total storage required per process           80.3 MB         0.0 MB |
|                                                                             |
| Requirements will fluctuate during execution and may exceed these estimates |
+-----------------------------------------------------------------------------+
 

                           -------------------------------
                                      Unit Cell
                           -------------------------------
        Real Lattice(A)              Reciprocal Lattice(1/A)
     3.1234806    -0.0000000     0.0000000        2.011597373   0.000000000   0.000000000
    -0.0000000     2.0650045     0.0000000        0.000000000   3.042698188   0.000000000
     0.0000000     0.0000000     6.1032285        0.000000000   0.000000000   1.029485503

                       Lattice parameters(A)       Cell Angles
                    a =      3.123481          alpha =   90.000000
                    b =      2.065004          beta  =   90.000000
                    c =      6.103229          gamma =   90.000000

                Current cell volume =            39.365832 A**3

                           -------------------------------
                                     Cell Contents
                           -------------------------------

            xxxxxxxxxxxxxxxxxxxxxxxxxxxxxxxxxxxxxxxxxxxxxxxxxxxxxxxxxxxxxxxxx
            x  Element         Atom        Fractional coordinates of atoms  x
            x                 Number           u          v          w      x
            x---------------------------------------------------------------x
            x  H                 1         0.413100   0.379832   0.000000   x
            x  H                 2        -0.413100   0.379832   0.500000   x
            x  H                 3         0.413100  -0.379832   0.500000   x
            x  H                 4        -0.413100  -0.379832   0.000000   x
            x  H                 5         0.379071  -0.000000   0.250000   x
            x  H                 6        -0.379071   0.000000   0.750000   x
            x  H                 7         0.379071   0.000000   0.750000   x
            x  H                 8        -0.379071   0.000000   0.250000   x
            x  H                 9         0.913100   0.879832   0.500000   x
            x  H                10        -0.913100   0.879832   0.000000   x
            x  H                11         0.913100  -0.879832   0.000000   x
            x  H                12        -0.913100  -0.879832   0.500000   x
            x  H                13         0.879071   0.500000   0.750000   x
            x  H                14        -0.879071   0.500000   0.250000   x
            x  H                15         0.879071   0.500000   0.250000   x
            x  H                16        -0.879071   0.500000   0.750000   x
            xxxxxxxxxxxxxxxxxxxxxxxxxxxxxxxxxxxxxxxxxxxxxxxxxxxxxxxxxxxxxxxxx


------------------------------------------------------------------------ <-- SCF
SCF loop      Energy                           Energy gain       Timer   <-- SCF
                                               per atom          (sec)   <-- SCF
------------------------------------------------------------------------ <-- SCF
Initial  -2.42967682E+002                                         26.13  <-- SCF
      1  -2.42977016E+002                    5.83359337E-004      26.62  <-- SCF
      2  -2.42977056E+002                    2.48409598E-006      27.53  <-- SCF
      3  -2.42976804E+002                   -1.57269306E-005      28.37  <-- SCF
      4  -2.42976798E+002                   -4.15369912E-007      29.22  <-- SCF
      5  -2.42976798E+002                    1.63766172E-008      30.07  <-- SCF
      6  -2.42976798E+002                    1.59109826E-009      30.91  <-- SCF
      7  -2.42976798E+002                    5.61012834E-012      31.58  <-- SCF
      8  -2.42976798E+002                   -3.38359922E-013      32.25  <-- SCF
------------------------------------------------------------------------ <-- SCF
 
Final energy =  -242.9767978804     eV
(energy not corrected for finite basis set)
 

 ******************************** Symmetrised Forces ********************************
 *                                                                                  *
 *                           Cartesian components (eV/A)                            *
 * -------------------------------------------------------------------------------- *
 *                         x                    y                    z              *
 *                                                                                  *
 * H               1      0.10768              0.09783              0.00000         *
 * H               2     -0.10768              0.09783              0.00000         *
 * H               3      0.10768             -0.09783              0.00000         *
 * H               4     -0.10768             -0.09783              0.00000         *
 * H               5      0.14052              0.00000              0.00000         *
 * H               6     -0.14052             -0.00000             -0.00000         *
 * H               7      0.14052              0.00000             -0.00000         *
 * H               8     -0.14052              0.00000             -0.00000         *
 * H               9      0.10768              0.09783              0.00000         *
 * H              10     -0.10768              0.09783              0.00000         *
 * H              11      0.10768             -0.09783              0.00000         *
 * H              12     -0.10768             -0.09783              0.00000         *
 * H              13      0.14052             -0.00000              0.00000         *
 * H              14     -0.14052              0.00000             -0.00000         *
 * H              15      0.14052             -0.00000             -0.00000         *
 * H              16     -0.14052             -0.00000              0.00000         *
 *                                                                                  *
 ************************************************************************************

 *********** Symmetrised Stress Tensor ***********
 *                                               *
 *          Cartesian components (GPa)           *
 * --------------------------------------------- *
 *             x             y             z     *
 *                                               *
 *  x    -82.588188     -0.000000      0.000000  *
 *  y     -0.000000    -84.748284      0.000000  *
 *  z      0.000000      0.000000    -85.755482  *
 *                                               *
 *  Pressure:   84.3640                          *
 *                                               *
 *************************************************
  
 +------------+-------------+-------------+-----------------+ <-- min LBFGS
 |    Step    |   lambda    |   F.delta'  |    enthalpy     | <-- min LBFGS
 +------------+-------------+-------------+-----------------+ <-- min LBFGS
 |  previous  |    0.000000 |    0.153206 |     -223.286078 | <-- min LBFGS
 | trial step |    1.000000 |    0.067798 |     -223.320626 | <-- min LBFGS
 +------------+-------------+-------------+-----------------+ <-- min LBFGS
  

--------------------------------------------------------------------------------
 LBFGS: improving iteration         1 with line minimization (lambda=  1.793820)
--------------------------------------------------------------------------------
 
+---------------- MEMORY AND SCRATCH DISK ESTIMATES PER PROCESS --------------+
|                                                     Memory          Disk    |
| Model and support data                               45.2 MB         0.0 MB |
| Electronic energy minimisation requirements          16.7 MB         0.0 MB |
| Geometry minimisation requirements                   18.8 MB         0.0 MB |
|                                               ----------------------------- |
| Approx. total storage required per process           80.7 MB         0.0 MB |
|                                                                             |
| Requirements will fluctuate during execution and may exceed these estimates |
+-----------------------------------------------------------------------------+
 

                           -------------------------------
                                      Unit Cell
                           -------------------------------
        Real Lattice(A)              Reciprocal Lattice(1/A)
     3.1398900    -0.0000000     0.0000000        2.001084512   0.000000000   0.000000000
    -0.0000000     2.0758531     0.0000000        0.000000000   3.026796653   0.000000000
     0.0000000     0.0000000     6.1352924        0.000000000   0.000000000   1.024105277

                       Lattice parameters(A)       Cell Angles
                    a =      3.139890          alpha =   90.000000
                    b =      2.075853          beta  =   90.000000
                    c =      6.135292          gamma =   90.000000

                Current cell volume =            39.989532 A**3

                           -------------------------------
                                     Cell Contents
                           -------------------------------

            xxxxxxxxxxxxxxxxxxxxxxxxxxxxxxxxxxxxxxxxxxxxxxxxxxxxxxxxxxxxxxxxx
            x  Element         Atom        Fractional coordinates of atoms  x
            x                 Number           u          v          w      x
            x---------------------------------------------------------------x
            x  H                 1         0.413100   0.379832   0.000000   x
            x  H                 2        -0.413100   0.379832   0.500000   x
            x  H                 3         0.413100  -0.379832   0.500000   x
            x  H                 4        -0.413100  -0.379832   0.000000   x
            x  H                 5         0.379071  -0.000000   0.250000   x
            x  H                 6        -0.379071   0.000000   0.750000   x
            x  H                 7         0.379071   0.000000   0.750000   x
            x  H                 8        -0.379071   0.000000   0.250000   x
            x  H                 9         0.913100   0.879832   0.500000   x
            x  H                10        -0.913100   0.879832   0.000000   x
            x  H                11         0.913100  -0.879832   0.000000   x
            x  H                12        -0.913100  -0.879832   0.500000   x
            x  H                13         0.879071   0.500000   0.750000   x
            x  H                14        -0.879071   0.500000   0.250000   x
            x  H                15         0.879071   0.500000   0.250000   x
            x  H                16        -0.879071   0.500000   0.750000   x
            xxxxxxxxxxxxxxxxxxxxxxxxxxxxxxxxxxxxxxxxxxxxxxxxxxxxxxxxxxxxxxxxx


------------------------------------------------------------------------ <-- SCF
SCF loop      Energy                           Energy gain       Timer   <-- SCF
                                               per atom          (sec)   <-- SCF
------------------------------------------------------------------------ <-- SCF
Initial  -2.43290515E+002                                         34.95  <-- SCF
      1  -2.43296943E+002                    4.01790045E-004      35.45  <-- SCF
      2  -2.43296968E+002                    1.55541461E-006      36.34  <-- SCF
      3  -2.43296809E+002                   -9.92412701E-006      37.19  <-- SCF
      4  -2.43296805E+002                   -2.64545134E-007      38.05  <-- SCF
      5  -2.43296805E+002                    1.05841008E-008      38.90  <-- SCF
      6  -2.43296805E+002                    1.03370467E-009      39.77  <-- SCF
      7  -2.43296805E+002                    3.38057815E-012      40.44  <-- SCF
      8  -2.43296805E+002                    4.89413458E-013      41.11  <-- SCF
------------------------------------------------------------------------ <-- SCF
 
Final energy =  -243.2968053186     eV
(energy not corrected for finite basis set)
 

 ******************************** Symmetrised Forces ********************************
 *                                                                                  *
 *                           Cartesian components (eV/A)                            *
 * -------------------------------------------------------------------------------- *
 *                         x                    y                    z              *
 *                                                                                  *
 * H               1      0.19109              0.17362             -0.00000         *
 * H               2     -0.19109              0.17362             -0.00000         *
 * H               3      0.19109             -0.17362             -0.00000         *
 * H               4     -0.19109             -0.17362             -0.00000         *
 * H               5      0.24939             -0.00000             -0.00000         *
 * H               6     -0.24939              0.00000             -0.00000         *
 * H               7      0.24939              0.00000              0.00000         *
 * H               8     -0.24939             -0.00000              0.00000         *
 * H               9      0.19109              0.17362             -0.00000         *
 * H              10     -0.19109              0.17362             -0.00000         *
 * H              11      0.19109             -0.17362             -0.00000         *
 * H              12     -0.19109             -0.17362             -0.00000         *
 * H              13      0.24939             -0.00000              0.00000         *
 * H              14     -0.24939             -0.00000              0.00000         *
 * H              15      0.24939              0.00000             -0.00000         *
 * H              16     -0.24939             -0.00000             -0.00000         *
 *                                                                                  *
 ************************************************************************************

 *********** Symmetrised Stress Tensor ***********
 *                                               *
 *          Cartesian components (GPa)           *
 * --------------------------------------------- *
 *             x             y             z     *
 *                                               *
 *  x    -76.990155      0.000000      0.000000  *
 *  y      0.000000    -80.780505      0.000000  *
 *  z      0.000000      0.000000    -82.546772  *
 *                                               *
 *  Pressure:   80.1058                          *
 *                                               *
 *************************************************
  
 +------------+-------------+-------------+-----------------+ <-- min LBFGS
 |    Step    |   lambda    |   F.delta'  |    enthalpy     | <-- min LBFGS
 +------------+-------------+-------------+-----------------+ <-- min LBFGS
 |  previous  |    0.000000 |    0.153206 |     -223.286078 | <-- min LBFGS
 | trial step |    1.000000 |    0.067798 |     -223.320626 | <-- min LBFGS
 |  line step |    1.793820 |    0.001661 |     -223.329210 | <-- min LBFGS
 +------------+-------------+-------------+-----------------+ <-- min LBFGS
  
 LBFGS: finished iteration     1 with enthalpy= -2.23329210E+002 eV
  
 +-----------+-----------------+-----------------+------------+-----+ <-- LBFGS
 | Parameter |      value      |    tolerance    |    units   | OK? | <-- LBFGS
 +-----------+-----------------+-----------------+------------+-----+ <-- LBFGS
 |  dE/ion   |   2.695763E-003 |   1.000000E-009 |         eV | No  | <-- LBFGS
 |  |F|max   |   2.581881E-001 |   1.000000E-005 |       eV/A | No  | <-- LBFGS
 |  |dR|max  |   6.301726E-008 |   1.000000E-005 |          A | Yes | <-- LBFGS
 |   Smax    |   3.009845E+000 |   1.000000E-005 |        GPa | No  | <-- LBFGS
 +-----------+-----------------+-----------------+------------+-----+ <-- LBFGS
  

================================================================================
 Starting LBFGS iteration          2 ...
================================================================================
  
 +------------+-------------+-------------+-----------------+ <-- min LBFGS
 |    Step    |   lambda    |   F.delta'  |    enthalpy     | <-- min LBFGS
 +------------+-------------+-------------+-----------------+ <-- min LBFGS
 |  previous  |    0.000000 |    0.087085 |     -223.329210 | <-- min LBFGS
 +------------+-------------+-------------+-----------------+ <-- min LBFGS
  

--------------------------------------------------------------------------------
 LBFGS: starting iteration         2 with trial guess (lambda=  1.000000)
--------------------------------------------------------------------------------
 
+---------------- MEMORY AND SCRATCH DISK ESTIMATES PER PROCESS --------------+
|                                                     Memory          Disk    |
| Model and support data                               45.3 MB         0.0 MB |
| Electronic energy minimisation requirements          17.2 MB         0.0 MB |
| Geometry minimisation requirements                   19.3 MB         0.0 MB |
|                                               ----------------------------- |
| Approx. total storage required per process           81.8 MB         0.0 MB |
|                                                                             |
| Requirements will fluctuate during execution and may exceed these estimates |
+-----------------------------------------------------------------------------+
 

                           -------------------------------
                                      Unit Cell
                           -------------------------------
        Real Lattice(A)              Reciprocal Lattice(1/A)
     3.1797816    -0.0000000     0.0000000        1.975980175   0.000000000   0.000000000
    -0.0000000     2.1075927     0.0000000        0.000000000   2.981214201   0.000000000
     0.0000000     0.0000000     6.2364913        0.000000000   0.000000000   1.007487230

                       Lattice parameters(A)       Cell Angles
                    a =      3.179782          alpha =   90.000000
                    b =      2.107593          beta  =   90.000000
                    c =      6.236491          gamma =   90.000000

                Current cell volume =            41.794996 A**3

                           -------------------------------
                                     Cell Contents
                           -------------------------------

            xxxxxxxxxxxxxxxxxxxxxxxxxxxxxxxxxxxxxxxxxxxxxxxxxxxxxxxxxxxxxxxxx
            x  Element         Atom        Fractional coordinates of atoms  x
            x                 Number           u          v          w      x
            x---------------------------------------------------------------x
            x  H                 1         0.419211   0.388230   0.000000   x
            x  H                 2        -0.419211   0.388230   0.500000   x
            x  H                 3         0.419211  -0.388230   0.500000   x
            x  H                 4        -0.419211  -0.388230   0.000000   x
            x  H                 5         0.387046  -0.000000   0.250000   x
            x  H                 6        -0.387046   0.000000   0.750000   x
            x  H                 7         0.387046  -0.000000   0.750000   x
            x  H                 8        -0.387046   0.000000   0.250000   x
            x  H                 9         0.919211   0.888230   0.500000   x
            x  H                10        -0.919211   0.888230   0.000000   x
            x  H                11         0.919211  -0.888230   0.000000   x
            x  H                12        -0.919211  -0.888230   0.500000   x
            x  H                13         0.887046   0.500000   0.750000   x
            x  H                14        -0.887046   0.500000   0.250000   x
            x  H                15         0.887046   0.500000   0.250000   x
            x  H                16        -0.887046   0.500000   0.750000   x
            xxxxxxxxxxxxxxxxxxxxxxxxxxxxxxxxxxxxxxxxxxxxxxxxxxxxxxxxxxxxxxxxx


------------------------------------------------------------------------ <-- SCF
SCF loop      Energy                           Energy gain       Timer   <-- SCF
                                               per atom          (sec)   <-- SCF
------------------------------------------------------------------------ <-- SCF
Initial  -2.42942428E+002                                         43.81  <-- SCF
      1  -2.44168351E+002                    7.66201741E-002      44.29  <-- SCF
      2  -2.44173681E+002                    3.33146422E-004      45.12  <-- SCF
      3  -2.44076747E+002                   -6.05837587E-003      45.97  <-- SCF
      4  -2.44073123E+002                   -2.26485893E-004      46.84  <-- SCF
      5  -2.44073159E+002                    2.27600994E-006      47.71  <-- SCF
      6  -2.44073163E+002                    2.10031514E-007      48.59  <-- SCF
      7  -2.44073163E+002                    1.06571291E-009      49.47  <-- SCF
      8  -2.44073163E+002                    4.01893039E-011      50.18  <-- SCF
      9  -2.44073163E+002                    1.86097957E-012      50.86  <-- SCF
     10  -2.44073163E+002                    8.39857663E-013      51.54  <-- SCF
------------------------------------------------------------------------ <-- SCF
 
Final energy =  -244.0731628653     eV
(energy not corrected for finite basis set)
 

 ******************************** Symmetrised Forces ********************************
 *                                                                                  *
 *                           Cartesian components (eV/A)                            *
 * -------------------------------------------------------------------------------- *
 *                         x                    y                    z              *
 *                                                                                  *
 * H               1     -0.88393             -0.87404             -0.00000         *
 * H               2      0.88393             -0.87404             -0.00000         *
 * H               3     -0.88393              0.87404             -0.00000         *
 * H               4      0.88393              0.87404             -0.00000         *
 * H               5     -0.65568              0.00000             -0.00000         *
 * H               6      0.65568              0.00000              0.00000         *
 * H               7     -0.65568              0.00000              0.00000         *
 * H               8      0.65568              0.00000             -0.00000         *
 * H               9     -0.88393             -0.87404             -0.00000         *
 * H              10      0.88393             -0.87404             -0.00000         *
 * H              11     -0.88393              0.87404             -0.00000         *
 * H              12      0.88393              0.87404             -0.00000         *
 * H              13     -0.65568              0.00000             -0.00000         *
 * H              14      0.65568              0.00000             -0.00000         *
 * H              15     -0.65568              0.00000             -0.00000         *
 * H              16      0.65568              0.00000              0.00000         *
 *                                                                                  *
 ************************************************************************************

 *********** Symmetrised Stress Tensor ***********
 *                                               *
 *          Cartesian components (GPa)           *
 * --------------------------------------------- *
 *             x             y             z     *
 *                                               *
 *  x    -87.299695      0.000000      0.000000  *
 *  y      0.000000    -82.850664      0.000000  *
 *  z      0.000000      0.000000    -75.324801  *
 *                                               *
 *  Pressure:   81.8251                          *
 *                                               *
 *************************************************
  
 +------------+-------------+-------------+-----------------+ <-- min LBFGS
 |    Step    |   lambda    |   F.delta'  |    enthalpy     | <-- min LBFGS
 +------------+-------------+-------------+-----------------+ <-- min LBFGS
 |  previous  |    0.000000 |    0.087085 |     -223.329210 | <-- min LBFGS
 | trial step |    1.000000 |   -0.307150 |     -223.204062 | <-- min LBFGS
 +------------+-------------+-------------+-----------------+ <-- min LBFGS
  

--------------------------------------------------------------------------------
 LBFGS: improving iteration         2 with line minimization (lambda=  0.220896)
--------------------------------------------------------------------------------

                           -------------------------------
                                      Unit Cell
                           -------------------------------
        Real Lattice(A)              Reciprocal Lattice(1/A)
     3.1487019    -0.0000000     0.0000000        1.995484329   0.000000000   0.000000000
    -0.0000000     2.0828643     0.0000000        0.000000000   3.016608132   0.000000000
     0.0000000     0.0000000     6.1576468        0.000000000   0.000000000   1.020387415

                       Lattice parameters(A)       Cell Angles
                    a =      3.148702          alpha =   90.000000
                    b =      2.082864          beta  =   90.000000
                    c =      6.157647          gamma =   90.000000

                Current cell volume =            40.383810 A**3

                           -------------------------------
                                     Cell Contents
                           -------------------------------

            xxxxxxxxxxxxxxxxxxxxxxxxxxxxxxxxxxxxxxxxxxxxxxxxxxxxxxxxxxxxxxxxx
            x  Element         Atom        Fractional coordinates of atoms  x
            x                 Number           u          v          w      x
            x---------------------------------------------------------------x
            x  H                 1         0.414450   0.381687   0.000000   x
            x  H                 2        -0.414450   0.381687   0.500000   x
            x  H                 3         0.414450  -0.381687   0.500000   x
            x  H                 4        -0.414450  -0.381687   0.000000   x
            x  H                 5         0.380833  -0.000000   0.250000   x
            x  H                 6        -0.380833   0.000000   0.750000   x
            x  H                 7         0.380833  -0.000000   0.750000   x
            x  H                 8        -0.380833   0.000000   0.250000   x
            x  H                 9         0.914450   0.881687   0.500000   x
            x  H                10        -0.914450   0.881687   0.000000   x
            x  H                11         0.914450  -0.881687   0.000000   x
            x  H                12        -0.914450  -0.881687   0.500000   x
            x  H                13         0.880833   0.500000   0.750000   x
            x  H                14        -0.880833   0.500000   0.250000   x
            x  H                15         0.880833   0.500000   0.250000   x
            x  H                16        -0.880833   0.500000   0.750000   x
            xxxxxxxxxxxxxxxxxxxxxxxxxxxxxxxxxxxxxxxxxxxxxxxxxxxxxxxxxxxxxxxxx


------------------------------------------------------------------------ <-- SCF
SCF loop      Energy                           Energy gain       Timer   <-- SCF
                                               per atom          (sec)   <-- SCF
------------------------------------------------------------------------ <-- SCF
Initial  -2.42777877E+002                                         54.22  <-- SCF
      1  -2.43567040E+002                    4.93227199E-002      54.69  <-- SCF
      2  -2.43571143E+002                    2.56401229E-004      55.54  <-- SCF
      3  -2.43509246E+002                   -3.86856971E-003      56.39  <-- SCF
      4  -2.43506906E+002                   -1.46189478E-004      57.24  <-- SCF
      5  -2.43506923E+002                    1.02678045E-006      58.10  <-- SCF
      6  -2.43506924E+002                    8.49908614E-008      58.95  <-- SCF
      7  -2.43506924E+002                    2.93850487E-010      59.81  <-- SCF
      8  -2.43506924E+002                    1.97849922E-011      60.49  <-- SCF
      9  -2.43506924E+002                    1.35948183E-012      61.17  <-- SCF
     10  -2.43506924E+002                    3.05128144E-013      61.85  <-- SCF
------------------------------------------------------------------------ <-- SCF
 
Final energy =  -243.5069242896     eV
(energy not corrected for finite basis set)
 

 ******************************** Symmetrised Forces ********************************
 *                                                                                  *
 *                           Cartesian components (eV/A)                            *
 * -------------------------------------------------------------------------------- *
 *                         x                    y                    z              *
 *                                                                                  *
 * H               1     -0.02014             -0.03060             -0.00000         *
 * H               2      0.02014             -0.03060             -0.00000         *
 * H               3     -0.02014              0.03060             -0.00000         *
 * H               4      0.02014              0.03060             -0.00000         *
 * H               5      0.07881             -0.00000              0.00000         *
 * H               6     -0.07881              0.00000              0.00000         *
 * H               7      0.07881             -0.00000             -0.00000         *
 * H               8     -0.07881             -0.00000             -0.00000         *
 * H               9     -0.02014             -0.03060             -0.00000         *
 * H              10      0.02014             -0.03060             -0.00000         *
 * H              11     -0.02014              0.03060             -0.00000         *
 * H              12      0.02014              0.03060             -0.00000         *
 * H              13      0.07881              0.00000             -0.00000         *
 * H              14     -0.07881             -0.00000              0.00000         *
 * H              15      0.07881             -0.00000              0.00000         *
 * H              16     -0.07881             -0.00000              0.00000         *
 *                                                                                  *
 ************************************************************************************

 *********** Symmetrised Stress Tensor ***********
 *                                               *
 *          Cartesian components (GPa)           *
 * --------------------------------------------- *
 *             x             y             z     *
 *                                               *
 *  x    -79.086368     -0.000000      0.000000  *
 *  y     -0.000000    -80.902225      0.000000  *
 *  z      0.000000      0.000000    -80.560818  *
 *                                               *
 *  Pressure:   80.1831                          *
 *                                               *
 *************************************************
  
 +------------+-------------+-------------+-----------------+ <-- min LBFGS
 |    Step    |   lambda    |   F.delta'  |    enthalpy     | <-- min LBFGS
 +------------+-------------+-------------+-----------------+ <-- min LBFGS
 |  previous  |    0.000000 |    0.087085 |     -223.329210 | <-- min LBFGS
 | trial step |    1.000000 |   -0.307150 |     -223.204062 | <-- min LBFGS
 |  line step |    0.220896 |    0.009178 |     -223.342434 | <-- min LBFGS
 +------------+-------------+-------------+-----------------+ <-- min LBFGS
  
 LBFGS: finished iteration     2 with enthalpy= -2.23342434E+002 eV
  
 +-----------+-----------------+-----------------+------------+-----+ <-- LBFGS
 | Parameter |      value      |    tolerance    |    units   | OK? | <-- LBFGS
 +-----------+-----------------+-----------------+------------+-----+ <-- LBFGS
 |  dE/ion   |   8.265103E-004 |   1.000000E-009 |         eV | No  | <-- LBFGS
 |  |F|max   |   7.881497E-002 |   1.000000E-005 |       eV/A | No  | <-- LBFGS
 |  |dR|max  |   5.744266E-003 |   1.000000E-005 |          A | No  | <-- LBFGS
 |   Smax    |   9.136323E-001 |   1.000000E-005 |        GPa | No  | <-- LBFGS
 +-----------+-----------------+-----------------+------------+-----+ <-- LBFGS
  

================================================================================
 Starting LBFGS iteration          3 ...
================================================================================
  
 +------------+-------------+-------------+-----------------+ <-- min LBFGS
 |    Step    |   lambda    |   F.delta'  |    enthalpy     | <-- min LBFGS
 +------------+-------------+-------------+-----------------+ <-- min LBFGS
 |  previous  |    0.000000 |    0.027180 |     -223.342434 | <-- min LBFGS
 +------------+-------------+-------------+-----------------+ <-- min LBFGS
  

--------------------------------------------------------------------------------
 LBFGS: starting iteration         3 with trial guess (lambda=  1.000000)
--------------------------------------------------------------------------------

                           -------------------------------
                                      Unit Cell
                           -------------------------------
        Real Lattice(A)              Reciprocal Lattice(1/A)
     3.1510948    -0.0000000     0.0000000        1.993968998   0.000000000   0.000000000
    -0.0000000     2.0872770     0.0000000        0.000000000   3.010230707   0.000000000
     0.0000000     0.0000000     6.1690557        0.000000000   0.000000000   1.018500345

                       Lattice parameters(A)       Cell Angles
                    a =      3.151095          alpha =   90.000000
                    b =      2.087277          beta  =   90.000000
                    c =      6.169056          gamma =   90.000000

                Current cell volume =            40.575160 A**3

                           -------------------------------
                                     Cell Contents
                           -------------------------------

            xxxxxxxxxxxxxxxxxxxxxxxxxxxxxxxxxxxxxxxxxxxxxxxxxxxxxxxxxxxxxxxxx
            x  Element         Atom        Fractional coordinates of atoms  x
            x                 Number           u          v          w      x
            x---------------------------------------------------------------x
            x  H                 1         0.413700   0.379996   0.000000   x
            x  H                 2        -0.413700   0.379996   0.500000   x
            x  H                 3         0.413700  -0.379996   0.500000   x
            x  H                 4        -0.413700  -0.379996   0.000000   x
            x  H                 5         0.383581  -0.000000   0.250000   x
            x  H                 6        -0.383581  -0.000000   0.750000   x
            x  H                 7         0.383581   0.000000   0.750000   x
            x  H                 8        -0.383581   0.000000   0.250000   x
            x  H                 9         0.913700   0.879996   0.500000   x
            x  H                10        -0.913700   0.879996   0.000000   x
            x  H                11         0.913700  -0.879996   0.000000   x
            x  H                12        -0.913700  -0.879996   0.500000   x
            x  H                13         0.883581   0.500000   0.750000   x
            x  H                14        -0.883581   0.500000   0.250000   x
            x  H                15         0.883581   0.500000   0.250000   x
            x  H                16        -0.883581   0.500000   0.750000   x
            xxxxxxxxxxxxxxxxxxxxxxxxxxxxxxxxxxxxxxxxxxxxxxxxxxxxxxxxxxxxxxxxx


------------------------------------------------------------------------ <-- SCF
SCF loop      Energy                           Energy gain       Timer   <-- SCF
                                               per atom          (sec)   <-- SCF
------------------------------------------------------------------------ <-- SCF
Initial  -2.43518778E+002                                         64.57  <-- SCF
      1  -2.43596601E+002                    4.86392916E-003      65.09  <-- SCF
      2  -2.43596947E+002                    2.16448426E-005      65.94  <-- SCF
      3  -2.43590064E+002                   -4.30245569E-004      66.81  <-- SCF
      4  -2.43589956E+002                   -6.74390031E-006      67.70  <-- SCF
      5  -2.43589954E+002                   -9.93232348E-008      68.57  <-- SCF
      6  -2.43589954E+002                   -5.41730548E-009      69.47  <-- SCF
      7  -2.43589954E+002                    2.81642340E-010      70.26  <-- SCF
      8  -2.43589954E+002                    2.66095910E-011      70.95  <-- SCF
      9  -2.43589954E+002                    1.05133261E-012      71.63  <-- SCF
     10  -2.43589954E+002                    1.87306385E-013      72.31  <-- SCF
------------------------------------------------------------------------ <-- SCF
 
Final energy =  -243.5899539638     eV
(energy not corrected for finite basis set)
 

 ******************************** Symmetrised Forces ********************************
 *                                                                                  *
 *                           Cartesian components (eV/A)                            *
 * -------------------------------------------------------------------------------- *
 *                         x                    y                    z              *
 *                                                                                  *
 * H               1      0.20168              0.18528              0.00000         *
 * H               2     -0.20168              0.18528              0.00000         *
 * H               3      0.20168             -0.18528              0.00000         *
 * H               4     -0.20168             -0.18528              0.00000         *
 * H               5     -0.34175             -0.00000             -0.00000         *
 * H               6      0.34175             -0.00000              0.00000         *
 * H               7     -0.34175             -0.00000              0.00000         *
 * H               8      0.34175             -0.00000              0.00000         *
 * H               9      0.20168              0.18528              0.00000         *
 * H              10     -0.20168              0.18528              0.00000         *
 * H              11      0.20168             -0.18528              0.00000         *
 * H              12     -0.20168             -0.18528              0.00000         *
 * H              13     -0.34175             -0.00000             -0.00000         *
 * H              14      0.34175             -0.00000             -0.00000         *
 * H              15     -0.34175             -0.00000             -0.00000         *
 * H              16      0.34175             -0.00000              0.00000         *
 *                                                                                  *
 ************************************************************************************

 *********** Symmetrised Stress Tensor ***********
 *                                               *
 *          Cartesian components (GPa)           *
 * --------------------------------------------- *
 *             x             y             z     *
 *                                               *
 *  x    -81.459140      0.000000      0.000000  *
 *  y      0.000000    -79.100335      0.000000  *
 *  z      0.000000      0.000000    -79.849891  *
 *                                               *
 *  Pressure:   80.1365                          *
 *                                               *
 *************************************************
  
 +------------+-------------+-------------+-----------------+ <-- min LBFGS
 |    Step    |   lambda    |   F.delta'  |    enthalpy     | <-- min LBFGS
 +------------+-------------+-------------+-----------------+ <-- min LBFGS
 |  previous  |    0.000000 |    0.027180 |     -223.342434 | <-- min LBFGS
 | trial step |    1.000000 |   -0.123382 |     -223.329935 | <-- min LBFGS
 +------------+-------------+-------------+-----------------+ <-- min LBFGS
  

--------------------------------------------------------------------------------
 LBFGS: improving iteration         3 with line minimization (lambda=  0.180524)
--------------------------------------------------------------------------------

                           -------------------------------
                                      Unit Cell
                           -------------------------------
        Real Lattice(A)              Reciprocal Lattice(1/A)
     3.1491339    -0.0000000     0.0000000        1.995210605   0.000000000   0.000000000
    -0.0000000     2.0836609     0.0000000        0.000000000   3.015454857   0.000000000
     0.0000000     0.0000000     6.1597064        0.000000000   0.000000000   1.020046237

                       Lattice parameters(A)       Cell Angles
                    a =      3.149134          alpha =   90.000000
                    b =      2.083661          beta  =   90.000000
                    c =      6.159706          gamma =   90.000000

                Current cell volume =            40.418312 A**3

                           -------------------------------
                                     Cell Contents
                           -------------------------------

            xxxxxxxxxxxxxxxxxxxxxxxxxxxxxxxxxxxxxxxxxxxxxxxxxxxxxxxxxxxxxxxxx
            x  Element         Atom        Fractional coordinates of atoms  x
            x                 Number           u          v          w      x
            x---------------------------------------------------------------x
            x  H                 1         0.414314   0.381382   0.000000   x
            x  H                 2        -0.414314   0.381382   0.500000   x
            x  H                 3         0.414314  -0.381382   0.500000   x
            x  H                 4        -0.414314  -0.381382   0.000000   x
            x  H                 5         0.381329  -0.000000   0.250000   x
            x  H                 6        -0.381329   0.000000   0.750000   x
            x  H                 7         0.381329   0.000000   0.750000   x
            x  H                 8        -0.381329   0.000000   0.250000   x
            x  H                 9         0.914314   0.881382   0.500000   x
            x  H                10        -0.914314   0.881382   0.000000   x
            x  H                11         0.914314  -0.881382   0.000000   x
            x  H                12        -0.914314  -0.881382   0.500000   x
            x  H                13         0.881329   0.500000   0.750000   x
            x  H                14        -0.881329   0.500000   0.250000   x
            x  H                15         0.881329   0.500000   0.250000   x
            x  H                16        -0.881329   0.500000   0.750000   x
            xxxxxxxxxxxxxxxxxxxxxxxxxxxxxxxxxxxxxxxxxxxxxxxxxxxxxxxxxxxxxxxxx


------------------------------------------------------------------------ <-- SCF
SCF loop      Energy                           Energy gain       Timer   <-- SCF
                                               per atom          (sec)   <-- SCF
------------------------------------------------------------------------ <-- SCF
Initial  -2.43477280E+002                                         74.98  <-- SCF
      1  -2.43529325E+002                    3.25283397E-003      75.48  <-- SCF
      2  -2.43529581E+002                    1.59814173E-005      76.32  <-- SCF
      3  -2.43524920E+002                   -2.91269148E-004      77.19  <-- SCF
      4  -2.43524845E+002                   -4.69463774E-006      78.06  <-- SCF
      5  -2.43524844E+002                   -7.28006144E-008      78.92  <-- SCF
      6  -2.43524844E+002                   -3.71057877E-009      79.81  <-- SCF
      7  -2.43524844E+002                    1.80711388E-010      80.58  <-- SCF
      8  -2.43524844E+002                    1.70267546E-011      81.26  <-- SCF
      9  -2.43524844E+002                    9.87890129E-013      81.93  <-- SCF
     10  -2.43524844E+002                    3.47423134E-013      82.61  <-- SCF
------------------------------------------------------------------------ <-- SCF
 
Final energy =  -243.5248439972     eV
(energy not corrected for finite basis set)
 

 ******************************** Symmetrised Forces ********************************
 *                                                                                  *
 *                           Cartesian components (eV/A)                            *
 * -------------------------------------------------------------------------------- *
 *                         x                    y                    z              *
 *                                                                                  *
 * H               1      0.02100              0.00918              0.00000         *
 * H               2     -0.02100              0.00918              0.00000         *
 * H               3      0.02100             -0.00918              0.00000         *
 * H               4     -0.02100             -0.00918              0.00000         *
 * H               5      0.00889              0.00000              0.00000         *
 * H               6     -0.00889             -0.00000              0.00000         *
 * H               7      0.00889             -0.00000              0.00000         *
 * H               8     -0.00889              0.00000              0.00000         *
 * H               9      0.02100              0.00918              0.00000         *
 * H              10     -0.02100              0.00918              0.00000         *
 * H              11      0.02100             -0.00918              0.00000         *
 * H              12     -0.02100             -0.00918              0.00000         *
 * H              13      0.00889              0.00000              0.00000         *
 * H              14     -0.00889              0.00000             -0.00000         *
 * H              15      0.00889              0.00000             -0.00000         *
 * H              16     -0.00889             -0.00000             -0.00000         *
 *                                                                                  *
 ************************************************************************************

 *********** Symmetrised Stress Tensor ***********
 *                                               *
 *          Cartesian components (GPa)           *
 * --------------------------------------------- *
 *             x             y             z     *
 *                                               *
 *  x    -79.462782      0.000000      0.000000  *
 *  y      0.000000    -80.588026      0.000000  *
 *  z      0.000000      0.000000    -80.431127  *
 *                                               *
 *  Pressure:   80.1606                          *
 *                                               *
 *************************************************
  
 +------------+-------------+-------------+-----------------+ <-- min LBFGS
 |    Step    |   lambda    |   F.delta'  |    enthalpy     | <-- min LBFGS
 +------------+-------------+-------------+-----------------+ <-- min LBFGS
 |  previous  |    0.000000 |    0.027180 |     -223.342434 | <-- min LBFGS
 | trial step |    1.000000 |   -0.123382 |     -223.329935 | <-- min LBFGS
 |  line step |    0.180524 |    0.001394 |     -223.343120 | <-- min LBFGS
 +------------+-------------+-------------+-----------------+ <-- min LBFGS
  
 LBFGS: finished iteration     3 with enthalpy= -2.23343120E+002 eV
  
 +-----------+-----------------+-----------------+------------+-----+ <-- LBFGS
 | Parameter |      value      |    tolerance    |    units   | OK? | <-- LBFGS
 +-----------+-----------------+-----------------+------------+-----+ <-- LBFGS
 |  dE/ion   |   4.283097E-005 |   1.000000E-009 |         eV | No  | <-- LBFGS
 |  |F|max   |   2.291931E-002 |   1.000000E-005 |       eV/A | No  | <-- LBFGS
 |  |dR|max  |   1.562514E-003 |   1.000000E-005 |          A | No  | <-- LBFGS
 |   Smax    |   5.880261E-001 |   1.000000E-005 |        GPa | No  | <-- LBFGS
 +-----------+-----------------+-----------------+------------+-----+ <-- LBFGS
  

================================================================================
 Starting LBFGS iteration          4 ...
================================================================================
  
 +------------+-------------+-------------+-----------------+ <-- min LBFGS
 |    Step    |   lambda    |   F.delta'  |    enthalpy     | <-- min LBFGS
 +------------+-------------+-------------+-----------------+ <-- min LBFGS
 |  previous  |    0.000000 |    0.008806 |     -223.343120 | <-- min LBFGS
 +------------+-------------+-------------+-----------------+ <-- min LBFGS
  

--------------------------------------------------------------------------------
 LBFGS: starting iteration         4 with trial guess (lambda=  1.000000)
--------------------------------------------------------------------------------

                           -------------------------------
                                      Unit Cell
                           -------------------------------
        Real Lattice(A)              Reciprocal Lattice(1/A)
     3.1494276    -0.0000000     0.0000000        1.995024518   0.000000000   0.000000000
    -0.0000000     2.0855019     0.0000000        0.000000000   3.012792869   0.000000000
     0.0000000     0.0000000     6.1639216        0.000000000   0.000000000   1.019348667

                       Lattice parameters(A)       Cell Angles
                    a =      3.149428          alpha =   90.000000
                    b =      2.085502          beta  =   90.000000
                    c =      6.163922          gamma =   90.000000

                Current cell volume =            40.485484 A**3

                           -------------------------------
                                     Cell Contents
                           -------------------------------

            xxxxxxxxxxxxxxxxxxxxxxxxxxxxxxxxxxxxxxxxxxxxxxxxxxxxxxxxxxxxxxxxx
            x  Element         Atom        Fractional coordinates of atoms  x
            x                 Number           u          v          w      x
            x---------------------------------------------------------------x
            x  H                 1         0.414627   0.381252   0.000000   x
            x  H                 2        -0.414627   0.381252   0.500000   x
            x  H                 3         0.414627  -0.381252   0.500000   x
            x  H                 4        -0.414627  -0.381252   0.000000   x
            x  H                 5         0.381455  -0.000000   0.250000   x
            x  H                 6        -0.381455  -0.000000   0.750000   x
            x  H                 7         0.381455   0.000000   0.750000   x
            x  H                 8        -0.381455   0.000000   0.250000   x
            x  H                 9         0.914627   0.881252   0.500000   x
            x  H                10        -0.914627   0.881252   0.000000   x
            x  H                11         0.914627  -0.881252   0.000000   x
            x  H                12        -0.914627  -0.881252   0.500000   x
            x  H                13         0.881455   0.500000   0.750000   x
            x  H                14        -0.881455   0.500000   0.250000   x
            x  H                15         0.881455   0.500000   0.250000   x
            x  H                16        -0.881455   0.500000   0.750000   x
            xxxxxxxxxxxxxxxxxxxxxxxxxxxxxxxxxxxxxxxxxxxxxxxxxxxxxxxxxxxxxxxxx


------------------------------------------------------------------------ <-- SCF
[...]
            x---------------------------------------------------------------x
            x  H                 1         0.417433   0.377372   0.000000   x
            x  H                 2        -0.417433   0.377372   0.500000   x
            x  H                 3         0.417433  -0.377372   0.500000   x
            x  H                 4        -0.417433  -0.377372   0.000000   x
            x  H                 5         0.381066  -0.000000   0.250000   x
            x  H                 6        -0.381066   0.000000   0.750000   x
            x  H                 7         0.381066  -0.000000   0.750000   x
            x  H                 8        -0.381066   0.000000   0.250000   x
            x  H                 9         0.917433   0.877372   0.500000   x
            x  H                10        -0.917433   0.877372   0.000000   x
            x  H                11         0.917433  -0.877372   0.000000   x
            x  H                12        -0.917433  -0.877372   0.500000   x
            x  H                13         0.881066   0.500000   0.750000   x
            x  H                14        -0.881066   0.500000   0.250000   x
            x  H                15         0.881066   0.500000   0.250000   x
            x  H                16        -0.881066   0.500000   0.750000   x
            xxxxxxxxxxxxxxxxxxxxxxxxxxxxxxxxxxxxxxxxxxxxxxxxxxxxxxxxxxxxxxxxx


------------------------------------------------------------------------ <-- SCF
SCF loop      Energy                           Energy gain       Timer   <-- SCF
                                               per atom          (sec)   <-- SCF
------------------------------------------------------------------------ <-- SCF
Initial  -2.43582077E+002                                        220.79  <-- SCF
      1  -2.43582077E+002                    3.08149214E-013     221.09  <-- SCF
      2  -2.43582077E+002                    0.00000000E+000     221.77  <-- SCF
      3  -2.43582077E+002                    1.26884971E-013     222.45  <-- SCF
      4  -2.43582077E+002                   -2.23559234E-013     223.14  <-- SCF
------------------------------------------------------------------------ <-- SCF
 
Final energy =  -243.5820772333     eV
(energy not corrected for finite basis set)
 

 ******************************** Symmetrised Forces ********************************
 *                                                                                  *
 *                           Cartesian components (eV/A)                            *
 * -------------------------------------------------------------------------------- *
 *                         x                    y                    z              *
 *                                                                                  *
 * H               1      0.00000              0.00000             -0.00000         *
 * H               2     -0.00000              0.00000             -0.00000         *
 * H               3      0.00000             -0.00000             -0.00000         *
 * H               4     -0.00000             -0.00000             -0.00000         *
 * H               5     -0.00000             -0.00000              0.00000         *
 * H               6      0.00000              0.00000              0.00000         *
 * H               7     -0.00000              0.00000              0.00000         *
 * H               8      0.00000             -0.00000              0.00000         *
 * H               9      0.00000              0.00000             -0.00000         *
 * H              10     -0.00000              0.00000             -0.00000         *
 * H              11      0.00000             -0.00000             -0.00000         *
 * H              12     -0.00000             -0.00000             -0.00000         *
 * H              13     -0.00000              0.00000             -0.00000         *
 * H              14      0.00000              0.00000              0.00000         *
 * H              15     -0.00000              0.00000              0.00000         *
 * H              16      0.00000             -0.00000             -0.00000         *
 *                                                                                  *
 ************************************************************************************

 *********** Symmetrised Stress Tensor ***********
 *                                               *
 *          Cartesian components (GPa)           *
 * --------------------------------------------- *
 *             x             y             z     *
 *                                               *
 *  x    -80.000001     -0.000000      0.000000  *
 *  y     -0.000000    -79.999996      0.000000  *
 *  z      0.000000      0.000000    -80.000005  *
 *                                               *
 *  Pressure:   80.0000                          *
 *                                               *
 *************************************************
  
 +------------+-------------+-------------+-----------------+ <-- min LBFGS
 |    Step    |   lambda    |   F.delta'  |    enthalpy     | <-- min LBFGS
 +------------+-------------+-------------+-----------------+ <-- min LBFGS
 |  previous  |    0.000000 |  1.213E-007 |     -223.344264 | <-- min LBFGS
 | trial step |    1.000000 | -2.223E-008 |     -223.344264 | <-- min LBFGS
 +------------+-------------+-------------+-----------------+ <-- min LBFGS
  
 LBFGS: finished iteration    15 with enthalpy= -2.23344264E+002 eV
  
 +-----------+-----------------+-----------------+------------+-----+ <-- LBFGS
 | Parameter |      value      |    tolerance    |    units   | OK? | <-- LBFGS
 +-----------+-----------------+-----------------+------------+-----+ <-- LBFGS
 |  dE/ion   |   2.477278E-013 |   1.000000E-009 |         eV | Yes | <-- LBFGS
 |  |F|max   |   1.665381E-007 |   1.000000E-005 |       eV/A | Yes | <-- LBFGS
 |  |dR|max  |   8.185671E-008 |   1.000000E-005 |          A | Yes | <-- LBFGS
 |   Smax    |   4.550149E-006 |   1.000000E-005 |        GPa | Yes | <-- LBFGS
 +-----------+-----------------+-----------------+------------+-----+ <-- LBFGS
  
 LBFGS: Geometry optimization completed successfully.

================================================================================
 LBFGS: Final Configuration:
================================================================================

                           -------------------------------
                                      Unit Cell
                           -------------------------------
        Real Lattice(A)              Reciprocal Lattice(1/A)
     3.1365427     0.0000000     0.0000000        2.003220052  -0.000000000   0.000000000
     0.0000000     2.0999753     0.0000000       -0.000000000   2.992028217   0.000000000
     0.0000000     0.0000000     6.1534553        0.000000000   0.000000000   1.021082471

                       Lattice parameters(A)       Cell Angles
                    a =      3.136543          alpha =   90.000000
                    b =      2.099975          beta  =   90.000000
                    c =      6.153455          gamma =   90.000000

                Current cell volume =            40.530731 A**3

                           -------------------------------
                                     Cell Contents
                           -------------------------------

            xxxxxxxxxxxxxxxxxxxxxxxxxxxxxxxxxxxxxxxxxxxxxxxxxxxxxxxxxxxxxxxxx
            x  Element         Atom        Fractional coordinates of atoms  x
            x                 Number           u          v          w      x
            x---------------------------------------------------------------x
            x  H                 1         0.417433   0.377372   0.000000   x
            x  H                 2        -0.417433   0.377372   0.500000   x
            x  H                 3         0.417433  -0.377372   0.500000   x
            x  H                 4        -0.417433  -0.377372   0.000000   x
            x  H                 5         0.381066  -0.000000   0.250000   x
            x  H                 6        -0.381066   0.000000   0.750000   x
            x  H                 7         0.381066  -0.000000   0.750000   x
            x  H                 8        -0.381066   0.000000   0.250000   x
            x  H                 9         0.917433   0.877372   0.500000   x
            x  H                10        -0.917433   0.877372   0.000000   x
            x  H                11         0.917433  -0.877372   0.000000   x
            x  H                12        -0.917433  -0.877372   0.500000   x
            x  H                13         0.881066   0.500000   0.750000   x
            x  H                14        -0.881066   0.500000   0.250000   x
            x  H                15         0.881066   0.500000   0.250000   x
            x  H                16        -0.881066   0.500000   0.750000   x
            xxxxxxxxxxxxxxxxxxxxxxxxxxxxxxxxxxxxxxxxxxxxxxxxxxxxxxxxxxxxxxxxx


 LBFGS: Final Enthalpy     = -2.23344264E+002 eV
 LBFGS: Final <frequency>  =     433.35139 cm-1
 LBFGS: Final bulk modulus =     210.69696 GPa

 ******************************** Symmetrised Forces ********************************
 *                                                                                  *
 *                           Cartesian components (eV/A)                            *
 * -------------------------------------------------------------------------------- *
 *                         x                    y                    z              *
 *                                                                                  *
 * H               1      0.00000              0.00000             -0.00000         *
 * H               2     -0.00000              0.00000             -0.00000         *
 * H               3      0.00000             -0.00000             -0.00000         *
 * H               4     -0.00000             -0.00000             -0.00000         *
 * H               5     -0.00000             -0.00000              0.00000         *
 * H               6      0.00000              0.00000              0.00000         *
 * H               7     -0.00000              0.00000              0.00000         *
 * H               8      0.00000             -0.00000              0.00000         *
 * H               9      0.00000              0.00000             -0.00000         *
 * H              10     -0.00000              0.00000             -0.00000         *
 * H              11      0.00000             -0.00000             -0.00000         *
 * H              12     -0.00000             -0.00000             -0.00000         *
 * H              13     -0.00000              0.00000             -0.00000         *
 * H              14      0.00000              0.00000              0.00000         *
 * H              15     -0.00000              0.00000              0.00000         *
 * H              16      0.00000             -0.00000             -0.00000         *
 *                                                                                  *
 ************************************************************************************

 *********** Symmetrised Stress Tensor ***********
 *                                               *
 *          Cartesian components (GPa)           *
 * --------------------------------------------- *
 *             x             y             z     *
 *                                               *
 *  x    -80.000001     -0.000000      0.000000  *
 *  y     -0.000000    -79.999996      0.000000  *
 *  z      0.000000      0.000000    -80.000005  *
 *                                               *
 *  Pressure:   80.0000                          *
 *                                               *
 *************************************************

 Pseudo atomic calculation performed for H 1s1

 Converged in 24 iterations to a total energy of -12.4843 eV

Charge spilling parameter for spin component 1 = 0.57%

            Orbital Populations       
     Ion    Atom   Orbital             Charge
  -------------------------------------------
      H     1      S                    1.005
      H     2      S                    1.002
      H     3      S                    1.002
      H     4      S                    1.005
      H     5      S                    0.997
      H     6      S                    0.997
      H     7      S                    0.996
      H     8      S                    0.996
      H     9      S                    1.005
      H    10      S                    1.002
      H    11      S                    1.002
      H    12      S                    1.005
      H    13      S                    0.997
      H    14      S                    0.997
      H    15      S                    0.996
      H    16      S                    0.996
  -------------------------------------------
                           Total:      16.000
  -------------------------------------------

     Atomic Populations (Mulliken)
     -----------------------------
Species          Ion     s      p      d      f     Total  Charge (e)
=====================================================================
  H               1     1.00   0.00   0.00   0.00   1.00    -0.00
  H               2     1.00   0.00   0.00   0.00   1.00    -0.00
  H               3     1.00   0.00   0.00   0.00   1.00    -0.00
  H               4     1.00   0.00   0.00   0.00   1.00    -0.00
  H               5     1.00   0.00   0.00   0.00   1.00     0.00
  H               6     1.00   0.00   0.00   0.00   1.00     0.00
  H               7     1.00   0.00   0.00   0.00   1.00     0.00
  H               8     1.00   0.00   0.00   0.00   1.00     0.00
  H               9     1.00   0.00   0.00   0.00   1.00    -0.00
  H              10     1.00   0.00   0.00   0.00   1.00    -0.00
  H              11     1.00   0.00   0.00   0.00   1.00    -0.00
  H              12     1.00   0.00   0.00   0.00   1.00    -0.00
  H              13     1.00   0.00   0.00   0.00   1.00     0.00
  H              14     1.00   0.00   0.00   0.00   1.00     0.00
  H              15     1.00   0.00   0.00   0.00   1.00     0.00
  H              16     1.00   0.00   0.00   0.00   1.00     0.00
=====================================================================

                 Bond                   Population      Length (A)
======================================================================
              H 2  -- H 3                    1.43        0.73043
              H 1  -- H 4                    1.43        0.73043
              H 10 -- H 11                   1.43        0.73043
              H 9  -- H 12                   1.43        0.73043
              H 14 -- H 15                   1.28        0.74608
              H 13 -- H 16                   1.28        0.74608
              H 6  -- H 7                    1.28        0.74608
              H 5  -- H 8                    1.28        0.74608
              H 8  -- H 15                  -0.11        1.33359
              H 7  -- H 16                  -0.11        1.33359
              H 6  -- H 13                  -0.11        1.33359
              H 5  -- H 14                  -0.11        1.33359
              H 4  -- H 11                  -0.32        1.48514
              H 3  -- H 12                  -0.32        1.48514
              H 2  -- H 9                   -0.32        1.48514
              H 1  -- H 10                  -0.32        1.48514
              H 4  -- H 10                  -0.42        1.65700
              H 3  -- H 9                   -0.42        1.65700
              H 2  -- H 12                  -0.42        1.65700
              H 1  -- H 11                  -0.42        1.65700
              H 10 -- H 14                  -0.16        1.73424
              H 9  -- H 13                  -0.16        1.73424
              H 12 -- H 16                  -0.16        1.73424
              H 12 -- H 14                  -0.16        1.73424
              H 11 -- H 15                  -0.16        1.73424
              H 11 -- H 13                  -0.16        1.73424
              H 10 -- H 16                  -0.16        1.73424
              H 9  -- H 15                  -0.16        1.73424
              H 4  -- H 8                   -0.16        1.73424
              H 4  -- H 6                   -0.16        1.73424
              H 3  -- H 7                   -0.16        1.73424
              H 3  -- H 5                   -0.16        1.73424
              H 2  -- H 8                   -0.16        1.73424
              H 2  -- H 6                   -0.16        1.73424
              H 1  -- H 7                   -0.16        1.73424
              H 1  -- H 5                   -0.16        1.73424
              H 8  -- H 9                   -0.02        1.81919
              H 7  -- H 10                  -0.02        1.81919
              H 6  -- H 11                  -0.02        1.81919
              H 5  -- H 12                  -0.02        1.81919
              H 8  -- H 11                  -0.02        1.81919
              H 7  -- H 12                  -0.02        1.81919
              H 6  -- H 9                   -0.02        1.81919
              H 5  -- H 10                  -0.02        1.81919
              H 4  -- H 15                  -0.02        1.81919
              H 2  -- H 13                  -0.02        1.81919
              H 3  -- H 16                  -0.02        1.81919
              H 1  -- H 14                  -0.02        1.81919
              H 4  -- H 13                  -0.02        1.81919
              H 3  -- H 14                  -0.02        1.81919
              H 2  -- H 15                  -0.02        1.81919
              H 1  -- H 16                  -0.02        1.81919
              H 12 -- H 13                  -0.18        1.84229
              H 10 -- H 15                  -0.18        1.84229
              H 9  -- H 16                  -0.18        1.84229
              H 11 -- H 14                  -0.18        1.84229
              H 10 -- H 13                  -0.18        1.84229
              H 9  -- H 14                  -0.18        1.84229
              H 1  -- H 8                   -0.18        1.84229
              H 12 -- H 15                  -0.18        1.84229
              H 11 -- H 16                  -0.18        1.84229
              H 4  -- H 7                   -0.18        1.84229
              H 4  -- H 5                   -0.18        1.84229
              H 3  -- H 8                   -0.18        1.84229
              H 3  -- H 6                   -0.18        1.84229
              H 2  -- H 7                   -0.18        1.84229
              H 2  -- H 5                   -0.18        1.84229
              H 1  -- H 6                   -0.18        1.84229
              H 8  -- H 14                  -0.51        1.88731
              H 7  -- H 13                  -0.51        1.88731
              H 6  -- H 16                  -0.51        1.88731
              H 5  -- H 15                  -0.51        1.88731
======================================================================


Writing analysis data to Hibam.castep_bin

Writing model to Hibam.check
 
 A BibTeX formatted list of references used in this run has been written to 
 Hibam.bib
 
Initialisation time =      2.90 s
Calculation time    =    223.98 s
Finalisation time   =      1.23 s
Total time          =    228.11 s
Peak Memory Use     = 558516 kB
  
Overall parallel efficiency rating: Very good (81%)                             
  
Data was distributed by:-
k-point (32-way); efficiency rating: Very good (82%)                            
  
Parallel notes:
1) Calculation only took 226.9 s, so efficiency estimates may be inaccurate.    
