 +-------------------------------------------------+
 |                                                 |
 |      CCC   AA    SSS  TTTTT  EEEEE  PPPP        |
 |     C     A  A  S       T    E      P   P       |
 |     C     AAAA   SS     T    EEE    PPPP        |
 |     C     A  A     S    T    E      P           |
 |      CCC  A  A  SSS     T    EEEEE  P           |
 |                                                 |
 +-------------------------------------------------+
 |                                                 |
 | Welcome to Academic Release CASTEP version 18.1 |          
 | Ab Initio Total Energy Program                  |
 |                                                 |
 | Authors:                                        |
 | M. Segall, M. Probert, C. Pickard, P. Hasnip,   |
 | S. Clark, K. Refson, J. R. Yates, M. Payne      |
 |                                                 |
 | Contributors:                                   |
 | P. Lindan, P. Haynes, J. White, V. Milman,      |
 | N. Govind, M. Gibson, P. Tulip, V. Cocula,      |
 | B. Montanari, D. Quigley, M. Glover,            |
 | L. Bernasconi, A. Perlov, M. Plummer,           |
 | E. McNellis, J. Meyer, J. Gale, D. Jochym       |
 | J. Aarons, B. Walker, R. Gillen, D. Jones       |
 | T. Green, I. J. Bush, C. J. Armstrong,          |
 | E. J. Higgins, E. L. Brown, M. S. McFly,        |
 | J. Wilkins, B-C. Shih, P. J. P. Byrne           |
 |                                                 |
 | Copyright (c) 2000 - 2017                       |
 |                                                 |
 |     Distributed under the terms of an           |
 |     Agreement between the United Kingdom        |
 |     Car-Parrinello (UKCP) Consortium,           |
 |     Daresbury Laboratory and Accelrys, Inc.     |
 |                                                 |
 | Please cite                                     |
 |                                                 |
 |     "First principles methods using CASTEP"     |
 |                                                 |
 |         Zeitschrift fuer Kristallographie       |
 |           220(5-6) pp. 567-570 (2005)           |
 |                                                 |
 | S. J. Clark, M. D. Segall, C. J. Pickard,       |
 | P. J. Hasnip, M. J. Probert, K. Refson,         |
 | M. C. Payne                                     |
 |                                                 |
 |       in all publications arising from          |
 |              your use of CASTEP                 |
 |                                                 |
 +-------------------------------------------------+


 Compiled for linux_x86_64_gfortran4.8 on Thu, 19 Jul 2018 15:42:32 +0100
 from code version 70483bd0ad64+  Sun, 10 Dec 2017 12:18:29 +0000
 Compiler: GNU Fortran 4.8.5; Optimisation: fast
 MATHLIBS: Intel MKL(2018.0.0) (LAPACK version 3.7.0)
 FFT Lib : mkl
 Fundamental constants values: CODATA 2014

 Run started: Wed, 26 Aug 2020 13:48:39 +0100

 Atomic calculation performed for H: 1s1

 Converged in 41 iterations to an ae energy of -12.488 eV

   ============================================================                
   | Pseudopotential Report - Date of generation 26-08-2020   |                
   ------------------------------------------------------------                
   | Element: H Ionic charge:  1.00 Level of theory: PBE      |                
   | Atomic Solver: Koelling-Harmon                           |                
   |                                                          |                
   |               Reference Electronic Structure             |                
   |         Orbital         Occupation         Energy        |                
   |            1s              1.000           -0.239        |                
   |                                                          |                
   |                 Pseudopotential Definition               |                
   |        Beta     l      e      Rc     scheme   norm       |                
   |         loc     0   -0.239   0.702     qc      1         |                
   |                                                          |                
   | No charge augmentation                                   |                
   | No partial core correction                               |                
   ------------------------------------------------------------                
   | "0|0.7|2|6|8|10L(qc=10)"                                 |                
   ------------------------------------------------------------                
   |      Author: Chris J. Pickard, Cambridge University      |                
   ============================================================                

 Pseudo atomic calculation performed for H 1s1

 Converged in 24 iterations to a total energy of -12.4843 eV

 Calculation parallelised over 32 processes.
 Data is distributed by k-point(32-way)

 ************************************ Title ************************************
 

 ***************************** General Parameters ******************************
  
 output verbosity                               : normal  (1)
 write checkpoint data to                       : Hibam.check
 type of calculation                            : geometry optimization
 stress calculation                             : on
 density difference calculation                 : off
 electron localisation func (ELF) calculation   : off
 Hirshfeld analysis                             : off
 unlimited duration calculation
 timing information                             : on
 memory usage estimate                          : on
 write extra output files                       : on
 write final potential to formatted file        : off
 write final density to formatted file          : off
 write structure in CELL formatted file         : on
 write BibTeX reference list                    : on
 write OTFG pseudopotential files               : on
 write electrostatic potential file             : on
 write bands file                               : on
 checkpoint writing                             : both castep_bin and check files
  
 output         length unit                     : A
 output           mass unit                     : amu
 output           time unit                     : ps
 output         charge unit                     : e
 output           spin unit                     : hbar/2
 output         energy unit                     : eV
 output          force unit                     : eV/A
 output       velocity unit                     : A/ps
 output       pressure unit                     : GPa
 output     inv_length unit                     : 1/A
 output      frequency unit                     : cm-1
 output force constant unit                     : eV/A**2
 output         volume unit                     : A**3
 output   IR intensity unit                     : (D/A)**2/amu
 output         dipole unit                     : D
 output         efield unit                     : eV/A/e
 output        entropy unit                     : J/mol/K
  
 wavefunctions paging                           : none
 random number generator seed                   : randomised (134839588)
 data distribution                              : optimal for this architecture
 optimization strategy                          : maximize speed(+++)

 *********************** Exchange-Correlation Parameters ***********************
  
 using functional                               : Perdew Burke Ernzerhof
 relativistic treatment                         : Koelling-Harmon
 DFT+D: Semi-empirical dispersion correction    : off

 ************************* Pseudopotential Parameters **************************
  
 pseudopotential representation                 : reciprocal space
 <beta|phi> representation                      : reciprocal space
 spin-orbit coupling                            : off

 **************************** Basis Set Parameters *****************************
  
 plane wave basis set cut-off                   :  1200.0000   eV
 size of standard grid                          :     2.0000
 size of   fine   gmax                          :    35.4943   1/A
 finite basis set correction                    : automatic
 number of sample energies                      :          3
           sample  spacing                      :     5.0000   eV

 **************************** Electronic Parameters ****************************
  
 number of  electrons                           :  16.00    
 net charge of system                           :  0.000    
 treating system as non-spin-polarized
 number of bands                                :          8

 ********************* Electronic Minimization Parameters **********************
  
 Method: Treating system as non-metallic,
         and number of  SD  steps               :          1
         and number of  CG  steps               :          4
  
 total energy / atom convergence tol.           : 0.1000E-10   eV
 eigen-energy convergence tolerance             : 0.2000E-10   eV
 max force / atom convergence tol.              : ignored
 convergence tolerance window                   :          3   cycles
 max. number of SCF cycles                      :        100
 periodic dipole correction                     : NONE

 ************************** Density Mixing Parameters **************************
  
 density-mixing scheme                          : Broyden
 max. length of mixing history                  :         20
 charge density mixing amplitude                : 0.8000    
 cut-off energy for mixing                      :  1200.       eV

 *********************** Population Analysis Parameters ************************
  
 Population analysis with cutoff                :  3.000       A
 Population analysis output                     : summary and pdos components

 ********************** Geometry Optimization Parameters ***********************
  
 optimization method                            : LBFGS
 max. no. of LBFGS updates                      : unbounded
 variable cell method                           : fixed basis quality
 max. number of steps                           :         60
 estimated bulk modulus                         :  500.0       GPa
 estimated <frequency>                          :  1668.       cm-1
 geom line minimiser                            : on
 with line minimiser tolerance                  :     0.4000
 total energy convergence tolerance             : 0.1000E-08   eV/atom
        max ionic |force| tolerance             : 0.1000E-04   eV/A
 max ionic |displacement| tolerance             : 0.1000E-04   A
   max |stress component| tolerance             : 0.1000E-04   GPa
 convergence tolerance window                   :          2   steps
 backup results every                           :      14400   seconds
 write geom trajectory file                     : on

 *******************************************************************************
  

                           -------------------------------
                                      Unit Cell
                           -------------------------------
        Real Lattice(A)                      Reciprocal Lattice(1/A)
     2.7958941     0.0000000     0.0000000        2.247290174  -0.000000000   0.000000000
     0.0000000     2.7827742     0.0000000       -0.000000000   2.257885412   0.000000000
     0.0000000     0.0000000     5.5183352        0.000000000   0.000000000   1.138601604

                       Lattice parameters(A)       Cell Angles
                    a =      2.795894          alpha =   90.000000
                    b =      2.782774          beta  =   90.000000
                    c =      5.518335          gamma =   90.000000

                       Current cell volume =            42.934535       A**3
                                   density =             0.375619   AMU/A**3
                                           =             0.623731     g/cm^3

                           -------------------------------
                                     Cell Contents
                           -------------------------------
                         Total number of ions in cell =   16
                      Total number of species in cell =    1
                        Max number of any one species =   16

            xxxxxxxxxxxxxxxxxxxxxxxxxxxxxxxxxxxxxxxxxxxxxxxxxxxxxxxxxxxx
            x  Element    Atom        Fractional coordinates of atoms  x
            x            Number           u          v          w      x
            x----------------------------------------------------------x
            x  H            1         0.425248   0.391980   0.000000   x 
            x  H            2        -0.425248   0.391980   0.500000   x 
            x  H            3         0.425248  -0.391980   0.500000   x 
            x  H            4        -0.425248  -0.391980   0.000000   x 
            x  H            5         0.369476   0.000000   0.250000   x 
            x  H            6        -0.369476   0.000000   0.750000   x 
            x  H            7         0.369476  -0.000000   0.750000   x 
            x  H            8        -0.369476   0.000000   0.250000   x 
            x  H            9         0.925248   0.891980   0.500000   x 
            x  H           10        -0.925248   0.891980   0.000000   x 
            x  H           11         0.925248  -0.891980   0.000000   x 
            x  H           12        -0.925248  -0.891980   0.500000   x 
            x  H           13         0.869476   0.500000   0.750000   x 
            x  H           14        -0.869476   0.500000   0.250000   x 
            x  H           15         0.869476   0.500000   0.250000   x 
            x  H           16        -0.869476   0.500000   0.750000   x 
            xxxxxxxxxxxxxxxxxxxxxxxxxxxxxxxxxxxxxxxxxxxxxxxxxxxxxxxxxxxx


                         No user defined ionic velocities

                           -------------------------------
                                   Details of Species
                           -------------------------------

                               Mass of species in AMU
                                    H    1.0079400

                          Electric Quadrupole Moment (Barn)
                                    H    0.0028600 Isotope  2

                          Files used for pseudopotentials:
                                    H 0|0.7|2|6|8|10L(qc=10)

                           -------------------------------
                              k-Points For BZ Sampling
                           -------------------------------
                       MP grid size for SCF calculation is  8  8  8
                            with an offset of   0.000  0.000  0.000
                       Number of kpoints used =            64

                           -------------------------------
                               Symmetry and Constraints
                           -------------------------------

                      Cell is a supercell containing 2 primitive cells
                      Maximum deviation from symmetry = 0.106607E-32     ANG

                      Number of symmetry operations   =          16
                      Number of ionic constraints     =           3
                      Point group of crystal =     8: D2h, mmm, 2/m 2/m 2/m
                      Space group of crystal =    72: Ibam, -I 2 2c

             Set iprint > 1 for details on symmetry rotations/translations

                         Centre of mass is constrained
             Set iprint > 1 for details of linear ionic constraints

                         Number of cell constraints= 3
                         Cell constraints are:  1 2 3 0 0 0

                         External pressure/stress (GPa)
                         60.00000   0.00000   0.00000
                                   60.00000   0.00000
                                             60.00000
  
+---------------- MEMORY AND SCRATCH DISK ESTIMATES PER PROCESS --------------+
|                                                     Memory          Disk    |
| Baseline code, static data and system overhead      479.0 MB         0.0 MB |
| BLAS internal memory storage                          0.0 MB         0.0 MB |
| Model and support data                               30.9 MB         0.0 MB |
| Electronic energy minimisation requirements          17.8 MB         0.0 MB |
| Force calculation requirements                        7.5 MB         0.0 MB |
| Stress calculation requirements                       9.5 MB         0.0 MB |
|                                               ----------------------------- |
| Approx. total storage required per process          527.7 MB         0.0 MB |
|                                                                             |
| Requirements will fluctuate during execution and may exceed these estimates |
+-----------------------------------------------------------------------------+
Calculating finite basis set correction with  3 cut-off energies.
Calculating total energy with cut-off of 1190.000 eV.
------------------------------------------------------------------------ <-- SCF
SCF loop      Energy                           Energy gain       Timer   <-- SCF
                                               per atom          (sec)   <-- SCF
------------------------------------------------------------------------ <-- SCF
Initial   4.07445073E+002                                          4.00  <-- SCF
      1  -1.99056528E+002                    3.79063500E+001       4.67  <-- SCF
      2  -2.45704398E+002                    2.91549189E+000       5.09  <-- SCF
      3  -2.46543846E+002                    5.24654766E-002       5.47  <-- SCF
      4  -2.45075170E+002                   -9.17922092E-002       6.34  <-- SCF
      5  -2.45024146E+002                   -3.18904063E-003       7.22  <-- SCF
      6  -2.45026079E+002                    1.20833007E-004       8.10  <-- SCF
      7  -2.45026292E+002                    1.32896156E-005       8.99  <-- SCF
      8  -2.45026292E+002                    4.29719094E-008       9.89  <-- SCF
      9  -2.45026292E+002                    3.04300975E-009      10.78  <-- SCF
     10  -2.45026292E+002                    3.04040558E-011      11.50  <-- SCF
     11  -2.45026292E+002                    1.52866179E-012      12.22  <-- SCF
     12  -2.45026292E+002                   -2.38664588E-013      12.94  <-- SCF
------------------------------------------------------------------------ <-- SCF
 
Final energy =  -245.0262922412     eV
(energy not corrected for finite basis set)
 
Calculating total energy with cut-off of 1195.000 eV.
------------------------------------------------------------------------ <-- SCF
SCF loop      Energy                           Energy gain       Timer   <-- SCF
                                               per atom          (sec)   <-- SCF
------------------------------------------------------------------------ <-- SCF
Initial  -2.45026292E+002                                         13.87  <-- SCF
      1  -2.45027471E+002                    7.36624152E-005      14.37  <-- SCF
      2  -2.45027471E+002                    8.72424805E-011      15.25  <-- SCF
      3  -2.45027471E+002                    3.43617884E-008      16.16  <-- SCF
      4  -2.45027471E+002                    1.98401872E-009      17.06  <-- SCF
      5  -2.45027471E+002                    2.12290640E-011      17.82  <-- SCF
      6  -2.45027471E+002                    7.43183399E-013      18.55  <-- SCF
      7  -2.45027471E+002                    5.74003439E-014      19.28  <-- SCF
------------------------------------------------------------------------ <-- SCF
 
Final energy =  -245.0274714232     eV
(energy not corrected for finite basis set)
 
Calculating total energy with cut-off of 1200.000 eV.
------------------------------------------------------------------------ <-- SCF
SCF loop      Energy                           Energy gain       Timer   <-- SCF
                                               per atom          (sec)   <-- SCF
------------------------------------------------------------------------ <-- SCF
Initial  -2.45027471E+002                                         20.04  <-- SCF
      1  -2.45028604E+002                    7.07958668E-005      20.53  <-- SCF
      2  -2.45028604E+002                    7.85931550E-011      21.40  <-- SCF
      3  -2.45028605E+002                    3.14939071E-008      22.29  <-- SCF
      4  -2.45028605E+002                    1.81871177E-009      23.18  <-- SCF
      5  -2.45028605E+002                    1.90085770E-011      23.94  <-- SCF
      6  -2.45028605E+002                    8.30794451E-013      24.68  <-- SCF
      7  -2.45028605E+002                    1.05737476E-013      25.40  <-- SCF
------------------------------------------------------------------------ <-- SCF
 
Final energy =  -245.0286046916     eV
(energy not corrected for finite basis set)
 
 For future reference: finite basis dEtot/dlog(Ecut) =      -0.276972eV
 Total energy corrected for finite basis set =    -245.028608 eV
 
+---------------- MEMORY AND SCRATCH DISK ESTIMATES PER PROCESS --------------+
|                                                     Memory          Disk    |
| Model and support data                               38.9 MB         0.0 MB |
| Electronic energy minimisation requirements          17.8 MB         0.0 MB |
| Geometry minimisation requirements                   20.0 MB         0.0 MB |
|                                               ----------------------------- |
| Approx. total storage required per process           76.7 MB         0.0 MB |
|                                                                             |
| Requirements will fluctuate during execution and may exceed these estimates |
+-----------------------------------------------------------------------------+
 

 ******************************** Symmetrised Forces ********************************
 *                                                                                  *
 *                           Cartesian components (eV/A)                            *
 * -------------------------------------------------------------------------------- *
 *                         x                    y                    z              *
 *                                                                                  *
 * H               1      0.00000             -0.00000             -0.00000         *
 * H               2     -0.00000             -0.00000             -0.00000         *
 * H               3      0.00000              0.00000             -0.00000         *
 * H               4     -0.00000              0.00000             -0.00000         *
 * H               5     -0.00000              0.00000              0.00000         *
 * H               6      0.00000              0.00000              0.00000         *
 * H               7     -0.00000              0.00000              0.00000         *
 * H               8      0.00000              0.00000              0.00000         *
 * H               9      0.00000             -0.00000             -0.00000         *
 * H              10     -0.00000             -0.00000             -0.00000         *
 * H              11      0.00000              0.00000             -0.00000         *
 * H              12     -0.00000              0.00000             -0.00000         *
 * H              13     -0.00000              0.00000             -0.00000         *
 * H              14      0.00000              0.00000             -0.00000         *
 * H              15     -0.00000              0.00000             -0.00000         *
 * H              16      0.00000              0.00000             -0.00000         *
 *                                                                                  *
 ************************************************************************************

 *********** Symmetrised Stress Tensor ***********
 *                                               *
 *          Cartesian components (GPa)           *
 * --------------------------------------------- *
 *             x             y             z     *
 *                                               *
 *  x    -70.017919     -0.000000      0.000000  *
 *  y     -0.000000    -70.017916      0.000000  *
 *  z      0.000000      0.000000    -70.017917  *
 *                                               *
 *  Pressure:   70.0179                          *
 *                                               *
 *************************************************
 LBFGS: finished iteration     0 with enthalpy= -2.28950031E+002 eV
  
 +-----------+-----------------+-----------------+------------+-----+ <-- LBFGS
 | Parameter |      value      |    tolerance    |    units   | OK? | <-- LBFGS
 +-----------+-----------------+-----------------+------------+-----+ <-- LBFGS
 |  dE/ion   |   0.000000E+000 |   1.000000E-009 |         eV | No  | <-- LBFGS
 |  |F|max   |   1.723642E-007 |   1.000000E-005 |       eV/A | Yes | <-- LBFGS
 |  |dR|max  |   0.000000E+000 |   1.000000E-005 |          A | No  | <-- LBFGS
 |   Smax    |   1.001792E+001 |   1.000000E-005 |        GPa | No  | <-- LBFGS
 +-----------+-----------------+-----------------+------------+-----+ <-- LBFGS
  

================================================================================
 Starting LBFGS iteration          1 ...
================================================================================
  
 +------------+-------------+-------------+-----------------+ <-- min LBFGS
 |    Step    |   lambda    |   F.delta'  |    enthalpy     | <-- min LBFGS
 +------------+-------------+-------------+-----------------+ <-- min LBFGS
 |  previous  |    0.000000 |    0.170877 |     -228.950031 | <-- min LBFGS
 +------------+-------------+-------------+-----------------+ <-- min LBFGS
  

--------------------------------------------------------------------------------
 LBFGS: starting iteration         1 with trial guess (lambda=  1.000000)
--------------------------------------------------------------------------------
 
+---------------- MEMORY AND SCRATCH DISK ESTIMATES PER PROCESS --------------+
|                                                     Memory          Disk    |
| Model and support data                               39.0 MB         0.0 MB |
| Electronic energy minimisation requirements          18.1 MB         0.0 MB |
| Geometry minimisation requirements                   20.2 MB         0.0 MB |
|                                               ----------------------------- |
| Approx. total storage required per process           77.3 MB         0.0 MB |
|                                                                             |
| Requirements will fluctuate during execution and may exceed these estimates |
+-----------------------------------------------------------------------------+
 

                           -------------------------------
                                      Unit Cell
                           -------------------------------
        Real Lattice(A)              Reciprocal Lattice(1/A)
     2.8145668     0.0000000     0.0000000        2.232380967  -0.000000000   0.000000000
     0.0000000     2.8013593     0.0000000       -0.000000000   2.242905916   0.000000000
     0.0000000     0.0000000     5.5551900        0.000000000   0.000000000   1.131047776

                       Lattice parameters(A)       Cell Angles
                    a =      2.814567          alpha =   90.000000
                    b =      2.801359          beta  =   90.000000
                    c =      5.555190          gamma =   90.000000

                Current cell volume =            43.800522 A**3

                           -------------------------------
                                     Cell Contents
                           -------------------------------

            xxxxxxxxxxxxxxxxxxxxxxxxxxxxxxxxxxxxxxxxxxxxxxxxxxxxxxxxxxxxxxxxx
            x  Element         Atom        Fractional coordinates of atoms  x
            x                 Number           u          v          w      x
            x---------------------------------------------------------------x
            x  H                 1         0.425248   0.391980   0.000000   x
            x  H                 2        -0.425248   0.391980   0.500000   x
            x  H                 3         0.425248  -0.391980   0.500000   x
            x  H                 4        -0.425248  -0.391980   0.000000   x
            x  H                 5         0.369476   0.000000   0.250000   x
            x  H                 6        -0.369476   0.000000   0.750000   x
            x  H                 7         0.369476   0.000000   0.750000   x
            x  H                 8        -0.369476   0.000000   0.250000   x
            x  H                 9         0.925248   0.891980   0.500000   x
            x  H                10        -0.925248   0.891980   0.000000   x
            x  H                11         0.925248  -0.891980   0.000000   x
            x  H                12        -0.925248  -0.891980   0.500000   x
            x  H                13         0.869476   0.500000   0.750000   x
            x  H                14        -0.869476   0.500000   0.250000   x
            x  H                15         0.869476   0.500000   0.250000   x
            x  H                16        -0.869476   0.500000   0.750000   x
            xxxxxxxxxxxxxxxxxxxxxxxxxxxxxxxxxxxxxxxxxxxxxxxxxxxxxxxxxxxxxxxxx


------------------------------------------------------------------------ <-- SCF
SCF loop      Energy                           Energy gain       Timer   <-- SCF
                                               per atom          (sec)   <-- SCF
------------------------------------------------------------------------ <-- SCF
Initial  -2.45384913E+002                                         28.10  <-- SCF
      1  -2.45394655E+002                    6.08893942E-004      28.60  <-- SCF
      2  -2.45394672E+002                    1.06575825E-006      29.47  <-- SCF
      3  -2.45394352E+002                   -1.99947222E-005      30.37  <-- SCF
      4  -2.45394344E+002                   -5.02132432E-007      31.29  <-- SCF
      5  -2.45394345E+002                    2.42174105E-008      32.20  <-- SCF
      6  -2.45394345E+002                    2.47082197E-009      33.10  <-- SCF
      7  -2.45394345E+002                    9.59794171E-012      33.82  <-- SCF
      8  -2.45394345E+002                    5.74003439E-013      34.55  <-- SCF
      9  -2.45394345E+002                    5.77024509E-013      35.29  <-- SCF
------------------------------------------------------------------------ <-- SCF
 
Final energy =  -245.3943447267     eV
(energy not corrected for finite basis set)
 

 ******************************** Symmetrised Forces ********************************
 *                                                                                  *
 *                           Cartesian components (eV/A)                            *
 * -------------------------------------------------------------------------------- *
 *                         x                    y                    z              *
 *                                                                                  *
 * H               1      0.08363              0.12094              0.00000         *
 * H               2     -0.08363              0.12094              0.00000         *
 * H               3      0.08363             -0.12094              0.00000         *
 * H               4     -0.08363             -0.12094              0.00000         *
 * H               5      0.14767             -0.00000              0.00000         *
 * H               6     -0.14767              0.00000             -0.00000         *
 * H               7      0.14767              0.00000             -0.00000         *
 * H               8     -0.14767             -0.00000              0.00000         *
 * H               9      0.08363              0.12094              0.00000         *
 * H              10     -0.08363              0.12094              0.00000         *
 * H              11      0.08363             -0.12094              0.00000         *
 * H              12     -0.08363             -0.12094              0.00000         *
 * H              13      0.14767              0.00000             -0.00000         *
 * H              14     -0.14767              0.00000              0.00000         *
 * H              15      0.14767              0.00000              0.00000         *
 * H              16     -0.14767              0.00000             -0.00000         *
 *                                                                                  *
 ************************************************************************************

 *********** Symmetrised Stress Tensor ***********
 *                                               *
 *          Cartesian components (GPa)           *
 * --------------------------------------------- *
 *             x             y             z     *
 *                                               *
 *  x    -64.346467      0.000000      0.000000  *
 *  y      0.000000    -65.387452      0.000000  *
 *  z      0.000000      0.000000    -66.483117  *
 *                                               *
 *  Pressure:   65.4057                          *
 *                                               *
 *************************************************
  
 +------------+-------------+-------------+-----------------+ <-- min LBFGS
 |    Step    |   lambda    |   F.delta'  |    enthalpy     | <-- min LBFGS
 +------------+-------------+-------------+-----------------+ <-- min LBFGS
 |  previous  |    0.000000 |    0.170877 |     -228.950031 | <-- min LBFGS
 | trial step |    1.000000 |    0.093441 |     -228.991443 | <-- min LBFGS
 +------------+-------------+-------------+-----------------+ <-- min LBFGS
  

--------------------------------------------------------------------------------
 LBFGS: improving iteration         1 with line minimization (lambda=  2.206688)
--------------------------------------------------------------------------------
 
+---------------- MEMORY AND SCRATCH DISK ESTIMATES PER PROCESS --------------+
|                                                     Memory          Disk    |
| Model and support data                               40.3 MB         0.0 MB |
| Electronic energy minimisation requirements          19.1 MB         0.0 MB |
| Geometry minimisation requirements                   21.4 MB         0.0 MB |
|                                               ----------------------------- |
| Approx. total storage required per process           80.8 MB         0.0 MB |
|                                                                             |
| Requirements will fluctuate during execution and may exceed these estimates |
+-----------------------------------------------------------------------------+
 

                           -------------------------------
                                      Unit Cell
                           -------------------------------
        Real Lattice(A)              Reciprocal Lattice(1/A)
     2.8370989     0.0000000     0.0000000        2.214651488  -0.000000000   0.000000000
     0.0000000     2.8237857     0.0000000       -0.000000000   2.225092853   0.000000000
     0.0000000     0.0000000     5.5996623        0.000000000   0.000000000   1.122065042

                       Lattice parameters(A)       Cell Angles
                    a =      2.837099          alpha =   90.000000
                    b =      2.823786          beta  =   90.000000
                    c =      5.599662          gamma =   90.000000

                Current cell volume =            44.860906 A**3

                           -------------------------------
                                     Cell Contents
                           -------------------------------

            xxxxxxxxxxxxxxxxxxxxxxxxxxxxxxxxxxxxxxxxxxxxxxxxxxxxxxxxxxxxxxxxx
            x  Element         Atom        Fractional coordinates of atoms  x
            x                 Number           u          v          w      x
            x---------------------------------------------------------------x
            x  H                 1         0.425248   0.391980   0.000000   x
            x  H                 2        -0.425248   0.391980   0.500000   x
            x  H                 3         0.425248  -0.391980   0.500000   x
            x  H                 4        -0.425248  -0.391980   0.000000   x
            x  H                 5         0.369476   0.000000   0.250000   x
            x  H                 6        -0.369476   0.000000   0.750000   x
            x  H                 7         0.369476   0.000000   0.750000   x
            x  H                 8        -0.369476   0.000000   0.250000   x
            x  H                 9         0.925248   0.891980   0.500000   x
            x  H                10        -0.925248   0.891980   0.000000   x
            x  H                11         0.925248  -0.891980   0.000000   x
            x  H                12        -0.925248  -0.891980   0.500000   x
            x  H                13         0.869476   0.500000   0.750000   x
            x  H                14        -0.869476   0.500000   0.250000   x
            x  H                15         0.869476   0.500000   0.250000   x
            x  H                16        -0.869476   0.500000   0.750000   x
            xxxxxxxxxxxxxxxxxxxxxxxxxxxxxxxxxxxxxxxxxxxxxxxxxxxxxxxxxxxxxxxxx


------------------------------------------------------------------------ <-- SCF
SCF loop      Energy                           Energy gain       Timer   <-- SCF
                                               per atom          (sec)   <-- SCF
------------------------------------------------------------------------ <-- SCF
Initial  -2.45796832E+002                                         38.03  <-- SCF
      1  -2.45809911E+002                    8.17469360E-004      38.60  <-- SCF
      2  -2.45809936E+002                    1.53445435E-006      39.64  <-- SCF
      3  -2.45809471E+002                   -2.90613094E-005      40.67  <-- SCF
      4  -2.45809459E+002                   -7.33578787E-007      41.70  <-- SCF
      5  -2.45809460E+002                    3.66136613E-008      42.70  <-- SCF
      6  -2.45809460E+002                    3.78226877E-009      43.71  <-- SCF
      7  -2.45809460E+002                    1.49573212E-011      44.52  <-- SCF
      8  -2.45809460E+002                    1.30812363E-012      45.54  <-- SCF
      9  -2.45809460E+002                    6.79740914E-013      46.38  <-- SCF
------------------------------------------------------------------------ <-- SCF
 
Final energy =  -245.8094597653     eV
(energy not corrected for finite basis set)
 

 ******************************** Symmetrised Forces ********************************
 *                                                                                  *
 *                           Cartesian components (eV/A)                            *
 * -------------------------------------------------------------------------------- *
 *                         x                    y                    z              *
 *                                                                                  *
 * H               1      0.18144              0.26238              0.00000         *
 * H               2     -0.18144              0.26238              0.00000         *
 * H               3      0.18144             -0.26238              0.00000         *
 * H               4     -0.18144             -0.26238              0.00000         *
 * H               5      0.32026             -0.00000              0.00000         *
 * H               6     -0.32026             -0.00000              0.00000         *
 * H               7      0.32026             -0.00000              0.00000         *
 * H               8     -0.32026             -0.00000              0.00000         *
 * H               9      0.18144              0.26238              0.00000         *
 * H              10     -0.18144              0.26238              0.00000         *
 * H              11      0.18144             -0.26238              0.00000         *
 * H              12     -0.18144             -0.26238              0.00000         *
 * H              13      0.32026             -0.00000             -0.00000         *
 * H              14     -0.32026             -0.00000              0.00000         *
 * H              15      0.32026             -0.00000             -0.00000         *
 * H              16     -0.32026             -0.00000             -0.00000         *
 *                                                                                  *
 ************************************************************************************

 *********** Symmetrised Stress Tensor ***********
 *                                               *
 *          Cartesian components (GPa)           *
 * --------------------------------------------- *
 *             x             y             z     *
 *                                               *
 *  x    -57.903148      0.000000      0.000000  *
 *  y      0.000000    -60.124664      0.000000  *
 *  z      0.000000      0.000000    -62.461468  *
 *                                               *
 *  Pressure:   60.1631                          *
 *                                               *
 *************************************************
  
 +------------+-------------+-------------+-----------------+ <-- min LBFGS
 |    Step    |   lambda    |   F.delta'  |    enthalpy     | <-- min LBFGS
 +------------+-------------+-------------+-----------------+ <-- min LBFGS
 |  previous  |    0.000000 |    0.170877 |     -228.950031 | <-- min LBFGS
 | trial step |    1.000000 |    0.093441 |     -228.991443 | <-- min LBFGS
 |  line step |    2.206688 |    0.002864 |     -229.009462 | <-- min LBFGS
 +------------+-------------+-------------+-----------------+ <-- min LBFGS
  
 LBFGS: finished iteration     1 with enthalpy= -2.29009462E+002 eV
  
 +-----------+-----------------+-----------------+------------+-----+ <-- LBFGS
 | Parameter |      value      |    tolerance    |    units   | OK? | <-- LBFGS
 +-----------+-----------------+-----------------+------------+-----+ <-- LBFGS
 |  dE/ion   |   3.714453E-003 |   1.000000E-009 |         eV | No  | <-- LBFGS
 |  |F|max   |   3.202603E-001 |   1.000000E-005 |       eV/A | No  | <-- LBFGS
 |  |dR|max  |   3.743421E-008 |   1.000000E-005 |          A | Yes | <-- LBFGS
 |   Smax    |   2.461468E+000 |   1.000000E-005 |        GPa | No  | <-- LBFGS
 +-----------+-----------------+-----------------+------------+-----+ <-- LBFGS
  

================================================================================
 Starting LBFGS iteration          2 ...
================================================================================
  
 +------------+-------------+-------------+-----------------+ <-- min LBFGS
 |    Step    |   lambda    |   F.delta'  |    enthalpy     | <-- min LBFGS
 +------------+-------------+-------------+-----------------+ <-- min LBFGS
 |  previous  |    0.000000 |    0.106333 |     -229.009462 | <-- min LBFGS
 +------------+-------------+-------------+-----------------+ <-- min LBFGS
  

--------------------------------------------------------------------------------
 LBFGS: starting iteration         2 with trial guess (lambda=  1.000000)
--------------------------------------------------------------------------------
 
+---------------- MEMORY AND SCRATCH DISK ESTIMATES PER PROCESS --------------+
|                                                     Memory          Disk    |
| Model and support data                               43.5 MB         0.0 MB |
| Electronic energy minimisation requirements          21.7 MB         0.0 MB |
| Geometry minimisation requirements                   24.4 MB         0.0 MB |
|                                               ----------------------------- |
| Approx. total storage required per process           89.6 MB         0.0 MB |
|                                                                             |
| Requirements will fluctuate during execution and may exceed these estimates |
+-----------------------------------------------------------------------------+
 

                           -------------------------------
                                      Unit Cell
                           -------------------------------
        Real Lattice(A)              Reciprocal Lattice(1/A)
     2.8927201     0.0000000     0.0000000        2.172068208  -0.000000000   0.000000000
     0.0000000     2.8834619     0.0000000       -0.000000000   2.179042282   0.000000000
     0.0000000     0.0000000     5.7270052        0.000000000   0.000000000   1.097115344

                       Lattice parameters(A)       Cell Angles
                    a =      2.892720          alpha =   90.000000
                    b =      2.883462          beta  =   90.000000
                    c =      5.727005          gamma =   90.000000

                Current cell volume =            47.769225 A**3

                           -------------------------------
                                     Cell Contents
                           -------------------------------

            xxxxxxxxxxxxxxxxxxxxxxxxxxxxxxxxxxxxxxxxxxxxxxxxxxxxxxxxxxxxxxxxx
            x  Element         Atom        Fractional coordinates of atoms  x
            x                 Number           u          v          w      x
            x---------------------------------------------------------------x
            x  H                 1         0.431743   0.401418   0.000000   x
            x  H                 2        -0.431743   0.401418   0.500000   x
            x  H                 3         0.431743  -0.401418   0.500000   x
            x  H                 4        -0.431743  -0.401418   0.000000   x
            x  H                 5         0.380942   0.000000   0.250000   x
            x  H                 6        -0.380942   0.000000   0.750000   x
            x  H                 7         0.380942   0.000000   0.750000   x
            x  H                 8        -0.380942   0.000000   0.250000   x
            x  H                 9         0.931743   0.901418   0.500000   x
            x  H                10        -0.931743   0.901418   0.000000   x
            x  H                11         0.931743  -0.901418   0.000000   x
            x  H                12        -0.931743  -0.901418   0.500000   x
            x  H                13         0.880942   0.500000   0.750000   x
            x  H                14        -0.880942   0.500000   0.250000   x
            x  H                15         0.880942   0.500000   0.250000   x
            x  H                16        -0.880942   0.500000   0.750000   x
            xxxxxxxxxxxxxxxxxxxxxxxxxxxxxxxxxxxxxxxxxxxxxxxxxxxxxxxxxxxxxxxxx


------------------------------------------------------------------------ <-- SCF
SCF loop      Energy                           Energy gain       Timer   <-- SCF
                                               per atom          (sec)   <-- SCF
------------------------------------------------------------------------ <-- SCF
Initial  -2.44823918E+002                                         49.62  <-- SCF
      1  -2.46717166E+002                    1.18327993E-001      50.33  <-- SCF
      2  -2.46722199E+002                    3.14564813E-004      51.61  <-- SCF
      3  -2.46573096E+002                   -9.31893245E-003      52.89  <-- SCF
      4  -2.46567706E+002                   -3.36839438E-004      54.19  <-- SCF
      5  -2.46567795E+002                    5.52271577E-006      55.48  <-- SCF
      6  -2.46567804E+002                    5.96606268E-007      56.77  <-- SCF
      7  -2.46567804E+002                    3.82697156E-009      58.07  <-- SCF
      8  -2.46567804E+002                    2.58374053E-010      59.25  <-- SCF
      9  -2.46567804E+002                    7.73394107E-012      60.30  <-- SCF
     10  -2.46567804E+002                    2.23559234E-013      61.36  <-- SCF
------------------------------------------------------------------------ <-- SCF
 
Final energy =  -246.5678042866     eV
(energy not corrected for finite basis set)
 

 ******************************** Symmetrised Forces ********************************
 *                                                                                  *
 *                           Cartesian components (eV/A)                            *
 * -------------------------------------------------------------------------------- *
 *                         x                    y                    z              *
 *                                                                                  *
 * H               1     -0.97259             -1.40869              0.00000         *
 * H               2      0.97259             -1.40869              0.00000         *
 * H               3     -0.97259              1.40869              0.00000         *
 * H               4      0.97259              1.40869              0.00000         *
 * H               5     -1.81240             -0.00000             -0.00000         *
 * H               6      1.81240              0.00000             -0.00000         *
 * H               7     -1.81240             -0.00000              0.00000         *
 * H               8      1.81240              0.00000             -0.00000         *
 * H               9     -0.97259             -1.40869              0.00000         *
 * H              10      0.97259             -1.40869              0.00000         *
 * H              11     -0.97259              1.40869              0.00000         *
 * H              12      0.97259              1.40869              0.00000         *
 * H              13     -1.81240              0.00000             -0.00000         *
 * H              14      1.81240              0.00000              0.00000         *
 * H              15     -1.81240              0.00000              0.00000         *
 * H              16      1.81240              0.00000              0.00000         *
 *                                                                                  *
 ************************************************************************************

 *********** Symmetrised Stress Tensor ***********
 *                                               *
 *          Cartesian components (GPa)           *
 * --------------------------------------------- *
 *             x             y             z     *
 *                                               *
 *  x    -73.185525     -0.000000      0.000000  *
 *  y     -0.000000    -62.010792      0.000000  *
 *  z      0.000000      0.000000    -50.990057  *
 *                                               *
 *  Pressure:   62.0621                          *
 *                                               *
 *************************************************
  
 +------------+-------------+-------------+-----------------+ <-- min LBFGS
 |    Step    |   lambda    |   F.delta'  |    enthalpy     | <-- min LBFGS
 +------------+-------------+-------------+-----------------+ <-- min LBFGS
 |  previous  |    0.000000 |    0.106333 |     -229.009462 | <-- min LBFGS
 | trial step |    1.000000 |   -0.563293 |     -228.678681 | <-- min LBFGS
 +------------+-------------+-------------+-----------------+ <-- min LBFGS
  

--------------------------------------------------------------------------------
 LBFGS: improving iteration         2 with line minimization (lambda=  0.158795)
--------------------------------------------------------------------------------

                           -------------------------------
                                      Unit Cell
                           -------------------------------
        Real Lattice(A)              Reciprocal Lattice(1/A)
     2.8459313     0.0000000     0.0000000        2.207778313  -0.000000000   0.000000000
     0.0000000     2.8332619     0.0000000       -0.000000000   2.217650697   0.000000000
     0.0000000     0.0000000     5.6198837        0.000000000   0.000000000   1.118027641

                       Lattice parameters(A)       Cell Angles
                    a =      2.845931          alpha =   90.000000
                    b =      2.833262          beta  =   90.000000
                    c =      5.619884          gamma =   90.000000

                Current cell volume =            45.314632 A**3

                           -------------------------------
                                     Cell Contents
                           -------------------------------

            xxxxxxxxxxxxxxxxxxxxxxxxxxxxxxxxxxxxxxxxxxxxxxxxxxxxxxxxxxxxxxxxx
            x  Element         Atom        Fractional coordinates of atoms  x
            x                 Number           u          v          w      x
            x---------------------------------------------------------------x
            x  H                 1         0.426279   0.393479   0.000000   x
            x  H                 2        -0.426279   0.393479   0.500000   x
            x  H                 3         0.426279  -0.393479   0.500000   x
            x  H                 4        -0.426279  -0.393479   0.000000   x
            x  H                 5         0.371297   0.000000   0.250000   x
            x  H                 6        -0.371297   0.000000   0.750000   x
            x  H                 7         0.371297   0.000000   0.750000   x
            x  H                 8        -0.371297   0.000000   0.250000   x
            x  H                 9         0.926279   0.893479   0.500000   x
            x  H                10        -0.926279   0.893479   0.000000   x
            x  H                11         0.926279  -0.893479   0.000000   x
            x  H                12        -0.926279  -0.893479   0.500000   x
            x  H                13         0.871297   0.500000   0.750000   x
            x  H                14        -0.871297   0.500000   0.250000   x
            x  H                15         0.871297   0.500000   0.250000   x
            x  H                16        -0.871297   0.500000   0.750000   x
            xxxxxxxxxxxxxxxxxxxxxxxxxxxxxxxxxxxxxxxxxxxxxxxxxxxxxxxxxxxxxxxxx


------------------------------------------------------------------------ <-- SCF
SCF loop      Energy                           Energy gain       Timer   <-- SCF
                                               per atom          (sec)   <-- SCF
------------------------------------------------------------------------ <-- SCF
Initial  -2.44676325E+002                                         64.98  <-- SCF
      1  -2.46107219E+002                    8.94308719E-002      65.58  <-- SCF
      2  -2.46110832E+002                    2.25856553E-004      66.68  <-- SCF
      3  -2.45999027E+002                   -6.98783647E-003      67.80  <-- SCF
      4  -2.45995184E+002                   -2.40175564E-004      68.90  <-- SCF
      5  -2.45995226E+002                    2.60130977E-006      70.02  <-- SCF
      6  -2.45995230E+002                    2.43287451E-007      71.14  <-- SCF
      7  -2.45995230E+002                    1.10302011E-009      72.25  <-- SCF
      8  -2.45995230E+002                    1.13731229E-010      73.15  <-- SCF
      9  -2.45995230E+002                    4.31408900E-012      74.05  <-- SCF
     10  -2.45995230E+002                    2.87001719E-013      74.94  <-- SCF
------------------------------------------------------------------------ <-- SCF
 
Final energy =  -245.9952296639     eV
(energy not corrected for finite basis set)
 

 ******************************** Symmetrised Forces ********************************
 *                                                                                  *
 *                           Cartesian components (eV/A)                            *
 * -------------------------------------------------------------------------------- *
 *                         x                    y                    z              *
 *                                                                                  *
 * H               1      0.03048              0.04301              0.00000         *
 * H               2     -0.03048              0.04301              0.00000         *
 * H               3      0.03048             -0.04301              0.00000         *
 * H               4     -0.03048             -0.04301              0.00000         *
 * H               5      0.04019             -0.00000             -0.00000         *
 * H               6     -0.04019             -0.00000              0.00000         *
 * H               7      0.04019             -0.00000             -0.00000         *
 * H               8     -0.04019             -0.00000              0.00000         *
 * H               9      0.03048              0.04301              0.00000         *
 * H              10     -0.03048              0.04301              0.00000         *
 * H              11      0.03048             -0.04301              0.00000         *
 * H              12     -0.03048             -0.04301              0.00000         *
 * H              13      0.04019              0.00000              0.00000         *
 * H              14     -0.04019              0.00000             -0.00000         *
 * H              15      0.04019              0.00000             -0.00000         *
 * H              16     -0.04019              0.00000              0.00000         *
 *                                                                                  *
 ************************************************************************************

 *********** Symmetrised Stress Tensor ***********
 *                                               *
 *          Cartesian components (GPa)           *
 * --------------------------------------------- *
 *             x             y             z     *
 *                                               *
 *  x    -59.931425      0.000000      0.000000  *
 *  y      0.000000    -60.182169      0.000000  *
 *  z      0.000000      0.000000    -60.531147  *
 *                                               *
 *  Pressure:   60.2149                          *
 *                                               *
 *************************************************
  
 +------------+-------------+-------------+-----------------+ <-- min LBFGS
 |    Step    |   lambda    |   F.delta'  |    enthalpy     | <-- min LBFGS
 +------------+-------------+-------------+-----------------+ <-- min LBFGS
 |  previous  |    0.000000 |    0.106333 |     -229.009462 | <-- min LBFGS
 | trial step |    1.000000 |   -0.563293 |     -228.678681 | <-- min LBFGS
 |  line step |    0.158795 |    0.017611 |     -229.025316 | <-- min LBFGS
 +------------+-------------+-------------+-----------------+ <-- min LBFGS
  
 LBFGS: finished iteration     2 with enthalpy= -2.29025316E+002 eV
  
 +-----------+-----------------+-----------------+------------+-----+ <-- LBFGS
 | Parameter |      value      |    tolerance    |    units   | OK? | <-- LBFGS
 +-----------+-----------------+-----------------+------------+-----+ <-- LBFGS
 |  dE/ion   |   9.909115E-004 |   1.000000E-009 |         eV | No  | <-- LBFGS
 |  |F|max   |   5.271664E-002 |   1.000000E-005 |       eV/A | No  | <-- LBFGS
 |  |dR|max  |   5.181609E-003 |   1.000000E-005 |          A | No  | <-- LBFGS
 |   Smax    |   5.311468E-001 |   1.000000E-005 |        GPa | No  | <-- LBFGS
 +-----------+-----------------+-----------------+------------+-----+ <-- LBFGS
  

================================================================================
 Starting LBFGS iteration          3 ...
================================================================================
  
 +------------+-------------+-------------+-----------------+ <-- min LBFGS
 |    Step    |   lambda    |   F.delta'  |    enthalpy     | <-- min LBFGS
 +------------+-------------+-------------+-----------------+ <-- min LBFGS
 |  previous  |    0.000000 |    0.015024 |     -229.025316 | <-- min LBFGS
 +------------+-------------+-------------+-----------------+ <-- min LBFGS
  

--------------------------------------------------------------------------------
 LBFGS: starting iteration         3 with trial guess (lambda=  1.000000)
--------------------------------------------------------------------------------

                           -------------------------------
                                      Unit Cell
                           -------------------------------
        Real Lattice(A)              Reciprocal Lattice(1/A)
     2.8487991     0.0000000     0.0000000        2.205555749  -0.000000000   0.000000000
     0.0000000     2.8360927     0.0000000       -0.000000000   2.215437212   0.000000000
     0.0000000     0.0000000     5.6258367        0.000000000   0.000000000   1.116844599

                       Lattice parameters(A)       Cell Angles
                    a =      2.848799          alpha =   90.000000
                    b =      2.836093          beta  =   90.000000
                    c =      5.625837          gamma =   90.000000

                Current cell volume =            45.453714 A**3

                           -------------------------------
                                     Cell Contents
                           -------------------------------

            xxxxxxxxxxxxxxxxxxxxxxxxxxxxxxxxxxxxxxxxxxxxxxxxxxxxxxxxxxxxxxxxx
            x  Element         Atom        Fractional coordinates of atoms  x
            x                 Number           u          v          w      x
            x---------------------------------------------------------------x
            x  H                 1         0.426664   0.393992   0.000000   x
            x  H                 2        -0.426664   0.393992   0.500000   x
            x  H                 3         0.426664  -0.393992   0.500000   x
            x  H                 4        -0.426664  -0.393992   0.000000   x
            x  H                 5         0.371400   0.000000   0.250000   x
            x  H                 6        -0.371400   0.000000   0.750000   x
            x  H                 7         0.371400   0.000000   0.750000   x
            x  H                 8        -0.371400   0.000000   0.250000   x
            x  H                 9         0.926664   0.893992   0.500000   x
            x  H                10        -0.926664   0.893992   0.000000   x
            x  H                11         0.926664  -0.893992   0.000000   x
            x  H                12        -0.926664  -0.893992   0.500000   x
            x  H                13         0.871400   0.500000   0.750000   x
            x  H                14        -0.871400   0.500000   0.250000   x
            x  H                15         0.871400   0.500000   0.250000   x
            x  H                16        -0.871400   0.500000   0.750000   x
            xxxxxxxxxxxxxxxxxxxxxxxxxxxxxxxxxxxxxxxxxxxxxxxxxxxxxxxxxxxxxxxxx


------------------------------------------------------------------------ <-- SCF
SCF loop      Energy                           Energy gain       Timer   <-- SCF
                                               per atom          (sec)   <-- SCF
------------------------------------------------------------------------ <-- SCF
Initial  -2.46044169E+002                                         78.24  <-- SCF
      1  -2.46047745E+002                    2.23471056E-004      78.84  <-- SCF
      2  -2.46047754E+002                    6.06954103E-007      79.93  <-- SCF
      3  -2.46047495E+002                   -1.62168115E-005      81.04  <-- SCF
      4  -2.46047488E+002                   -4.50396849E-007      82.15  <-- SCF
      5  -2.46047488E+002                    3.22813492E-009      83.25  <-- SCF
      6  -2.46047488E+002                    4.09699486E-010      84.36  <-- SCF
      7  -2.46047488E+002                    1.06976115E-011      85.25  <-- SCF
      8  -2.46047488E+002                    1.12988045E-012      86.14  <-- SCF
      9  -2.46047488E+002                    1.81264244E-013      87.02  <-- SCF
------------------------------------------------------------------------ <-- SCF
 
Final energy =  -246.0474877904     eV
(energy not corrected for finite basis set)
 

 ******************************** Symmetrised Forces ********************************
 *                                                                                  *
 *                           Cartesian components (eV/A)                            *
 * -------------------------------------------------------------------------------- *
 *                         x                    y                    z              *
 *                                                                                  *
 * H               1     -0.02930             -0.04383              0.00000         *
 * H               2      0.02930             -0.04383              0.00000         *
 * H               3     -0.02930              0.04383              0.00000         *
 * H               4      0.02930              0.04383              0.00000         *
 * H               5      0.04617             -0.00000              0.00000         *
 * H               6     -0.04617              0.00000             -0.00000         *
 * H               7      0.04617             -0.00000             -0.00000         *
 * H               8     -0.04617              0.00000              0.00000         *
 * H               9     -0.02930             -0.04383              0.00000         *
 * H              10      0.02930             -0.04383              0.00000         *
 * H              11     -0.02930              0.04383              0.00000         *
 * H              12      0.02930              0.04383              0.00000         *
 * H              13      0.04617             -0.00000              0.00000         *
 * H              14     -0.04617              0.00000              0.00000         *
 * H              15      0.04617             -0.00000             -0.00000         *
 * H              16     -0.04617              0.00000             -0.00000         *
 *                                                                                  *
 ************************************************************************************

 *********** Symmetrised Stress Tensor ***********
 *                                               *
 *          Cartesian components (GPa)           *
 * --------------------------------------------- *
 *             x             y             z     *
 *                                               *
 *  x    -59.708172      0.000000      0.000000  *
 *  y      0.000000    -60.374410      0.000000  *
 *  z      0.000000      0.000000    -59.981659  *
 *                                               *
 *  Pressure:   60.0214                          *
 *                                               *
 *************************************************
  
 +------------+-------------+-------------+-----------------+ <-- min LBFGS
 |    Step    |   lambda    |   F.delta'  |    enthalpy     | <-- min LBFGS
 +------------+-------------+-------------+-----------------+ <-- min LBFGS
 |  previous  |    0.000000 |    0.015024 |     -229.025316 | <-- min LBFGS
 | trial step |    1.000000 |   -0.009169 |     -229.025502 | <-- min LBFGS
 +------------+-------------+-------------+-----------------+ <-- min LBFGS
  
 LBFGS: finished iteration     3 with enthalpy= -2.29025502E+002 eV
  
 +-----------+-----------------+-----------------+------------+-----+ <-- LBFGS
 | Parameter |      value      |    tolerance    |    units   | OK? | <-- LBFGS
 +-----------+-----------------+-----------------+------------+-----+ <-- LBFGS
 |  dE/ion   |   1.160984E-005 |   1.000000E-009 |         eV | No  | <-- LBFGS
 |  |F|max   |   5.271834E-002 |   1.000000E-005 |       eV/A | No  | <-- LBFGS
 |  |dR|max  |   1.822648E-003 |   1.000000E-005 |          A | No  | <-- LBFGS
 |   Smax    |   3.744100E-001 |   1.000000E-005 |        GPa | No  | <-- LBFGS
 +-----------+-----------------+-----------------+------------+-----+ <-- LBFGS
  

================================================================================
 Starting LBFGS iteration          4 ...
================================================================================
  
 +------------+-------------+-------------+-----------------+ <-- min LBFGS
 |    Step    |   lambda    |   F.delta'  |    enthalpy     | <-- min LBFGS
 +------------+-------------+-------------+-----------------+ <-- min LBFGS
 |  previous  |    0.000000 |    0.014494 |     -229.025502 | <-- min LBFGS
 +------------+-------------+-------------+-----------------+ <-- min LBFGS
  

--------------------------------------------------------------------------------
 LBFGS: starting iteration         4 with trial guess (lambda=  1.000000)
--------------------------------------------------------------------------------

                           -------------------------------
                                      Unit Cell
                           -------------------------------
        Real Lattice(A)              Reciprocal Lattice(1/A)
     2.8520736     0.0000000     0.0000000        2.203023547  -0.000000000   0.000000000
     0.0000000     2.8401298     0.0000000       -0.000000000   2.212288095   0.000000000
     0.0000000     0.0000000     5.6333816        0.000000000   0.000000000   1.115348775

                       Lattice parameters(A)       Cell Angles
                    a =      2.852074          alpha =   90.000000
                    b =      2.840130          beta  =   90.000000
                    c =      5.633382          gamma =   90.000000

                Current cell volume =            45.631851 A**3

                           -------------------------------
                                     Cell Contents
                           -------------------------------

            xxxxxxxxxxxxxxxxxxxxxxxxxxxxxxxxxxxxxxxxxxxxxxxxxxxxxxxxxxxxxxxxx
            x  Element         Atom        Fractional coordinates of atoms  x
            x                 Number           u          v          w      x
            x---------------------------------------------------------------x
            x  H                 1         0.426544   0.393727   0.000000   x
            x  H                 2        -0.426544   0.393727   0.500000   x
            x  H                 3         0.426544  -0.393727   0.500000   x
            x  H                 4        -0.426544  -0.393727   0.000000   x
            x  H                 5         0.372579   0.000000   0.250000   x
            x  H                 6        -0.372579   0.000000   0.750000   x
            x  H                 7         0.372579   0.000000   0.750000   x
            x  H                 8        -0.372579   0.000000   0.250000   x
            x  H                 9         0.926544   0.893727   0.500000   x
            x  H                10        -0.926544   0.893727   0.000000   x
            x  H                11         0.926544  -0.893727   0.000000   x
            x  H                12        -0.926544  -0.893727   0.500000   x
            x  H                13         0.872579   0.500000   0.750000   x
            x  H                14        -0.872579   0.500000   0.250000   x
            x  H                15         0.872579   0.500000   0.250000   x
            x  H                16        -0.872579   0.500000   0.750000   x
            xxxxxxxxxxxxxxxxxxxxxxxxxxxxxxxxxxxxxxxxxxxxxxxxxxxxxxxxxxxxxxxxx


------------------------------------------------------------------------ <-- SCF
SCF loop      Energy                           Energy gain       Timer   <-- SCF
                                               per atom          (sec)   <-- SCF
------------------------------------------------------------------------ <-- SCF
Initial  -2.46102617E+002                                         90.38  <-- SCF
      1  -2.46113268E+002                    6.65738975E-004      90.99  <-- SCF
      2  -2.46113297E+002                    1.78994382E-006      92.10  <-- SCF
      3  -2.46112329E+002                   -6.05055279E-005      93.22  <-- SCF
      4  -2.46112311E+002                   -1.09892642E-006      94.33  <-- SCF
      5  -2.46112311E+002                   -4.03398741E-009      95.44  <-- SCF
      6  -2.46112311E+002                    4.51444641E-010      96.54  <-- SCF
      7  -2.46112311E+002                    7.27987414E-011      97.44  <-- SCF
      8  -2.46112311E+002                    9.51335173E-012      98.33  <-- SCF
      9  -2.46112311E+002                    4.44097397E-013      99.22  <-- SCF
------------------------------------------------------------------------ <-- SCF
 
Final energy =  -246.1123113424     eV
(energy not corrected for finite basis set)
 

 ******************************** Symmetrised Forces ********************************
 *                                                                                  *
 *                           Cartesian components (eV/A)                            *
 * -------------------------------------------------------------------------------- *
 *                         x                    y                    z              *
 *                                                                                  *
 * H               1      0.02480              0.03503             -0.00000         *
 * H               2     -0.02480              0.03503             -0.00000         *
 * H               3      0.02480             -0.03503             -0.00000         *
 * H               4     -0.02480             -0.03503             -0.00000         *
 * H               5     -0.17590             -0.00000             -0.00000         *
 * H               6      0.17590              0.00000              0.00000         *
 * H               7     -0.17590             -0.00000             -0.00000         *
 * H               8      0.17590              0.00000             -0.00000         *
 * H               9      0.02480              0.03503             -0.00000         *
 * H              10     -0.02480              0.03503             -0.00000         *
 * H              11      0.02480             -0.03503             -0.00000         *
 * H              12     -0.02480             -0.03503             -0.00000         *
 * H              13     -0.17590              0.00000              0.00000         *
 * H              14      0.17590              0.00000             -0.00000         *
 * H              15     -0.17590              0.00000              0.00000         *
 * H              16      0.17590              0.00000             -0.00000         *
 *                                                                                  *
 ************************************************************************************

 *********** Symmetrised Stress Tensor ***********
 *                                               *
 *          Cartesian components (GPa)           *
 * --------------------------------------------- *
 *             x             y             z     *
 *                                               *
 *  x    -60.930558      0.000000      0.000000  *
 *  y      0.000000    -59.050438      0.000000  *
 *  z      0.000000      0.000000    -59.298607  *
 *                                               *
 *  Pressure:   59.7599                          *
 *                                               *
 *************************************************
  
 +------------+-------------+-------------+-----------------+ <-- min LBFGS
 |    Step    |   lambda    |   F.delta'  |    enthalpy     | <-- min LBFGS
 +------------+-------------+-------------+-----------------+ <-- min LBFGS
 |  previous  |    0.000000 |    0.014494 |     -229.025502 | <-- min LBFGS
 | trial step |    1.000000 |   -0.047566 |     -229.023628 | <-- min LBFGS
 +------------+-------------+-------------+-----------------+ <-- min LBFGS
  

--------------------------------------------------------------------------------
 LBFGS: improving iteration         4 with line minimization (lambda=  0.233549)
--------------------------------------------------------------------------------

                           -------------------------------
                                      Unit Cell
                           -------------------------------
        Real Lattice(A)              Reciprocal Lattice(1/A)
     2.8495639     0.0000000     0.0000000        2.204963835  -0.000000000   0.000000000
     0.0000000     2.8370356     0.0000000       -0.000000000   2.214700937   0.000000000
     0.0000000     0.0000000     5.6275988        0.000000000   0.000000000   1.116494892

                       Lattice parameters(A)       Cell Angles
                    a =      2.849564          alpha =   90.000000
                    b =      2.837036          beta  =   90.000000
                    c =      5.627599          gamma =   90.000000

                Current cell volume =            45.495276 A**3

                           -------------------------------
                                     Cell Contents
                           -------------------------------

            xxxxxxxxxxxxxxxxxxxxxxxxxxxxxxxxxxxxxxxxxxxxxxxxxxxxxxxxxxxxxxxxx
            x  Element         Atom        Fractional coordinates of atoms  x
            x                 Number           u          v          w      x
            x---------------------------------------------------------------x
            x  H                 1         0.426636   0.393930   0.000000   x
            x  H                 2        -0.426636   0.393930   0.500000   x
            x  H                 3         0.426636  -0.393930   0.500000   x
            x  H                 4        -0.426636  -0.393930   0.000000   x
            x  H                 5         0.371675   0.000000   0.250000   x
            x  H                 6        -0.371675   0.000000   0.750000   x
            x  H                 7         0.371675   0.000000   0.750000   x
            x  H                 8        -0.371675   0.000000   0.250000   x
            x  H                 9         0.926636   0.893930   0.500000   x
            x  H                10        -0.926636   0.893930   0.000000   x
            x  H                11         0.926636  -0.893930   0.000000   x
            x  H                12        -0.926636  -0.893930   0.500000   x
            x  H                13         0.871675   0.500000   0.750000   x
            x  H                14        -0.871675   0.500000   0.250000   x
            x  H                15         0.871675   0.500000   0.250000   x
            x  H                16        -0.871675   0.500000   0.750000   x
            xxxxxxxxxxxxxxxxxxxxxxxxxxxxxxxxxxxxxxxxxxxxxxxxxxxxxxxxxxxxxxxxx


------------------------------------------------------------------------ <-- SCF
[...]


------------------------------------------------------------------------ <-- SCF
SCF loop      Energy                           Energy gain       Timer   <-- SCF
                                               per atom          (sec)   <-- SCF
------------------------------------------------------------------------ <-- SCF
Initial  -2.46047777E+002                                        245.44  <-- SCF
      1  -2.46047777E+002                    7.97864780E-012     245.83  <-- SCF
      2  -2.46047777E+002                    2.08453880E-013     246.74  <-- SCF
      3  -2.46047777E+002                    1.41990324E-013     247.65  <-- SCF
      4  -2.46047777E+002                   -3.86697053E-013     248.56  <-- SCF
------------------------------------------------------------------------ <-- SCF
 
Final energy =  -246.0477772880     eV
(energy not corrected for finite basis set)
 

 ******************************** Symmetrised Forces ********************************
 *                                                                                  *
 *                           Cartesian components (eV/A)                            *
 * -------------------------------------------------------------------------------- *
 *                         x                    y                    z              *
 *                                                                                  *
 * H               1      0.00000              0.00000             -0.00000         *
 * H               2     -0.00000              0.00000             -0.00000         *
 * H               3      0.00000             -0.00000             -0.00000         *
 * H               4     -0.00000             -0.00000             -0.00000         *
 * H               5      0.00000             -0.00000              0.00000         *
 * H               6     -0.00000              0.00000              0.00000         *
 * H               7      0.00000              0.00000              0.00000         *
 * H               8     -0.00000             -0.00000             -0.00000         *
 * H               9      0.00000              0.00000             -0.00000         *
 * H              10     -0.00000              0.00000             -0.00000         *
 * H              11      0.00000             -0.00000             -0.00000         *
 * H              12     -0.00000             -0.00000             -0.00000         *
 * H              13      0.00000             -0.00000              0.00000         *
 * H              14     -0.00000              0.00000              0.00000         *
 * H              15      0.00000              0.00000              0.00000         *
 * H              16     -0.00000             -0.00000             -0.00000         *
 *                                                                                  *
 ************************************************************************************

 *********** Symmetrised Stress Tensor ***********
 *                                               *
 *          Cartesian components (GPa)           *
 * --------------------------------------------- *
 *             x             y             z     *
 *                                               *
 *  x    -60.000001      0.000000      0.000000  *
 *  y      0.000000    -60.000005      0.000000  *
 *  z      0.000000      0.000000    -60.000007  *
 *                                               *
 *  Pressure:   60.0000                          *
 *                                               *
 *************************************************
  
 +------------+-------------+-------------+-----------------+ <-- min LBFGS
 |    Step    |   lambda    |   F.delta'  |    enthalpy     | <-- min LBFGS
 +------------+-------------+-------------+-----------------+ <-- min LBFGS
 |  previous  |    0.000000 |  3.034E-007 |     -229.025776 | <-- min LBFGS
 | trial step |    1.000000 |  1.806E-007 |     -229.025776 | <-- min LBFGS
 |  line step |    2.469932 |  1.467E-008 |     -229.025776 | <-- min LBFGS
 +------------+-------------+-------------+-----------------+ <-- min LBFGS
  
 LBFGS: finished iteration    14 with enthalpy= -2.29025776E+002 eV
  
 +-----------+-----------------+-----------------+------------+-----+ <-- LBFGS
 | Parameter |      value      |    tolerance    |    units   | OK? | <-- LBFGS
 +-----------+-----------------+-----------------+------------+-----+ <-- LBFGS
 |  dE/ion   |   2.990860E-013 |   1.000000E-009 |         eV | Yes | <-- LBFGS
 |  |F|max   |   1.107700E-006 |   1.000000E-005 |       eV/A | Yes | <-- LBFGS
 |  |dR|max  |   9.869089E-007 |   1.000000E-005 |          A | Yes | <-- LBFGS
 |   Smax    |   7.481774E-006 |   1.000000E-005 |        GPa | Yes | <-- LBFGS
 +-----------+-----------------+-----------------+------------+-----+ <-- LBFGS
  
 LBFGS: Geometry optimization completed successfully.

================================================================================
 LBFGS: Final Configuration:
================================================================================

                           -------------------------------
                                      Unit Cell
                           -------------------------------
        Real Lattice(A)              Reciprocal Lattice(1/A)
     2.8488651     0.0000000     0.0000000        2.205504713  -0.000000000   0.000000000
     0.0000000     2.8369236     0.0000000       -0.000000000   2.214788358   0.000000000
     0.0000000     0.0000000     5.6240654        0.000000000   0.000000000   1.117196354

                       Lattice parameters(A)       Cell Angles
                    a =      2.848865          alpha =   90.000000
                    b =      2.836924          beta  =   90.000000
                    c =      5.624065          gamma =   90.000000

                Current cell volume =            45.453766 A**3

                           -------------------------------
                                     Cell Contents
                           -------------------------------

            xxxxxxxxxxxxxxxxxxxxxxxxxxxxxxxxxxxxxxxxxxxxxxxxxxxxxxxxxxxxxxxxx
            x  Element         Atom        Fractional coordinates of atoms  x
            x                 Number           u          v          w      x
            x---------------------------------------------------------------x
            x  H                 1         0.427163   0.393373   0.000000   x
            x  H                 2        -0.427163   0.393373   0.500000   x
            x  H                 3         0.427163  -0.393373   0.500000   x
            x  H                 4        -0.427163  -0.393373   0.000000   x
            x  H                 5         0.371620   0.000000   0.250000   x
            x  H                 6        -0.371620   0.000000   0.750000   x
            x  H                 7         0.371620   0.000000   0.750000   x
            x  H                 8        -0.371620   0.000000   0.250000   x
            x  H                 9         0.927163   0.893373   0.500000   x
            x  H                10        -0.927163   0.893373   0.000000   x
            x  H                11         0.927163  -0.893373   0.000000   x
            x  H                12        -0.927163  -0.893373   0.500000   x
            x  H                13         0.871620   0.500000   0.750000   x
            x  H                14        -0.871620   0.500000   0.250000   x
            x  H                15         0.871620   0.500000   0.250000   x
            x  H                16        -0.871620   0.500000   0.750000   x
            xxxxxxxxxxxxxxxxxxxxxxxxxxxxxxxxxxxxxxxxxxxxxxxxxxxxxxxxxxxxxxxxx


 LBFGS: Final Enthalpy     = -2.29025776E+002 eV
 LBFGS: Final <frequency>  =     451.18070 cm-1
 LBFGS: Final bulk modulus =     165.37909 GPa

 ******************************** Symmetrised Forces ********************************
 *                                                                                  *
 *                           Cartesian components (eV/A)                            *
 * -------------------------------------------------------------------------------- *
 *                         x                    y                    z              *
 *                                                                                  *
 * H               1      0.00000              0.00000             -0.00000         *
 * H               2     -0.00000              0.00000             -0.00000         *
 * H               3      0.00000             -0.00000             -0.00000         *
 * H               4     -0.00000             -0.00000             -0.00000         *
 * H               5      0.00000             -0.00000              0.00000         *
 * H               6     -0.00000              0.00000              0.00000         *
 * H               7      0.00000              0.00000              0.00000         *
 * H               8     -0.00000             -0.00000             -0.00000         *
 * H               9      0.00000              0.00000             -0.00000         *
 * H              10     -0.00000              0.00000             -0.00000         *
 * H              11      0.00000             -0.00000             -0.00000         *
 * H              12     -0.00000             -0.00000             -0.00000         *
 * H              13      0.00000             -0.00000              0.00000         *
 * H              14     -0.00000              0.00000              0.00000         *
 * H              15      0.00000              0.00000              0.00000         *
 * H              16     -0.00000             -0.00000             -0.00000         *
 *                                                                                  *
 ************************************************************************************

 *********** Symmetrised Stress Tensor ***********
 *                                               *
 *          Cartesian components (GPa)           *
 * --------------------------------------------- *
 *             x             y             z     *
 *                                               *
 *  x    -60.000001      0.000000      0.000000  *
 *  y      0.000000    -60.000005      0.000000  *
 *  z      0.000000      0.000000    -60.000007  *
 *                                               *
 *  Pressure:   60.0000                          *
 *                                               *
 *************************************************

 Pseudo atomic calculation performed for H 1s1

 Converged in 24 iterations to a total energy of -12.4843 eV

Charge spilling parameter for spin component 1 = 0.61%

            Orbital Populations       
     Ion    Atom   Orbital             Charge
  -------------------------------------------
      H     1      S                    0.998
      H     2      S                    1.001
      H     3      S                    1.001
      H     4      S                    0.998
      H     5      S                    1.001
      H     6      S                    1.001
      H     7      S                    1.001
      H     8      S                    1.001
      H     9      S                    0.998
      H    10      S                    1.001
      H    11      S                    1.001
      H    12      S                    0.998
      H    13      S                    1.001
      H    14      S                    1.001
      H    15      S                    1.001
      H    16      S                    1.001
  -------------------------------------------
                           Total:      16.000
  -------------------------------------------

     Atomic Populations (Mulliken)
     -----------------------------
Species          Ion     s      p      d      f     Total  Charge (e)
=====================================================================
  H               1     1.00   0.00   0.00   0.00   1.00     0.00
  H               2     1.00   0.00   0.00   0.00   1.00     0.00
  H               3     1.00   0.00   0.00   0.00   1.00     0.00
  H               4     1.00   0.00   0.00   0.00   1.00     0.00
  H               5     1.00   0.00   0.00   0.00   1.00    -0.00
  H               6     1.00   0.00   0.00   0.00   1.00    -0.00
  H               7     1.00   0.00   0.00   0.00   1.00    -0.00
  H               8     1.00   0.00   0.00   0.00   1.00    -0.00
  H               9     1.00   0.00   0.00   0.00   1.00     0.00
  H              10     1.00   0.00   0.00   0.00   1.00     0.00
  H              11     1.00   0.00   0.00   0.00   1.00     0.00
  H              12     1.00   0.00   0.00   0.00   1.00     0.00
  H              13     1.00   0.00   0.00   0.00   1.00    -0.00
  H              14     1.00   0.00   0.00   0.00   1.00    -0.00
  H              15     1.00   0.00   0.00   0.00   1.00    -0.00
  H              16     1.00   0.00   0.00   0.00   1.00    -0.00
=====================================================================

                 Bond                   Population      Length (A)
======================================================================
              H 6  -- H 7                    1.46        0.73148
              H 5  -- H 8                    1.46        0.73148
              H 14 -- H 15                   1.46        0.73148
              H 13 -- H 16                   1.46        0.73148
              H 2  -- H 3                    1.45        0.73364
              H 1  -- H 4                    1.45        0.73364
              H 10 -- H 11                   1.45        0.73364
              H 9  -- H 12                   1.45        0.73364
              H 8  -- H 15                  -0.22        1.57868
              H 6  -- H 13                  -0.22        1.57868
              H 7  -- H 16                  -0.22        1.57868
              H 5  -- H 14                  -0.22        1.57868
              H 4  -- H 10                  -0.25        1.64035
              H 3  -- H 9                   -0.25        1.64035
              H 2  -- H 12                  -0.25        1.64035
              H 1  -- H 11                  -0.25        1.64035
              H 4  -- H 15                  -0.11        1.67120
              H 2  -- H 13                  -0.11        1.67120
              H 3  -- H 16                  -0.11        1.67120
              H 1  -- H 14                  -0.11        1.67120
              H 8  -- H 9                   -0.11        1.67120
              H 7  -- H 10                  -0.11        1.67120
              H 6  -- H 11                  -0.11        1.67120
              H 5  -- H 12                  -0.11        1.67120
              H 4  -- H 13                  -0.11        1.67120
              H 3  -- H 14                  -0.11        1.67120
              H 2  -- H 15                  -0.11        1.67120
              H 1  -- H 16                  -0.11        1.67120
              H 8  -- H 11                  -0.11        1.67120
              H 7  -- H 12                  -0.11        1.67120
              H 6  -- H 9                   -0.11        1.67120
              H 5  -- H 10                  -0.11        1.67120
              H 3  -- H 12                  -0.28        1.74097
              H 1  -- H 10                  -0.28        1.74097
              H 4  -- H 11                  -0.28        1.74097
              H 2  -- H 9                   -0.28        1.74097
              H 12 -- H 16                  -0.12        1.80203
              H 10 -- H 14                  -0.12        1.80203
              H 12 -- H 14                  -0.12        1.80203
              H 11 -- H 15                  -0.12        1.80203
              H 11 -- H 13                  -0.12        1.80203
              H 10 -- H 16                  -0.12        1.80203
              H 9  -- H 15                  -0.12        1.80203
              H 9  -- H 13                  -0.12        1.80203
              H 4  -- H 8                   -0.12        1.80203
              H 3  -- H 7                   -0.12        1.80203
              H 2  -- H 6                   -0.12        1.80203
              H 1  -- H 5                   -0.12        1.80203
              H 4  -- H 6                   -0.12        1.80203
              H 3  -- H 5                   -0.12        1.80203
              H 2  -- H 8                   -0.12        1.80203
              H 1  -- H 7                   -0.12        1.80203
              H 4  -- H 5                   -0.13        1.88438
              H 3  -- H 6                   -0.13        1.88438
              H 2  -- H 7                   -0.13        1.88438
              H 1  -- H 8                   -0.13        1.88438
              H 12 -- H 13                  -0.13        1.88438
              H 11 -- H 16                  -0.13        1.88438
              H 11 -- H 14                  -0.13        1.88438
              H 10 -- H 15                  -0.13        1.88438
              H 9  -- H 16                  -0.13        1.88438
              H 9  -- H 14                  -0.13        1.88438
              H 4  -- H 7                   -0.13        1.88438
              H 3  -- H 8                   -0.13        1.88438
              H 2  -- H 5                   -0.13        1.88438
              H 1  -- H 6                   -0.13        1.88438
              H 12 -- H 15                  -0.13        1.88438
              H 10 -- H 13                  -0.13        1.88438
              H 4  -- H 14                  -0.14        1.91615
              H 3  -- H 13                  -0.14        1.91615
              H 2  -- H 16                  -0.14        1.91615
              H 1  -- H 15                  -0.14        1.91615
              H 4  -- H 16                  -0.14        1.91615
              H 3  -- H 15                  -0.14        1.91615
              H 2  -- H 14                  -0.14        1.91615
              H 1  -- H 13                  -0.14        1.91615
              H 8  -- H 12                  -0.14        1.91615
              H 7  -- H 11                  -0.14        1.91615
              H 6  -- H 10                  -0.14        1.91615
              H 5  -- H 9                   -0.14        1.91615
              H 8  -- H 10                  -0.14        1.91615
              H 7  -- H 9                   -0.14        1.91615
              H 6  -- H 12                  -0.14        1.91615
              H 5  -- H 11                  -0.14        1.91615
              H 8  -- H 14                  -0.32        2.01023
              H 7  -- H 13                  -0.32        2.01023
              H 6  -- H 16                  -0.32        2.01023
              H 5  -- H 15                  -0.32        2.01023
              H 14 -- H 16                   0.02        2.81203
              H 13 -- H 15                   0.02        2.81203
              H 6  -- H 8                    0.02        2.81203
              H 5  -- H 7                    0.02        2.81203
======================================================================


Writing analysis data to Hibam.castep_bin

Writing model to Hibam.check
 
 A BibTeX formatted list of references used in this run has been written to 
 Hibam.bib
 
Initialisation time =      2.92 s
Calculation time    =    249.79 s
Finalisation time   =      1.54 s
Total time          =    254.24 s
Peak Memory Use     = 560780 kB
  
Overall parallel efficiency rating: Very good (84%)                             
  
Data was distributed by:-
k-point (32-way); efficiency rating: Very good (84%)                            
  
Parallel notes:
1) Calculation only took 252.7 s, so efficiency estimates may be inaccurate.    
