 +-------------------------------------------------+
 |                                                 |
 |      CCC   AA    SSS  TTTTT  EEEEE  PPPP        |
 |     C     A  A  S       T    E      P   P       |
 |     C     AAAA   SS     T    EEE    PPPP        |
 |     C     A  A     S    T    E      P           |
 |      CCC  A  A  SSS     T    EEEEE  P           |
 |                                                 |
 +-------------------------------------------------+
 |                                                 |
 | Welcome to Academic Release CASTEP version 18.1 |          
 | Ab Initio Total Energy Program                  |
 |                                                 |
 | Authors:                                        |
 | M. Segall, M. Probert, C. Pickard, P. Hasnip,   |
 | S. Clark, K. Refson, J. R. Yates, M. Payne      |
 |                                                 |
 | Contributors:                                   |
 | P. Lindan, P. Haynes, J. White, V. Milman,      |
 | N. Govind, M. Gibson, P. Tulip, V. Cocula,      |
 | B. Montanari, D. Quigley, M. Glover,            |
 | L. Bernasconi, A. Perlov, M. Plummer,           |
 | E. McNellis, J. Meyer, J. Gale, D. Jochym       |
 | J. Aarons, B. Walker, R. Gillen, D. Jones       |
 | T. Green, I. J. Bush, C. J. Armstrong,          |
 | E. J. Higgins, E. L. Brown, M. S. McFly,        |
 | J. Wilkins, B-C. Shih, P. J. P. Byrne           |
 |                                                 |
 | Copyright (c) 2000 - 2017                       |
 |                                                 |
 |     Distributed under the terms of an           |
 |     Agreement between the United Kingdom        |
 |     Car-Parrinello (UKCP) Consortium,           |
 |     Daresbury Laboratory and Accelrys, Inc.     |
 |                                                 |
 | Please cite                                     |
 |                                                 |
 |     "First principles methods using CASTEP"     |
 |                                                 |
 |         Zeitschrift fuer Kristallographie       |
 |           220(5-6) pp. 567-570 (2005)           |
 |                                                 |
 | S. J. Clark, M. D. Segall, C. J. Pickard,       |
 | P. J. Hasnip, M. J. Probert, K. Refson,         |
 | M. C. Payne                                     |
 |                                                 |
 |       in all publications arising from          |
 |              your use of CASTEP                 |
 |                                                 |
 +-------------------------------------------------+


 Compiled for linux_x86_64_gfortran4.8 on Thu, 19 Jul 2018 15:42:32 +0100
 from code version 70483bd0ad64+  Sun, 10 Dec 2017 12:18:29 +0000
 Compiler: GNU Fortran 4.8.5; Optimisation: fast
 MATHLIBS: Intel MKL(2018.0.0) (LAPACK version 3.7.0)
 FFT Lib : mkl
 Fundamental constants values: CODATA 2014

 Run started: Thu, 27 Aug 2020 11:12:55 +0100

 Atomic calculation performed for H: 1s1

 Converged in 41 iterations to an ae energy of -12.488 eV

   ============================================================                
   | Pseudopotential Report - Date of generation 27-08-2020   |                
   ------------------------------------------------------------                
   | Element: H Ionic charge:  1.00 Level of theory: PBE      |                
   | Atomic Solver: Koelling-Harmon                           |                
   |                                                          |                
   |               Reference Electronic Structure             |                
   |         Orbital         Occupation         Energy        |                
   |            1s              1.000           -0.239        |                
   |                                                          |                
   |                 Pseudopotential Definition               |                
   |        Beta     l      e      Rc     scheme   norm       |                
   |         loc     0   -0.239   0.702     qc      1         |                
   |                                                          |                
   | No charge augmentation                                   |                
   | No partial core correction                               |                
   ------------------------------------------------------------                
   | "0|0.7|2|6|8|10L(qc=10)"                                 |                
   ------------------------------------------------------------                
   |      Author: Chris J. Pickard, Cambridge University      |                
   ============================================================                

 Pseudo atomic calculation performed for H 1s1

 Converged in 24 iterations to a total energy of -12.4855 eV

 Calculation parallelised over 32 processes.
 Data is distributed by k-point(32-way)

 ************************************ Title ************************************
 

 ***************************** General Parameters ******************************
  
 output verbosity                               : normal  (1)
 write checkpoint data to                       : Cmca4.check
 type of calculation                            : geometry optimization
 stress calculation                             : on
 density difference calculation                 : off
 electron localisation func (ELF) calculation   : off
 Hirshfeld analysis                             : off
 unlimited duration calculation
 timing information                             : on
 memory usage estimate                          : on
 write extra output files                       : on
 write final potential to formatted file        : off
 write final density to formatted file          : off
 write structure in CELL formatted file         : on
 write BibTeX reference list                    : on
 write OTFG pseudopotential files               : on
 write electrostatic potential file             : on
 write bands file                               : on
 checkpoint writing                             : both castep_bin and check files
  
 output         length unit                     : A
 output           mass unit                     : amu
 output           time unit                     : ps
 output         charge unit                     : e
 output           spin unit                     : hbar/2
 output         energy unit                     : eV
 output          force unit                     : eV/A
 output       velocity unit                     : A/ps
 output       pressure unit                     : GPa
 output     inv_length unit                     : 1/A
 output      frequency unit                     : cm-1
 output force constant unit                     : eV/A**2
 output         volume unit                     : A**3
 output   IR intensity unit                     : (D/A)**2/amu
 output         dipole unit                     : D
 output         efield unit                     : eV/A/e
 output        entropy unit                     : J/mol/K
  
 wavefunctions paging                           : none
 random number generator seed                   : randomised (111256201)
 data distribution                              : optimal for this architecture
 optimization strategy                          : maximize speed(+++)

 *********************** Exchange-Correlation Parameters ***********************
  
 using functional                               : Perdew Burke Ernzerhof
 relativistic treatment                         : Koelling-Harmon
 DFT+D: Semi-empirical dispersion correction    : off

 ************************* Pseudopotential Parameters **************************
  
 pseudopotential representation                 : reciprocal space
 <beta|phi> representation                      : reciprocal space
 spin-orbit coupling                            : off

 **************************** Basis Set Parameters *****************************
  
 plane wave basis set cut-off                   :  1600.0000   eV
 size of standard grid                          :     2.0000
 size of   fine   gmax                          :    40.9853   1/A
 finite basis set correction                    : automatic
 number of sample energies                      :          3
           sample  spacing                      :     5.0000   eV

 **************************** Electronic Parameters ****************************
  
 number of  electrons                           :  8.000    
 net charge of system                           :  0.000    
 treating system as non-spin-polarized
 number of bands                                :          4

 ********************* Electronic Minimization Parameters **********************
  
 Method: Treating system as non-metallic,
         and number of  SD  steps               :          1
         and number of  CG  steps               :          4
  
 total energy / atom convergence tol.           : 0.1000E-10   eV
 eigen-energy convergence tolerance             : 0.2000E-10   eV
 max force / atom convergence tol.              : ignored
 convergence tolerance window                   :          3   cycles
 max. number of SCF cycles                      :        100
 periodic dipole correction                     : NONE

 ************************** Density Mixing Parameters **************************
  
 density-mixing scheme                          : Broyden
 max. length of mixing history                  :         20
 charge density mixing amplitude                : 0.8000    
 cut-off energy for mixing                      :  1600.       eV

 *********************** Population Analysis Parameters ************************
  
 Population analysis with cutoff                :  3.000       A
 Population analysis output                     : summary and pdos components

 ********************** Geometry Optimization Parameters ***********************
  
 optimization method                            : LBFGS
 max. no. of LBFGS updates                      : unbounded
 variable cell method                           : fixed basis quality
 max. number of steps                           :        200
 estimated bulk modulus                         :  500.0       GPa
 estimated <frequency>                          :  1668.       cm-1
 geom line minimiser                            : on
 with line minimiser tolerance                  :     0.4000
 total energy convergence tolerance             : 0.1000E-08   eV/atom
        max ionic |force| tolerance             : 0.1000E-04   eV/A
 max ionic |displacement| tolerance             : 0.1000E-04   A
   max |stress component| tolerance             : 0.1000E-04   GPa
 convergence tolerance window                   :          2   steps
 backup results every                           :      14400   seconds
 write geom trajectory file                     : on

 *******************************************************************************
  

                           -------------------------------
                                      Unit Cell
                           -------------------------------
        Real Lattice(A)                      Reciprocal Lattice(1/A)
     1.7252530     0.0000000     0.0000000        3.641892214  -0.000000000   0.000000000
     0.0000000     2.9024991     0.0000000       -0.000000000   2.164750101   0.000000000
     0.0000000     0.0000000     2.6810616        0.000000000   0.000000000   2.343543797

                       Lattice parameters(A)       Cell Angles
                    a =      1.725253          alpha =   90.000000
                    b =      2.902499          beta  =   90.000000
                    c =      2.681062          gamma =   90.000000

                       Current cell volume =            13.425537       A**3
                                   density =             0.600611   AMU/A**3
                                           =             0.997337     g/cm^3

                           -------------------------------
                                     Cell Contents
                           -------------------------------
                         Total number of ions in cell =    8
                      Total number of species in cell =    1
                        Max number of any one species =    8

            xxxxxxxxxxxxxxxxxxxxxxxxxxxxxxxxxxxxxxxxxxxxxxxxxxxxxxxxxxxx
            x  Element    Atom        Fractional coordinates of atoms  x
            x            Number           u          v          w      x
            x----------------------------------------------------------x
            x  H            1        -0.000000   0.377381   0.445417   x 
            x  H            2        -0.000000   0.122619   0.945417   x 
            x  H            3        -0.000000   0.877381   0.054583   x 
            x  H            4         0.000000   0.622619   0.554583   x 
            x  H            5         0.500000   0.877381   0.445417   x 
            x  H            6         0.500000   0.622619   0.945417   x 
            x  H            7         0.500000   0.377381   0.054583   x 
            x  H            8         0.500000   0.122619   0.554583   x 
            xxxxxxxxxxxxxxxxxxxxxxxxxxxxxxxxxxxxxxxxxxxxxxxxxxxxxxxxxxxx


                         No user defined ionic velocities

                           -------------------------------
                                   Details of Species
                           -------------------------------

                               Mass of species in AMU
                                    H    1.0079400

                          Electric Quadrupole Moment (Barn)
                                    H    0.0028600 Isotope  2

                          Files used for pseudopotentials:
                                    H 0|0.7|2|6|8|10L(qc=10)

                           -------------------------------
                              k-Points For BZ Sampling
                           -------------------------------
                       MP grid size for SCF calculation is 18 18 18
                            with an offset of   0.000  0.000  0.000
                       Number of kpoints used =           729

                           -------------------------------
                               Symmetry and Constraints
                           -------------------------------

                      Cell is a supercell containing 2 primitive cells
                      Maximum deviation from symmetry = 0.267892E-14     ANG

                      Number of symmetry operations   =          16
                      Number of ionic constraints     =           3
                      Point group of crystal =     8: D2h, mmm, 2/m 2/m 2/m
                      Space group of crystal =    64: Cmce, -C 2bc 2

             Set iprint > 1 for details on symmetry rotations/translations

                         Centre of mass is constrained
             Set iprint > 1 for details of linear ionic constraints

                         Number of cell constraints= 3
                         Cell constraints are:  1 2 3 0 0 0

                         External pressure/stress (GPa)
                        200.00000   0.00000   0.00000
                                  200.00000   0.00000
                                            200.00000
  
+---------------- MEMORY AND SCRATCH DISK ESTIMATES PER PROCESS --------------+
|                                                     Memory          Disk    |
| Baseline code, static data and system overhead      479.0 MB         0.0 MB |
| BLAS internal memory storage                          0.0 MB         0.0 MB |
| Model and support data                               22.2 MB         0.0 MB |
| Electronic energy minimisation requirements          13.2 MB         0.0 MB |
| Force calculation requirements                        4.0 MB         0.0 MB |
| Stress calculation requirements                       5.0 MB         0.0 MB |
|                                               ----------------------------- |
| Approx. total storage required per process          514.4 MB         0.0 MB |
|                                                                             |
| Requirements will fluctuate during execution and may exceed these estimates |
+-----------------------------------------------------------------------------+
Calculating finite basis set correction with  3 cut-off energies.
Calculating total energy with cut-off of 1590.000 eV.
------------------------------------------------------------------------ <-- SCF
SCF loop      Energy                           Energy gain       Timer   <-- SCF
                                               per atom          (sec)   <-- SCF
------------------------------------------------------------------------ <-- SCF
Initial   1.82527650E+002                                          4.64  <-- SCF
      1  -1.02071677E+002                    3.55749160E+001       5.70  <-- SCF
      2  -1.16478365E+002                    1.80083591E+000       6.45  <-- SCF
      3  -1.16345753E+002                   -1.65764956E-002       7.58  <-- SCF
      4  -1.16340786E+002                   -6.20800744E-004       8.74  <-- SCF
      5  -1.16340934E+002                    1.84741886E-005       9.91  <-- SCF
      6  -1.16340946E+002                    1.53464968E-006      11.06  <-- SCF
      7  -1.16340946E+002                    2.01916283E-009      12.21  <-- SCF
      8  -1.16340946E+002                    1.19075503E-010      13.11  <-- SCF
      9  -1.16340946E+002                    4.48326896E-012      13.97  <-- SCF
     10  -1.16340946E+002                   -5.13582024E-014      14.78  <-- SCF
------------------------------------------------------------------------ <-- SCF
 
Final energy =  -116.3409464004     eV
(energy not corrected for finite basis set)
 
Calculating total energy with cut-off of 1595.000 eV.
------------------------------------------------------------------------ <-- SCF
SCF loop      Energy                           Energy gain       Timer   <-- SCF
                                               per atom          (sec)   <-- SCF
------------------------------------------------------------------------ <-- SCF
Initial  -1.16340946E+002                                         15.35  <-- SCF
      1  -1.16340969E+002                    2.80804952E-006      16.20  <-- SCF
      2  -1.16340969E+002                    2.07547559E-012      17.02  <-- SCF
      3  -1.16340969E+002                    5.84982010E-010      17.92  <-- SCF
      4  -1.16340969E+002                    3.12711031E-011      18.76  <-- SCF
      5  -1.16340969E+002                    7.19014834E-013      19.58  <-- SCF
      6  -1.16340969E+002                    1.84285315E-013      20.41  <-- SCF
------------------------------------------------------------------------ <-- SCF
 
Final energy =  -116.3409688698     eV
(energy not corrected for finite basis set)
 
Calculating total energy with cut-off of 1600.000 eV.
------------------------------------------------------------------------ <-- SCF
SCF loop      Energy                           Energy gain       Timer   <-- SCF
                                               per atom          (sec)   <-- SCF
------------------------------------------------------------------------ <-- SCF
Initial  -1.16340969E+002                                         20.97  <-- SCF
      1  -1.16340990E+002                    2.58777087E-006      21.82  <-- SCF
      2  -1.16340990E+002                    2.51050978E-012      22.64  <-- SCF
      3  -1.16340990E+002                    5.30714516E-010      23.47  <-- SCF
      4  -1.16340990E+002                    2.86246452E-011      24.34  <-- SCF
      5  -1.16340990E+002                    6.28382712E-013      25.17  <-- SCF
      6  -1.16340990E+002                    1.26884971E-013      26.02  <-- SCF
------------------------------------------------------------------------ <-- SCF
 
Final energy =  -116.3409895764     eV
(energy not corrected for finite basis set)
 
 For future reference: finite basis dEtot/dlog(Ecut) =      -0.006963eV
 Total energy corrected for finite basis set =    -116.340990 eV
 
+---------------- MEMORY AND SCRATCH DISK ESTIMATES PER PROCESS --------------+
|                                                     Memory          Disk    |
| Model and support data                               31.6 MB         0.0 MB |
| Electronic energy minimisation requirements          13.2 MB         0.0 MB |
| Geometry minimisation requirements                   17.7 MB         0.0 MB |
|                                               ----------------------------- |
| Approx. total storage required per process           62.5 MB         0.0 MB |
|                                                                             |
| Requirements will fluctuate during execution and may exceed these estimates |
+-----------------------------------------------------------------------------+
 

 ******************************** Symmetrised Forces ********************************
 *                                                                                  *
 *                           Cartesian components (eV/A)                            *
 * -------------------------------------------------------------------------------- *
 *                         x                    y                    z              *
 *                                                                                  *
 * H               1     -0.00000             -0.00000             -0.00000         *
 * H               2     -0.00000              0.00000             -0.00000         *
 * H               3      0.00000             -0.00000              0.00000         *
 * H               4      0.00000              0.00000              0.00000         *
 * H               5     -0.00000             -0.00000             -0.00000         *
 * H               6     -0.00000              0.00000             -0.00000         *
 * H               7     -0.00000             -0.00000              0.00000         *
 * H               8      0.00000              0.00000              0.00000         *
 *                                                                                  *
 ************************************************************************************

 *********** Symmetrised Stress Tensor ***********
 *                                               *
 *          Cartesian components (GPa)           *
 * --------------------------------------------- *
 *             x             y             z     *
 *                                               *
 *  x   -209.999729      0.000000      0.000000  *
 *  y      0.000000   -209.999721      0.000000  *
 *  z      0.000000      0.000000   -209.999735  *
 *                                               *
 *  Pressure:  209.9997                          *
 *                                               *
 *************************************************
 LBFGS: finished iteration     0 with enthalpy= -9.95818672E+001 eV
  
 +-----------+-----------------+-----------------+------------+-----+ <-- LBFGS
 | Parameter |      value      |    tolerance    |    units   | OK? | <-- LBFGS
 +-----------+-----------------+-----------------+------------+-----+ <-- LBFGS
 |  dE/ion   |   0.000000E+000 |   1.000000E-009 |         eV | No  | <-- LBFGS
 |  |F|max   |   1.026001E-007 |   1.000000E-005 |       eV/A | Yes | <-- LBFGS
 |  |dR|max  |   0.000000E+000 |   1.000000E-005 |          A | No  | <-- LBFGS
 |   Smax    |   9.999735E+000 |   1.000000E-005 |        GPa | No  | <-- LBFGS
 +-----------+-----------------+-----------------+------------+-----+ <-- LBFGS
  

================================================================================
 Starting LBFGS iteration          1 ...
================================================================================
  
 +------------+-------------+-------------+-----------------+ <-- min LBFGS
 |    Step    |   lambda    |   F.delta'  |    enthalpy     | <-- min LBFGS
 +------------+-------------+-------------+-----------------+ <-- min LBFGS
 |  previous  |    0.000000 |    0.053336 |      -99.581867 | <-- min LBFGS
 +------------+-------------+-------------+-----------------+ <-- min LBFGS
  

--------------------------------------------------------------------------------
 LBFGS: starting iteration         1 with trial guess (lambda=  1.000000)
--------------------------------------------------------------------------------
 
+---------------- MEMORY AND SCRATCH DISK ESTIMATES PER PROCESS --------------+
|                                                     Memory          Disk    |
| Model and support data                               31.8 MB         0.0 MB |
| Electronic energy minimisation requirements          13.4 MB         0.0 MB |
| Geometry minimisation requirements                   17.9 MB         0.0 MB |
|                                               ----------------------------- |
| Approx. total storage required per process           63.1 MB         0.0 MB |
|                                                                             |
| Requirements will fluctuate during execution and may exceed these estimates |
+-----------------------------------------------------------------------------+
 

                           -------------------------------
                                      Unit Cell
                           -------------------------------
        Real Lattice(A)              Reciprocal Lattice(1/A)
     1.7367543     0.0000000     0.0000000        3.617774371  -0.000000000   0.000000000
     0.0000000     2.9218486     0.0000000       -0.000000000   2.150414404   0.000000000
     0.0000000     0.0000000     2.6989349        0.000000000   0.000000000   2.328024048

                       Lattice parameters(A)       Cell Angles
                    a =      1.736754          alpha =   90.000000
                    b =      2.921849          beta  =   90.000000
                    c =      2.698935          gamma =   90.000000

                Current cell volume =            13.695835 A**3

                           -------------------------------
                                     Cell Contents
                           -------------------------------

            xxxxxxxxxxxxxxxxxxxxxxxxxxxxxxxxxxxxxxxxxxxxxxxxxxxxxxxxxxxxxxxxx
            x  Element         Atom        Fractional coordinates of atoms  x
            x                 Number           u          v          w      x
            x---------------------------------------------------------------x
            x  H                 1         0.000000   0.377381   0.445417   x
            x  H                 2         0.000000   0.122619   0.945417   x
            x  H                 3         0.000000   0.877381   0.054583   x
            x  H                 4        -0.000000   0.622619   0.554583   x
            x  H                 5         0.500000   0.877381   0.445417   x
            x  H                 6         0.500000   0.622619   0.945417   x
            x  H                 7         0.500000   0.377381   0.054583   x
            x  H                 8         0.500000   0.122619   0.554583   x
            xxxxxxxxxxxxxxxxxxxxxxxxxxxxxxxxxxxxxxxxxxxxxxxxxxxxxxxxxxxxxxxxx


------------------------------------------------------------------------ <-- SCF
SCF loop      Energy                           Energy gain       Timer   <-- SCF
                                               per atom          (sec)   <-- SCF
------------------------------------------------------------------------ <-- SCF
Initial  -1.16682989E+002                                         27.15  <-- SCF
      1  -1.16685359E+002                    2.96226843E-004      28.01  <-- SCF
      2  -1.16685372E+002                    1.65086415E-006      29.18  <-- SCF
      3  -1.16685361E+002                   -1.39704267E-006      30.32  <-- SCF
      4  -1.16685361E+002                    1.91913881E-008      31.45  <-- SCF
      5  -1.16685361E+002                    3.51032105E-009      32.57  <-- SCF
      6  -1.16685361E+002                    3.27583762E-010      33.68  <-- SCF
      7  -1.16685361E+002                    5.95150934E-013      34.49  <-- SCF
      8  -1.16685361E+002                   -3.11170285E-013      35.30  <-- SCF
------------------------------------------------------------------------ <-- SCF
 
Final energy =  -116.6853614192     eV
(energy not corrected for finite basis set)
 

 ******************************** Symmetrised Forces ********************************
 *                                                                                  *
 *                           Cartesian components (eV/A)                            *
 * -------------------------------------------------------------------------------- *
 *                         x                    y                    z              *
 *                                                                                  *
 * H               1      0.00000              0.09182              0.04280         *
 * H               2      0.00000             -0.09182              0.04280         *
 * H               3      0.00000              0.09182             -0.04280         *
 * H               4      0.00000             -0.09182             -0.04280         *
 * H               5      0.00000              0.09182              0.04280         *
 * H               6      0.00000             -0.09182              0.04280         *
 * H               7      0.00000              0.09182             -0.04280         *
 * H               8      0.00000             -0.09182             -0.04280         *
 *                                                                                  *
 ************************************************************************************

 *********** Symmetrised Stress Tensor ***********
 *                                               *
 *          Cartesian components (GPa)           *
 * --------------------------------------------- *
 *             x             y             z     *
 *                                               *
 *  x   -199.520748     -0.000000      0.000000  *
 *  y     -0.000000   -196.156153      0.000000  *
 *  z      0.000000      0.000000   -199.477625  *
 *                                               *
 *  Pressure:  198.3848                          *
 *                                               *
 *************************************************
  
 +------------+-------------+-------------+-----------------+ <-- min LBFGS
 |    Step    |   lambda    |   F.delta'  |    enthalpy     | <-- min LBFGS
 +------------+-------------+-------------+-----------------+ <-- min LBFGS
 |  previous  |    0.000000 |    0.053336 |      -99.581867 | <-- min LBFGS
 | trial step |    1.000000 |   -0.008730 |      -99.588826 | <-- min LBFGS
 +------------+-------------+-------------+-----------------+ <-- min LBFGS
  
 LBFGS: finished iteration     1 with enthalpy= -9.95888259E+001 eV
  
 +-----------+-----------------+-----------------+------------+-----+ <-- LBFGS
 | Parameter |      value      |    tolerance    |    units   | OK? | <-- LBFGS
 +-----------+-----------------+-----------------+------------+-----+ <-- LBFGS
 |  dE/ion   |   8.698401E-004 |   1.000000E-009 |         eV | No  | <-- LBFGS
 |  |F|max   |   1.013082E-001 |   1.000000E-005 |       eV/A | No  | <-- LBFGS
 |  |dR|max  |   1.001752E-008 |   1.000000E-005 |          A | Yes | <-- LBFGS
 |   Smax    |   3.843847E+000 |   1.000000E-005 |        GPa | No  | <-- LBFGS
 +-----------+-----------------+-----------------+------------+-----+ <-- LBFGS
  

================================================================================
 Starting LBFGS iteration          2 ...
================================================================================
  
 +------------+-------------+-------------+-----------------+ <-- min LBFGS
 |    Step    |   lambda    |   F.delta'  |    enthalpy     | <-- min LBFGS
 +------------+-------------+-------------+-----------------+ <-- min LBFGS
 |  previous  |    0.000000 |    0.027280 |      -99.588826 | <-- min LBFGS
 +------------+-------------+-------------+-----------------+ <-- min LBFGS
  

--------------------------------------------------------------------------------
 LBFGS: starting iteration         2 with trial guess (lambda=  1.000000)
--------------------------------------------------------------------------------
 
+---------------- MEMORY AND SCRATCH DISK ESTIMATES PER PROCESS --------------+
|                                                     Memory          Disk    |
| Model and support data                               31.8 MB         0.0 MB |
| Electronic energy minimisation requirements          13.4 MB         0.0 MB |
| Geometry minimisation requirements                   17.9 MB         0.0 MB |
|                                               ----------------------------- |
| Approx. total storage required per process           63.2 MB         0.0 MB |
|                                                                             |
| Requirements will fluctuate during execution and may exceed these estimates |
+-----------------------------------------------------------------------------+
 

                           -------------------------------
                                      Unit Cell
                           -------------------------------
        Real Lattice(A)              Reciprocal Lattice(1/A)
     1.7405810     0.0000000     0.0000000        3.609820617  -0.000000000   0.000000000
     0.0000000     2.9226169     0.0000000       -0.000000000   2.149849090   0.000000000
     0.0000000     0.0000000     2.7048145        0.000000000   0.000000000   2.322963477

                       Lattice parameters(A)       Cell Angles
                    a =      1.740581          alpha =   90.000000
                    b =      2.922617          beta  =   90.000000
                    c =      2.704815          gamma =   90.000000

                Current cell volume =            13.759531 A**3

                           -------------------------------
                                     Cell Contents
                           -------------------------------

            xxxxxxxxxxxxxxxxxxxxxxxxxxxxxxxxxxxxxxxxxxxxxxxxxxxxxxxxxxxxxxxxx
            x  Element         Atom        Fractional coordinates of atoms  x
            x                 Number           u          v          w      x
            x---------------------------------------------------------------x
            x  H                 1         0.000000   0.380035   0.446756   x
            x  H                 2         0.000000   0.119965   0.946756   x
            x  H                 3         0.000000   0.880035   0.053244   x
            x  H                 4        -0.000000   0.619965   0.553244   x
            x  H                 5         0.500000   0.880035   0.446756   x
            x  H                 6         0.500000   0.619965   0.946756   x
            x  H                 7         0.500000   0.380035   0.053244   x
            x  H                 8         0.500000   0.119965   0.553244   x
            xxxxxxxxxxxxxxxxxxxxxxxxxxxxxxxxxxxxxxxxxxxxxxxxxxxxxxxxxxxxxxxxx


------------------------------------------------------------------------ <-- SCF
SCF loop      Energy                           Energy gain       Timer   <-- SCF
                                               per atom          (sec)   <-- SCF
------------------------------------------------------------------------ <-- SCF
Initial  -1.16702876E+002                                         36.36  <-- SCF
      1  -1.16764036E+002                    7.64495902E-003      37.24  <-- SCF
      2  -1.16764248E+002                    2.65350290E-005      38.36  <-- SCF
      3  -1.16761011E+002                   -4.04655637E-004      39.77  <-- SCF
      4  -1.16760848E+002                   -2.03437898E-005      40.92  <-- SCF
      5  -1.16760848E+002                    4.10825046E-008      42.03  <-- SCF
      6  -1.16760848E+002                    2.69884333E-009      43.16  <-- SCF
      7  -1.16760848E+002                    1.07006325E-011      43.98  <-- SCF
      8  -1.16760848E+002                    5.64940226E-013      44.80  <-- SCF
      9  -1.16760848E+002                    4.62223822E-013      45.62  <-- SCF
------------------------------------------------------------------------ <-- SCF
 
Final energy =  -116.7608482595     eV
(energy not corrected for finite basis set)
 

 ******************************** Symmetrised Forces ********************************
 *                                                                                  *
 *                           Cartesian components (eV/A)                            *
 * -------------------------------------------------------------------------------- *
 *                         x                    y                    z              *
 *                                                                                  *
 * H               1      0.00000             -0.19881             -0.08573         *
 * H               2      0.00000              0.19881             -0.08573         *
 * H               3     -0.00000             -0.19881              0.08573         *
 * H               4     -0.00000              0.19881              0.08573         *
 * H               5      0.00000             -0.19881             -0.08573         *
 * H               6      0.00000              0.19881             -0.08573         *
 * H               7     -0.00000             -0.19881              0.08573         *
 * H               8     -0.00000              0.19881              0.08573         *
 *                                                                                  *
 ************************************************************************************

 *********** Symmetrised Stress Tensor ***********
 *                                               *
 *          Cartesian components (GPa)           *
 * --------------------------------------------- *
 *             x             y             z     *
 *                                               *
 *  x   -198.147730      0.000000      0.000000  *
 *  y      0.000000   -203.605901      0.000000  *
 *  z      0.000000      0.000000   -198.920822  *
 *                                               *
 *  Pressure:  200.2248                          *
 *                                               *
 *************************************************
  
 +------------+-------------+-------------+-----------------+ <-- min LBFGS
 |    Step    |   lambda    |   F.delta'  |    enthalpy     | <-- min LBFGS
 +------------+-------------+-------------+-----------------+ <-- min LBFGS
 |  previous  |    0.000000 |    0.027280 |      -99.588826 | <-- min LBFGS
 | trial step |    1.000000 |   -0.062631 |      -99.584801 | <-- min LBFGS
 +------------+-------------+-------------+-----------------+ <-- min LBFGS
  

--------------------------------------------------------------------------------
 LBFGS: improving iteration         2 with line minimization (lambda=  0.303412)
--------------------------------------------------------------------------------

                           -------------------------------
                                      Unit Cell
                           -------------------------------
        Real Lattice(A)              Reciprocal Lattice(1/A)
     1.7379154     0.0000000     0.0000000        3.615357407  -0.000000000   0.000000000
     0.0000000     2.9220817     0.0000000       -0.000000000   2.150242850   0.000000000
     0.0000000     0.0000000     2.7007188        0.000000000   0.000000000   2.326486283

                       Lattice parameters(A)       Cell Angles
                    a =      1.737915          alpha =   90.000000
                    b =      2.922082          beta  =   90.000000
                    c =      2.700719          gamma =   90.000000

                Current cell volume =            13.715144 A**3

                           -------------------------------
                                     Cell Contents
                           -------------------------------

            xxxxxxxxxxxxxxxxxxxxxxxxxxxxxxxxxxxxxxxxxxxxxxxxxxxxxxxxxxxxxxxxx
            x  Element         Atom        Fractional coordinates of atoms  x
            x                 Number           u          v          w      x
            x---------------------------------------------------------------x
            x  H                 1         0.000000   0.378186   0.445823   x
            x  H                 2         0.000000   0.121814   0.945823   x
            x  H                 3         0.000000   0.878186   0.054177   x
            x  H                 4        -0.000000   0.621814   0.554177   x
            x  H                 5         0.500000   0.878186   0.445823   x
            x  H                 6         0.500000   0.621814   0.945823   x
            x  H                 7         0.500000   0.378186   0.054177   x
            x  H                 8         0.500000   0.121814   0.554177   x
            xxxxxxxxxxxxxxxxxxxxxxxxxxxxxxxxxxxxxxxxxxxxxxxxxxxxxxxxxxxxxxxxx


------------------------------------------------------------------------ <-- SCF
SCF loop      Energy                           Energy gain       Timer   <-- SCF
                                               per atom          (sec)   <-- SCF
------------------------------------------------------------------------ <-- SCF
Initial  -1.16682105E+002                                         46.65  <-- SCF
      1  -1.16712106E+002                    3.75011508E-003      47.51  <-- SCF
      2  -1.16712217E+002                    1.38425526E-005      48.64  <-- SCF
      3  -1.16710618E+002                   -1.99797780E-004      49.76  <-- SCF
      4  -1.16710539E+002                   -9.94242839E-006      50.90  <-- SCF
      5  -1.16710539E+002                    1.84558419E-008      52.01  <-- SCF
      6  -1.16710539E+002                    1.16961962E-009      53.14  <-- SCF
      7  -1.16710539E+002                    3.40172564E-012      53.95  <-- SCF
      8  -1.16710539E+002                   -1.38969254E-013      54.77  <-- SCF
------------------------------------------------------------------------ <-- SCF
 
Final energy =  -116.7105388326     eV
(energy not corrected for finite basis set)
 

 ******************************** Symmetrised Forces ********************************
 *                                                                                  *
 *                           Cartesian components (eV/A)                            *
 * -------------------------------------------------------------------------------- *
 *                         x                    y                    z              *
 *                                                                                  *
 * H               1      0.00000              0.00876              0.00584         *
 * H               2      0.00000             -0.00876              0.00584         *
 * H               3     -0.00000              0.00876             -0.00584         *
 * H               4      0.00000             -0.00876             -0.00584         *
 * H               5      0.00000              0.00876              0.00584         *
 * H               6      0.00000             -0.00876              0.00584         *
 * H               7      0.00000              0.00876             -0.00584         *
 * H               8      0.00000             -0.00876             -0.00584         *
 *                                                                                  *
 ************************************************************************************

 *********** Symmetrised Stress Tensor ***********
 *                                               *
 *          Cartesian components (GPa)           *
 * --------------------------------------------- *
 *             x             y             z     *
 *                                               *
 *  x   -199.106066      0.000000      0.000000  *
 *  y      0.000000   -198.308109      0.000000  *
 *  z      0.000000      0.000000   -199.276831  *
 *                                               *
 *  Pressure:  198.8970                          *
 *                                               *
 *************************************************
  
 +------------+-------------+-------------+-----------------+ <-- min LBFGS
 |    Step    |   lambda    |   F.delta'  |    enthalpy     | <-- min LBFGS
 +------------+-------------+-------------+-----------------+ <-- min LBFGS
 |  previous  |    0.000000 |    0.027280 |      -99.588826 | <-- min LBFGS
 | trial step |    1.000000 |   -0.062631 |      -99.584801 | <-- min LBFGS
 |  line step |    0.303412 |    0.001521 |      -99.589900 | <-- min LBFGS
 +------------+-------------+-------------+-----------------+ <-- min LBFGS
  
 LBFGS: finished iteration     2 with enthalpy= -9.95899001E+001 eV
  
 +-----------+-----------------+-----------------+------------+-----+ <-- LBFGS
 | Parameter |      value      |    tolerance    |    units   | OK? | <-- LBFGS
 +-----------+-----------------+-----------------+------------+-----+ <-- LBFGS
 |  dE/ion   |   1.342773E-004 |   1.000000E-009 |         eV | No  | <-- LBFGS
 |  |F|max   |   1.052843E-002 |   1.000000E-005 |       eV/A | No  | <-- LBFGS
 |  |dR|max  |   2.596693E-003 |   1.000000E-005 |          A | No  | <-- LBFGS
 |   Smax    |   1.691891E+000 |   1.000000E-005 |        GPa | No  | <-- LBFGS
 +-----------+-----------------+-----------------+------------+-----+ <-- LBFGS
  

================================================================================
 Starting LBFGS iteration          3 ...
================================================================================
  
 +------------+-------------+-------------+-----------------+ <-- min LBFGS
 |    Step    |   lambda    |   F.delta'  |    enthalpy     | <-- min LBFGS
 +------------+-------------+-------------+-----------------+ <-- min LBFGS
 |  previous  |    0.000000 |    0.006283 |      -99.589900 | <-- min LBFGS
 +------------+-------------+-------------+-----------------+ <-- min LBFGS
  

--------------------------------------------------------------------------------
 LBFGS: starting iteration         3 with trial guess (lambda=  1.000000)
--------------------------------------------------------------------------------

                           -------------------------------
                                      Unit Cell
                           -------------------------------
        Real Lattice(A)              Reciprocal Lattice(1/A)
     1.7369016     0.0000000     0.0000000        3.617467684  -0.000000000   0.000000000
     0.0000000     2.9194537     0.0000000       -0.000000000   2.152178473   0.000000000
     0.0000000     0.0000000     2.6994799        0.000000000   0.000000000   2.327554058

                       Lattice parameters(A)       Cell Angles
                    a =      1.736902          alpha =   90.000000
                    b =      2.919454          beta  =   90.000000
                    c =      2.699480          gamma =   90.000000

                Current cell volume =            13.688532 A**3

                           -------------------------------
                                     Cell Contents
                           -------------------------------

            xxxxxxxxxxxxxxxxxxxxxxxxxxxxxxxxxxxxxxxxxxxxxxxxxxxxxxxxxxxxxxxxx
            x  Element         Atom        Fractional coordinates of atoms  x
            x                 Number           u          v          w      x
            x---------------------------------------------------------------x
            x  H                 1         0.000000   0.378153   0.445874   x
            x  H                 2        -0.000000   0.121847   0.945874   x
            x  H                 3         0.000000   0.878153   0.054126   x
            x  H                 4        -0.000000   0.621847   0.554126   x
            x  H                 5         0.500000   0.878153   0.445874   x
            x  H                 6         0.500000   0.621847   0.945874   x
            x  H                 7         0.500000   0.378153   0.054126   x
            x  H                 8         0.500000   0.121847   0.554126   x
            xxxxxxxxxxxxxxxxxxxxxxxxxxxxxxxxxxxxxxxxxxxxxxxxxxxxxxxxxxxxxxxxx


------------------------------------------------------------------------ <-- SCF
SCF loop      Energy                           Energy gain       Timer   <-- SCF
                                               per atom          (sec)   <-- SCF
------------------------------------------------------------------------ <-- SCF
Initial  -1.16677384E+002                                         55.83  <-- SCF
      1  -1.16677423E+002                    4.90187320E-006      56.69  <-- SCF
      2  -1.16677423E+002                    2.36931218E-008      57.98  <-- SCF
      3  -1.16677423E+002                    1.65297915E-008      59.11  <-- SCF
      4  -1.16677423E+002                    2.80921814E-009      60.23  <-- SCF
      5  -1.16677423E+002                    4.10412459E-011      61.07  <-- SCF
      6  -1.16677423E+002                    4.32617328E-012      61.89  <-- SCF
      7  -1.16677423E+002                   -3.08149214E-013      62.72  <-- SCF
------------------------------------------------------------------------ <-- SCF
 
Final energy =  -116.6774232147     eV
(energy not corrected for finite basis set)
 

 ******************************** Symmetrised Forces ********************************
 *                                                                                  *
 *                           Cartesian components (eV/A)                            *
 * -------------------------------------------------------------------------------- *
 *                         x                    y                    z              *
 *                                                                                  *
 * H               1     -0.00000             -0.00125              0.00094         *
 * H               2      0.00000              0.00125              0.00094         *
 * H               3      0.00000             -0.00125             -0.00094         *
 * H               4     -0.00000              0.00125             -0.00094         *
 * H               5     -0.00000             -0.00125              0.00094         *
 * H               6      0.00000              0.00125              0.00094         *
 * H               7      0.00000             -0.00125             -0.00094         *
 * H               8     -0.00000              0.00125             -0.00094         *
 *                                                                                  *
 ************************************************************************************

 *********** Symmetrised Stress Tensor ***********
 *                                               *
 *          Cartesian components (GPa)           *
 * --------------------------------------------- *
 *             x             y             z     *
 *                                               *
 *  x   -200.075220      0.000000      0.000000  *
 *  y      0.000000   -199.883851      0.000000  *
 *  z      0.000000      0.000000   -200.141702  *
 *                                               *
 *  Pressure:  200.0336                          *
 *                                               *
 *************************************************
  
 +------------+-------------+-------------+-----------------+ <-- min LBFGS
 |    Step    |   lambda    |   F.delta'  |    enthalpy     | <-- min LBFGS
 +------------+-------------+-------------+-----------------+ <-- min LBFGS
 |  previous  |    0.000000 |    0.006283 |      -99.589900 | <-- min LBFGS
 | trial step |    1.000000 |    0.000051 |      -99.590003 | <-- min LBFGS
 +------------+-------------+-------------+-----------------+ <-- min LBFGS
  
 LBFGS: finished iteration     3 with enthalpy= -9.95900034E+001 eV
  
 +-----------+-----------------+-----------------+------------+-----+ <-- LBFGS
 | Parameter |      value      |    tolerance    |    units   | OK? | <-- LBFGS
 +-----------+-----------------+-----------------+------------+-----+ <-- LBFGS
 |  dE/ion   |   1.290193E-005 |   1.000000E-009 |         eV | No  | <-- LBFGS
 |  |F|max   |   1.568628E-003 |   1.000000E-005 |       eV/A | No  | <-- LBFGS
 |  |dR|max  |   1.683689E-004 |   1.000000E-005 |          A | No  | <-- LBFGS
 |   Smax    |   1.417016E-001 |   1.000000E-005 |        GPa | No  | <-- LBFGS
 +-----------+-----------------+-----------------+------------+-----+ <-- LBFGS
  

================================================================================
 Starting LBFGS iteration          4 ...
================================================================================
  
 +------------+-------------+-------------+-----------------+ <-- min LBFGS
 |    Step    |   lambda    |   F.delta'  |    enthalpy     | <-- min LBFGS
 +------------+-------------+-------------+-----------------+ <-- min LBFGS
 |  previous  |    0.000000 |    0.000735 |      -99.590003 | <-- min LBFGS
 +------------+-------------+-------------+-----------------+ <-- min LBFGS
  

--------------------------------------------------------------------------------
 LBFGS: starting iteration         4 with trial guess (lambda=  1.000000)
--------------------------------------------------------------------------------

                           -------------------------------
                                      Unit Cell
                           -------------------------------
        Real Lattice(A)              Reciprocal Lattice(1/A)
     1.7369730     0.0000000     0.0000000        3.617318905  -0.000000000   0.000000000
     0.0000000     2.9191499     0.0000000       -0.000000000   2.152402414   0.000000000
     0.0000000     0.0000000     2.6997180        0.000000000   0.000000000   2.327348790

                       Lattice parameters(A)       Cell Angles
                    a =      1.736973          alpha =   90.000000
                    b =      2.919150          beta  =   90.000000
                    c =      2.699718          gamma =   90.000000

                Current cell volume =            13.688878 A**3

                           -------------------------------
                                     Cell Contents
                           -------------------------------

            xxxxxxxxxxxxxxxxxxxxxxxxxxxxxxxxxxxxxxxxxxxxxxxxxxxxxxxxxxxxxxxxx
            x  Element         Atom        Fractional coordinates of atoms  x
            x                 Number           u          v          w      x
            x---------------------------------------------------------------x
            x  H                 1         0.000000   0.378123   0.445917   x
            x  H                 2        -0.000000   0.121877   0.945917   x
            x  H                 3         0.000000   0.878123   0.054083   x
            x  H                 4        -0.000000   0.621877   0.554083   x
            x  H                 5         0.500000   0.878123   0.445917   x
            x  H                 6         0.500000   0.621877   0.945917   x
            x  H                 7         0.500000   0.378123   0.054083   x
            x  H                 8         0.500000   0.121877   0.554083   x
            xxxxxxxxxxxxxxxxxxxxxxxxxxxxxxxxxxxxxxxxxxxxxxxxxxxxxxxxxxxxxxxxx


------------------------------------------------------------------------ <-- SCF
SCF loop      Energy                           Energy gain       Timer   <-- SCF
                                               per atom          (sec)   <-- SCF
------------------------------------------------------------------------ <-- SCF
Initial  -1.16677846E+002                                         63.79  <-- SCF
      1  -1.16677858E+002                    1.50282319E-006      64.66  <-- SCF
      2  -1.16677858E+002                    7.49559067E-009      65.81  <-- SCF
      3  -1.16677858E+002                    7.24211377E-009      66.94  <-- SCF
      4  -1.16677858E+002                    5.34699308E-010      68.08  <-- SCF
      5  -1.16677858E+002                    9.87588022E-012      68.90  <-- SCF
      6  -1.16677858E+002                    1.29301827E-012      69.72  <-- SCF
      7  -1.16677858E+002                   -1.54074607E-013      70.53  <-- SCF
------------------------------------------------------------------------ <-- SCF
 
Final energy =  -116.6778582326     eV
(energy not corrected for finite basis set)
 

 ******************************** Symmetrised Forces ********************************
 *                                                                                  *
 *                           Cartesian components (eV/A)                            *
 * -------------------------------------------------------------------------------- *
 *                         x                    y                    z              *
 *                                                                                  *
 * H               1      0.00000             -0.00083              0.00086         *
 * H               2      0.00000              0.00083              0.00086         *
 * H               3     -0.00000             -0.00083             -0.00086         *
 * H               4      0.00000              0.00083             -0.00086         *
 * H               5      0.00000             -0.00083              0.00086         *
 * H               6      0.00000              0.00083              0.00086         *
 * H               7     -0.00000             -0.00083             -0.00086         *
 * H               8      0.00000              0.00083             -0.00086         *
 *                                                                                  *
 ************************************************************************************

 *********** Symmetrised Stress Tensor ***********
 *                                               *
 *          Cartesian components (GPa)           *
 * --------------------------------------------- *
 *             x             y             z     *
 *                                               *
 *  x   -200.046118     -0.000000      0.000000  *
 *  y     -0.000000   -199.957046      0.000000  *
 *  z      0.000000      0.000000   -200.066833  *
 *                                               *
 *  Pressure:  200.0233                          *
 *                                               *
 *************************************************
  
 +------------+-------------+-------------+-----------------+ <-- min LBFGS
 |    Step    |   lambda    |   F.delta'  |    enthalpy     | <-- min LBFGS
 +------------+-------------+-------------+-----------------+ <-- min LBFGS
 |  previous  |    0.000000 |    0.000735 |      -99.590003 | <-- min LBFGS
 | trial step |    1.000000 |    0.000433 |      -99.590006 | <-- min LBFGS
 +------------+-------------+-------------+-----------------+ <-- min LBFGS
  

--------------------------------------------------------------------------------
 LBFGS: improving iteration         4 with line minimization (lambda=  2.435593)
--------------------------------------------------------------------------------

                           -------------------------------
                                      Unit Cell
                           -------------------------------
        Real Lattice(A)              Reciprocal Lattice(1/A)
     1.7370756     0.0000000     0.0000000        3.617105340  -0.000000000   0.000000000
     0.0000000     2.9187138     0.0000000       -0.000000000   2.152723984   0.000000000
     0.0000000     0.0000000     2.7000598        0.000000000   0.000000000   2.327054172

                       Lattice parameters(A)       Cell Angles
                    a =      1.737076          alpha =   90.000000
                    b =      2.918714          beta  =   90.000000
                    c =      2.700060          gamma =   90.000000

                Current cell volume =            13.689375 A**3

                           -------------------------------
                                     Cell Contents
                           -------------------------------

            xxxxxxxxxxxxxxxxxxxxxxxxxxxxxxxxxxxxxxxxxxxxxxxxxxxxxxxxxxxxxxxxx
            x  Element         Atom        Fractional coordinates of atoms  x
            x                 Number           u          v          w      x
            x---------------------------------------------------------------x
            x  H                 1        -0.000000   0.378081   0.445977   x
            x  H                 2        -0.000000   0.121919   0.945977   x
            x  H                 3         0.000000   0.878081   0.054023   x
            x  H                 4        -0.000000   0.621919   0.554023   x
            x  H                 5         0.500000   0.878081   0.445977   x
            x  H                 6         0.500000   0.621919   0.945977   x
            x  H                 7         0.500000   0.378081   0.054023   x
            x  H                 8         0.500000   0.121919   0.554023   x
            xxxxxxxxxxxxxxxxxxxxxxxxxxxxxxxxxxxxxxxxxxxxxxxxxxxxxxxxxxxxxxxxx


------------------------------------------------------------------------ <-- SCF
SCF loop      Energy                           Energy gain       Timer   <-- SCF
                                               per atom          (sec)   <-- SCF
------------------------------------------------------------------------ <-- SCF
Initial  -1.16678454E+002                                         71.57  <-- SCF
      1  -1.16678479E+002                    3.08547398E-006      72.44  <-- SCF
      2  -1.16678479E+002                    1.56454123E-008      73.62  <-- SCF
      3  -1.16678479E+002                    1.49631639E-008      74.74  <-- SCF
      4  -1.16678479E+002                    1.10405634E-009      75.88  <-- SCF
      5  -1.16678479E+002                    2.09209148E-011      76.69  <-- SCF
      6  -1.16678479E+002                    1.99390668E-012      77.54  <-- SCF
      7  -1.16678479E+002                   -8.15689097E-014      78.41  <-- SCF
------------------------------------------------------------------------ <-- SCF
 
Final energy =  -116.6784792339     eV
(energy not corrected for finite basis set)
 

 ******************************** Symmetrised Forces ********************************
 *                                                                                  *
 *                           Cartesian components (eV/A)                            *
 * -------------------------------------------------------------------------------- *
 *                         x                    y                    z              *
 *                                                                                  *
 * H               1      0.00000             -0.00023              0.00075         *
 * H               2      0.00000              0.00023              0.00075         *
 * H               3      0.00000             -0.00023             -0.00075         *
 * H               4     -0.00000              0.00023             -0.00075         *
 * H               5      0.00000             -0.00023              0.00075         *
 * H               6      0.00000              0.00023              0.00075         *
 * H               7      0.00000             -0.00023             -0.00075         *
 * H               8      0.00000              0.00023             -0.00075         *
 *                                                                                  *
 ************************************************************************************

 *********** Symmetrised Stress Tensor ***********
 *                                               *
 *          Cartesian components (GPa)           *
 * --------------------------------------------- *
 *             x             y             z     *
 *                                               *
 *  x   -200.004382      0.000000      0.000000  *
 *  y      0.000000   -200.062211      0.000000  *
 *  z      0.000000      0.000000   -199.959413  *
 *                                               *
 *  Pressure:  200.0087                          *
 *                                               *
 *************************************************
  
 +------------+-------------+-------------+-----------------+ <-- min LBFGS
 |    Step    |   lambda    |   F.delta'  |    enthalpy     | <-- min LBFGS
 +------------+-------------+-------------+-----------------+ <-- min LBFGS
 |  previous  |    0.000000 |    0.000735 |      -99.590003 | <-- min LBFGS
 | trial step |    1.000000 |    0.000433 |      -99.590006 | <-- min LBFGS
 |  line step |    2.435593 |  5.864E-008 |      -99.590008 | <-- min LBFGS
 +------------+-------------+-------------+-----------------+ <-- min LBFGS
  
 LBFGS: finished iteration     4 with enthalpy= -9.95900081E+001 eV
  
 +-----------+-----------------+-----------------+------------+-----+ <-- LBFGS
 | Parameter |      value      |    tolerance    |    units   | OK? | <-- LBFGS
 +-----------+-----------------+-----------------+------------+-----+ <-- LBFGS
 |  dE/ion   |   5.878609E-007 |   1.000000E-009 |         eV | No  | <-- LBFGS
 |  |F|max   |   7.849234E-004 |   1.000000E-005 |       eV/A | No  | <-- LBFGS
 |  |dR|max  |   3.489556E-004 |   1.000000E-005 |          A | No  | <-- LBFGS
 |   Smax    |   6.221136E-002 |   1.000000E-005 |        GPa | No  | <-- LBFGS
 +-----------+-----------------+-----------------+------------+-----+ <-- LBFGS
  

================================================================================
 Starting LBFGS iteration          5 ...
================================================================================
  
 +------------+-------------+-------------+-----------------+ <-- min LBFGS
 |    Step    |   lambda    |   F.delta'  |    enthalpy     | <-- min LBFGS
 +------------+-------------+-------------+-----------------+ <-- min LBFGS
 |  previous  |    0.000000 |    0.000268 |      -99.590008 | <-- min LBFGS
 +------------+-------------+-------------+-----------------+ <-- min LBFGS
  

--------------------------------------------------------------------------------
 LBFGS: starting iteration         5 with trial guess (lambda=  1.000000)
--------------------------------------------------------------------------------

                           -------------------------------
                                      Unit Cell
                           -------------------------------
        Real Lattice(A)              Reciprocal Lattice(1/A)
     1.7370933     0.0000000     0.0000000        3.617068349  -0.000000000   0.000000000
     0.0000000     2.9187772     0.0000000       -0.000000000   2.152677261   0.000000000
     0.0000000     0.0000000     2.7000295        0.000000000   0.000000000   2.327080204

                       Lattice parameters(A)       Cell Angles
                    a =      1.737093          alpha =   90.000000
                    b =      2.918777          beta  =   90.000000
                    c =      2.700030          gamma =   90.000000

                Current cell volume =            13.689659 A**3

                           -------------------------------
                                     Cell Contents
                           -------------------------------

            xxxxxxxxxxxxxxxxxxxxxxxxxxxxxxxxxxxxxxxxxxxxxxxxxxxxxxxxxxxxxxxxx
            x  Element         Atom        Fractional coordinates of atoms  x
            x                 Number           u          v          w      x
            x---------------------------------------------------------------x
            x  H                 1        -0.000000   0.378069   0.446013   x
            x  H                 2        -0.000000   0.121931   0.946013   x
            x  H                 3         0.000000   0.878069   0.053987   x
            x  H                 4        -0.000000   0.621931   0.553987   x
            x  H                 5         0.500000   0.878069   0.446013   x
            x  H                 6         0.500000   0.621931   0.946013   x
            x  H                 7         0.500000   0.378069   0.053987   x
            x  H                 8         0.500000   0.121931   0.553987   x
            xxxxxxxxxxxxxxxxxxxxxxxxxxxxxxxxxxxxxxxxxxxxxxxxxxxxxxxxxxxxxxxxx


------------------------------------------------------------------------ <-- SCF
SCF loop      Energy                           Energy gain       Timer   <-- SCF
                                               per atom          (sec)   <-- SCF
------------------------------------------------------------------------ <-- SCF
Initial  -1.16678830E+002                                         79.48  <-- SCF
      1  -1.16678834E+002                    4.95085032E-007      80.33  <-- SCF
      2  -1.16678834E+002                    1.59807089E-009      81.49  <-- SCF
      3  -1.16678834E+002                    6.57308558E-009      82.60  <-- SCF
      4  -1.16678834E+002                    4.18291411E-010      83.54  <-- SCF
      5  -1.16678834E+002                    2.82470113E-012      84.35  <-- SCF
      6  -1.16678834E+002                    7.37141258E-013      85.16  <-- SCF
------------------------------------------------------------------------ <-- SCF
 
Final energy =  -116.6788344820     eV
(energy not corrected for finite basis set)
 

 ******************************** Symmetrised Forces ********************************
 *                                                                                  *
 *                           Cartesian components (eV/A)                            *
 * -------------------------------------------------------------------------------- *
 *                         x                    y                    z              *
 *                                                                                  *
 * H               1      0.00000             -0.00013              0.00057         *
 * H               2      0.00000              0.00013              0.00057         *
 * H               3      0.00000             -0.00013             -0.00057         *
 * H               4      0.00000              0.00013             -0.00057         *
 * H               5      0.00000             -0.00013              0.00057         *
 * H               6      0.00000              0.00013              0.00057         *
 * H               7      0.00000             -0.00013             -0.00057         *
 * H               8      0.00000              0.00013             -0.00057         *
 *                                                                                  *
 ************************************************************************************

 *********** Symmetrised Stress Tensor ***********
 *                                               *
 *          Cartesian components (GPa)           *
 * --------------------------------------------- *
 *             x             y             z     *
 *                                               *
 *  x   -199.993153      0.000000      0.000000  *
 *  y      0.000000   -200.036221      0.000000  *
 *  z      0.000000      0.000000   -199.964219  *
 *                                               *
 *  Pressure:  199.9979                          *
 *                                               *
 *************************************************
  
 +------------+-------------+-------------+-----------------+ <-- min LBFGS
 |    Step    |   lambda    |   F.delta'  |    enthalpy     | <-- min LBFGS
 +------------+-------------+-------------+-----------------+ <-- min LBFGS
 |  previous  |    0.000000 |    0.000268 |      -99.590008 | <-- min LBFGS
 | trial step |    1.000000 |    0.000192 |      -99.590009 | <-- min LBFGS
 +------------+-------------+-------------+-----------------+ <-- min LBFGS
  

--------------------------------------------------------------------------------
 LBFGS: improving iteration         5 with line minimization (lambda=  3.525653)
--------------------------------------------------------------------------------

                           -------------------------------
                                      Unit Cell
                           -------------------------------
        Real Lattice(A)              Reciprocal Lattice(1/A)
     1.7371382     0.0000000     0.0000000        3.616974924  -0.000000000   0.000000000
     0.0000000     2.9189372     0.0000000       -0.000000000   2.152559264   0.000000000
     0.0000000     0.0000000     2.6999533        0.000000000   0.000000000   2.327145953

                       Lattice parameters(A)       Cell Angles
                    a =      1.737138          alpha =   90.000000
                    b =      2.918937          beta  =   90.000000
                    c =      2.699953          gamma =   90.000000

                Current cell volume =            13.690376 A**3

                           -------------------------------
                                     Cell Contents
                           -------------------------------

            xxxxxxxxxxxxxxxxxxxxxxxxxxxxxxxxxxxxxxxxxxxxxxxxxxxxxxxxxxxxxxxxx
            x  Element         Atom        Fractional coordinates of atoms  x
            x                 Number           u          v          w      x
            x---------------------------------------------------------------x
            x  H                 1        -0.000000   0.378037   0.446103   x
            x  H                 2        -0.000000   0.121963   0.946103   x
            x  H                 3        -0.000000   0.878037   0.053897   x
            x  H                 4        -0.000000   0.621963   0.553897   x
            x  H                 5         0.500000   0.878037   0.446103   x
            x  H                 6         0.500000   0.621963   0.946103   x
            x  H                 7         0.500000   0.378037   0.053897   x
            x  H                 8         0.500000   0.121963   0.553897   x
            xxxxxxxxxxxxxxxxxxxxxxxxxxxxxxxxxxxxxxxxxxxxxxxxxxxxxxxxxxxxxxxxx


------------------------------------------------------------------------ <-- SCF
SCF loop      Energy                           Energy gain       Timer   <-- SCF
                                               per atom          (sec)   <-- SCF
------------------------------------------------------------------------ <-- SCF
Initial  -1.16679706E+002                                         86.24  <-- SCF
      1  -1.16679730E+002                    3.06563339E-006      87.10  <-- SCF
      2  -1.16679730E+002                    1.02858274E-008      88.26  <-- SCF
      3  -1.16679731E+002                    4.19450535E-008      89.40  <-- SCF
      4  -1.16679731E+002                    2.67391647E-009      90.53  <-- SCF
      5  -1.16679731E+002                    1.73349038E-011      91.35  <-- SCF
      6  -1.16679731E+002                    1.40177682E-012      92.16  <-- SCF
      7  -1.16679731E+002                   -3.80654912E-013      92.98  <-- SCF
------------------------------------------------------------------------ <-- SCF
 
Final energy =  -116.6797305367     eV
(energy not corrected for finite basis set)
 

 ******************************** Symmetrised Forces ********************************
 *                                                                                  *
 *                           Cartesian components (eV/A)                            *
 * -------------------------------------------------------------------------------- *
 *                         x                    y                    z              *
 *                                                                                  *
 * H               1      0.00000              0.00011              0.00012         *
 * H               2      0.00000             -0.00011              0.00012         *
 * H               3      0.00000              0.00011             -0.00012         *
 * H               4      0.00000             -0.00011             -0.00012         *
 * H               5      0.00000              0.00011              0.00012         *
 * H               6      0.00000             -0.00011              0.00012         *
 * H               7      0.00000              0.00011             -0.00012         *
 * H               8      0.00000             -0.00011             -0.00012         *
 *                                                                                  *
 ************************************************************************************

 *********** Symmetrised Stress Tensor ***********
 *                                               *
 *          Cartesian components (GPa)           *
 * --------------------------------------------- *
 *             x             y             z     *
 *                                               *
 *  x   -199.964814      0.000000      0.000000  *
 *  y      0.000000   -199.970408      0.000000  *
 *  z      0.000000      0.000000   -199.976296  *
 *                                               *
 *  Pressure:  199.9705                          *
 *                                               *
 *************************************************
  
 +------------+-------------+-------------+-----------------+ <-- min LBFGS
 |    Step    |   lambda    |   F.delta'  |    enthalpy     | <-- min LBFGS
 +------------+-------------+-------------+-----------------+ <-- min LBFGS
 |  previous  |    0.000000 |    0.000268 |      -99.590008 | <-- min LBFGS
 | trial step |    1.000000 |    0.000192 |      -99.590009 | <-- min LBFGS
 |  line step |    3.525653 |  2.148E-007 |      -99.590009 | <-- min LBFGS
 +------------+-------------+-------------+-----------------+ <-- min LBFGS
  
 LBFGS: finished iteration     5 with enthalpy= -9.95900095E+001 eV
  
 +-----------+-----------------+-----------------+------------+-----+ <-- LBFGS
 | Parameter |      value      |    tolerance    |    units   | OK? | <-- LBFGS
 +-----------+-----------------+-----------------+------------+-----+ <-- LBFGS
 |  dE/ion   |   1.801053E-007 |   1.000000E-009 |         eV | No  | <-- LBFGS
 |  |F|max   |   1.621766E-004 |   1.000000E-005 |       eV/A | No  | <-- LBFGS
 |  |dR|max  |   3.615960E-004 |   1.000000E-005 |          A | No  | <-- LBFGS
 |   Smax    |   3.518579E-002 |   1.000000E-005 |        GPa | No  | <-- LBFGS
 +-----------+-----------------+-----------------+------------+-----+ <-- LBFGS
  

================================================================================
 Starting LBFGS iteration          6 ...
================================================================================
  
[...]
            x  H                 2         0.000000   0.121968   0.946113   x
            x  H                 3         0.000000   0.878032   0.053887   x
            x  H                 4        -0.000000   0.621968   0.553887   x
            x  H                 5         0.500000   0.878032   0.446113   x
            x  H                 6         0.500000   0.621968   0.946113   x
            x  H                 7         0.500000   0.378032   0.053887   x
            x  H                 8         0.500000   0.121968   0.553887   x
            xxxxxxxxxxxxxxxxxxxxxxxxxxxxxxxxxxxxxxxxxxxxxxxxxxxxxxxxxxxxxxxxx


------------------------------------------------------------------------ <-- SCF
SCF loop      Energy                           Energy gain       Timer   <-- SCF
                                               per atom          (sec)   <-- SCF
------------------------------------------------------------------------ <-- SCF
Initial  -1.16678797E+002                                        113.70  <-- SCF
      1  -1.16678797E+002                    8.60817852E-010     114.42  <-- SCF
      2  -1.16678797E+002                    4.13886690E-013     115.23  <-- SCF
      3  -1.16678797E+002                    2.41685658E-013     116.04  <-- SCF
      4  -1.16678797E+002                   -3.41380992E-013     116.85  <-- SCF
------------------------------------------------------------------------ <-- SCF
 
Final energy =  -116.6787967083     eV
(energy not corrected for finite basis set)
 

 ******************************** Symmetrised Forces ********************************
 *                                                                                  *
 *                           Cartesian components (eV/A)                            *
 * -------------------------------------------------------------------------------- *
 *                         x                    y                    z              *
 *                                                                                  *
 * H               1     -0.00000             -0.00000             -0.00000         *
 * H               2      0.00000              0.00000             -0.00000         *
 * H               3      0.00000             -0.00000              0.00000         *
 * H               4      0.00000              0.00000              0.00000         *
 * H               5     -0.00000             -0.00000             -0.00000         *
 * H               6      0.00000              0.00000             -0.00000         *
 * H               7      0.00000             -0.00000              0.00000         *
 * H               8     -0.00000              0.00000              0.00000         *
 *                                                                                  *
 ************************************************************************************

 *********** Symmetrised Stress Tensor ***********
 *                                               *
 *          Cartesian components (GPa)           *
 * --------------------------------------------- *
 *             x             y             z     *
 *                                               *
 *  x   -200.000032      0.000000      0.000000  *
 *  y      0.000000   -200.000082      0.000000  *
 *  z      0.000000      0.000000   -200.000003  *
 *                                               *
 *  Pressure:  200.0000                          *
 *                                               *
 *************************************************
  
 +------------+-------------+-------------+-----------------+ <-- min LBFGS
 |    Step    |   lambda    |   F.delta'  |    enthalpy     | <-- min LBFGS
 +------------+-------------+-------------+-----------------+ <-- min LBFGS
 |  previous  |    0.000000 |  9.638E-006 |      -99.590010 | <-- min LBFGS
 | trial step |    1.000000 |  3.381E-006 |      -99.590010 | <-- min LBFGS
 |  line step |    1.540284 |  1.063E-008 |      -99.590010 | <-- min LBFGS
 +------------+-------------+-------------+-----------------+ <-- min LBFGS
  
 LBFGS: finished iteration     8 with enthalpy= -9.95900096E+001 eV
  
 +-----------+-----------------+-----------------+------------+-----+ <-- LBFGS
 | Parameter |      value      |    tolerance    |    units   | OK? | <-- LBFGS
 +-----------+-----------------+-----------------+------------+-----+ <-- LBFGS
 |  dE/ion   |   5.498032E-010 |   1.000000E-009 |         eV | Yes | <-- LBFGS
 |  |F|max   |   1.596752E-006 |   1.000000E-005 |       eV/A | Yes | <-- LBFGS
 |  |dR|max  |   1.213290E-006 |   1.000000E-005 |          A | Yes | <-- LBFGS
 |   Smax    |   8.156818E-005 |   1.000000E-005 |        GPa | No  | <-- LBFGS
 +-----------+-----------------+-----------------+------------+-----+ <-- LBFGS
  

================================================================================
 Starting LBFGS iteration          9 ...
================================================================================
  
 +------------+-------------+-------------+-----------------+ <-- min LBFGS
 |    Step    |   lambda    |   F.delta'  |    enthalpy     | <-- min LBFGS
 +------------+-------------+-------------+-----------------+ <-- min LBFGS
 |  previous  |    0.000000 |  4.194E-007 |      -99.590010 | <-- min LBFGS
 +------------+-------------+-------------+-----------------+ <-- min LBFGS
  

--------------------------------------------------------------------------------
 LBFGS: starting iteration         9 with trial guess (lambda=  1.000000)
--------------------------------------------------------------------------------

                           -------------------------------
                                      Unit Cell
                           -------------------------------
        Real Lattice(A)              Reciprocal Lattice(1/A)
     1.7370860     0.0000000     0.0000000        3.617083634  -0.000000000   0.000000000
     0.0000000     2.9188997     0.0000000       -0.000000000   2.152586897   0.000000000
     0.0000000     0.0000000     2.6999216        0.000000000   0.000000000   2.327173233

                       Lattice parameters(A)       Cell Angles
                    a =      1.737086          alpha =   90.000000
                    b =      2.918900          beta  =   90.000000
                    c =      2.699922          gamma =   90.000000

                Current cell volume =            13.689628 A**3

                           -------------------------------
                                     Cell Contents
                           -------------------------------

            xxxxxxxxxxxxxxxxxxxxxxxxxxxxxxxxxxxxxxxxxxxxxxxxxxxxxxxxxxxxxxxxx
            x  Element         Atom        Fractional coordinates of atoms  x
            x                 Number           u          v          w      x
            x---------------------------------------------------------------x
            x  H                 1        -0.000000   0.378032   0.446113   x
            x  H                 2         0.000000   0.121968   0.946113   x
            x  H                 3         0.000000   0.878032   0.053887   x
            x  H                 4        -0.000000   0.621968   0.553887   x
            x  H                 5         0.500000   0.878032   0.446113   x
            x  H                 6         0.500000   0.621968   0.946113   x
            x  H                 7         0.500000   0.378032   0.053887   x
            x  H                 8         0.500000   0.121968   0.553887   x
            xxxxxxxxxxxxxxxxxxxxxxxxxxxxxxxxxxxxxxxxxxxxxxxxxxxxxxxxxxxxxxxxx


------------------------------------------------------------------------ <-- SCF
SCF loop      Energy                           Energy gain       Timer   <-- SCF
                                               per atom          (sec)   <-- SCF
------------------------------------------------------------------------ <-- SCF
Initial  -1.16678797E+002                                        118.03  <-- SCF
      1  -1.16678797E+002                    2.05432810E-013     118.61  <-- SCF
      2  -1.16678797E+002                    3.02107073E-014     119.42  <-- SCF
      3  -1.16678797E+002                   -1.11779617E-013     120.23  <-- SCF
      4  -1.16678797E+002                   -1.35948183E-013     121.04  <-- SCF
------------------------------------------------------------------------ <-- SCF
 
Final energy =  -116.6787972876     eV
(energy not corrected for finite basis set)
 

 ******************************** Symmetrised Forces ********************************
 *                                                                                  *
 *                           Cartesian components (eV/A)                            *
 * -------------------------------------------------------------------------------- *
 *                         x                    y                    z              *
 *                                                                                  *
 * H               1     -0.00000              0.00000             -0.00000         *
 * H               2      0.00000             -0.00000             -0.00000         *
 * H               3      0.00000              0.00000              0.00000         *
 * H               4      0.00000             -0.00000              0.00000         *
 * H               5     -0.00000              0.00000             -0.00000         *
 * H               6      0.00000             -0.00000             -0.00000         *
 * H               7      0.00000              0.00000              0.00000         *
 * H               8     -0.00000             -0.00000              0.00000         *
 *                                                                                  *
 ************************************************************************************

 *********** Symmetrised Stress Tensor ***********
 *                                               *
 *          Cartesian components (GPa)           *
 * --------------------------------------------- *
 *             x             y             z     *
 *                                               *
 *  x   -199.999995      0.000000      0.000000  *
 *  y      0.000000   -199.999999      0.000000  *
 *  z      0.000000      0.000000   -200.000006  *
 *                                               *
 *  Pressure:  200.0000                          *
 *                                               *
 *************************************************
  
 +------------+-------------+-------------+-----------------+ <-- min LBFGS
 |    Step    |   lambda    |   F.delta'  |    enthalpy     | <-- min LBFGS
 +------------+-------------+-------------+-----------------+ <-- min LBFGS
 |  previous  |    0.000000 |  4.194E-007 |      -99.590010 | <-- min LBFGS
 | trial step |    1.000000 | -3.185E-008 |      -99.590010 | <-- min LBFGS
 +------------+-------------+-------------+-----------------+ <-- min LBFGS
  
 LBFGS: finished iteration     9 with enthalpy= -9.95900096E+001 eV
  
 +-----------+-----------------+-----------------+------------+-----+ <-- LBFGS
 | Parameter |      value      |    tolerance    |    units   | OK? | <-- LBFGS
 +-----------+-----------------+-----------------+------------+-----+ <-- LBFGS
 |  dE/ion   |   4.682660E-014 |   1.000000E-009 |         eV | Yes | <-- LBFGS
 |  |F|max   |   1.004151E-007 |   1.000000E-005 |       eV/A | Yes | <-- LBFGS
 |  |dR|max  |   4.700217E-008 |   1.000000E-005 |          A | Yes | <-- LBFGS
 |   Smax    |   6.231174E-006 |   1.000000E-005 |        GPa | Yes | <-- LBFGS
 +-----------+-----------------+-----------------+------------+-----+ <-- LBFGS
  
 LBFGS: Geometry optimization completed successfully.

================================================================================
 LBFGS: Final Configuration:
================================================================================

                           -------------------------------
                                      Unit Cell
                           -------------------------------
        Real Lattice(A)              Reciprocal Lattice(1/A)
     1.7370860     0.0000000     0.0000000        3.617083634  -0.000000000   0.000000000
     0.0000000     2.9188997     0.0000000       -0.000000000   2.152586897   0.000000000
     0.0000000     0.0000000     2.6999216        0.000000000   0.000000000   2.327173233

                       Lattice parameters(A)       Cell Angles
                    a =      1.737086          alpha =   90.000000
                    b =      2.918900          beta  =   90.000000
                    c =      2.699922          gamma =   90.000000

                Current cell volume =            13.689628 A**3

                           -------------------------------
                                     Cell Contents
                           -------------------------------

            xxxxxxxxxxxxxxxxxxxxxxxxxxxxxxxxxxxxxxxxxxxxxxxxxxxxxxxxxxxxxxxxx
            x  Element         Atom        Fractional coordinates of atoms  x
            x                 Number           u          v          w      x
            x---------------------------------------------------------------x
            x  H                 1        -0.000000   0.378032   0.446113   x
            x  H                 2         0.000000   0.121968   0.946113   x
            x  H                 3         0.000000   0.878032   0.053887   x
            x  H                 4        -0.000000   0.621968   0.553887   x
            x  H                 5         0.500000   0.878032   0.446113   x
            x  H                 6         0.500000   0.621968   0.946113   x
            x  H                 7         0.500000   0.378032   0.053887   x
            x  H                 8         0.500000   0.121968   0.553887   x
            xxxxxxxxxxxxxxxxxxxxxxxxxxxxxxxxxxxxxxxxxxxxxxxxxxxxxxxxxxxxxxxxx


 LBFGS: Final Enthalpy     = -9.95900096E+001 eV
 LBFGS: Final <frequency>  =     725.18291 cm-1
 LBFGS: Final bulk modulus unchanged from initial value

 ******************************** Symmetrised Forces ********************************
 *                                                                                  *
 *                           Cartesian components (eV/A)                            *
 * -------------------------------------------------------------------------------- *
 *                         x                    y                    z              *
 *                                                                                  *
 * H               1     -0.00000              0.00000             -0.00000         *
 * H               2      0.00000             -0.00000             -0.00000         *
 * H               3      0.00000              0.00000              0.00000         *
 * H               4      0.00000             -0.00000              0.00000         *
 * H               5     -0.00000              0.00000             -0.00000         *
 * H               6      0.00000             -0.00000             -0.00000         *
 * H               7      0.00000              0.00000              0.00000         *
 * H               8     -0.00000             -0.00000              0.00000         *
 *                                                                                  *
 ************************************************************************************

 *********** Symmetrised Stress Tensor ***********
 *                                               *
 *          Cartesian components (GPa)           *
 * --------------------------------------------- *
 *             x             y             z     *
 *                                               *
 *  x   -199.999995      0.000000      0.000000  *
 *  y      0.000000   -199.999999      0.000000  *
 *  z      0.000000      0.000000   -200.000006  *
 *                                               *
 *  Pressure:  200.0000                          *
 *                                               *
 *************************************************

 Pseudo atomic calculation performed for H 1s1

 Converged in 24 iterations to a total energy of -12.4855 eV

Charge spilling parameter for spin component 1 = 0.59%

            Orbital Populations       
     Ion    Atom   Orbital             Charge
  -------------------------------------------
      H     1      S                    0.996
      H     2      S                    1.004
      H     3      S                    1.004
      H     4      S                    0.996
      H     5      S                    0.996
      H     6      S                    1.004
      H     7      S                    1.004
      H     8      S                    0.996
  -------------------------------------------
                           Total:       8.000
  -------------------------------------------

     Atomic Populations (Mulliken)
     -----------------------------
Species          Ion     s      p      d      f     Total  Charge (e)
=====================================================================
  H               1     1.00   0.00   0.00   0.00   1.00     0.00
  H               2     1.00   0.00   0.00   0.00   1.00     0.00
  H               3     1.00   0.00   0.00   0.00   1.00     0.00
  H               4     1.00   0.00   0.00   0.00   1.00     0.00
  H               5     1.00   0.00   0.00   0.00   1.00     0.00
  H               6     1.00   0.00   0.00   0.00   1.00     0.00
  H               7     1.00   0.00   0.00   0.00   1.00     0.00
  H               8     1.00   0.00   0.00   0.00   1.00     0.00
=====================================================================

                 Bond                   Population      Length (A)
======================================================================
               H 6 -- H 7                    1.06        0.76919
               H 2 -- H 3                    1.06        0.76919
               H 5 -- H 8                    1.06        0.76919
               H 1 -- H 4                    1.06        0.76919
               H 3 -- H 6                    0.28        1.18223
               H 4 -- H 5                    0.28        1.18223
               H 2 -- H 7                    0.28        1.18223
               H 1 -- H 8                    0.28        1.18223
               H 3 -- H 5                   -0.10        1.36960
               H 1 -- H 7                   -0.10        1.36960
               H 4 -- H 6                   -0.10        1.36960
               H 2 -- H 8                   -0.10        1.36960
               H 5 -- H 6                   -0.21        1.54306
               H 1 -- H 2                   -0.21        1.54306
               H 3 -- H 4                   -0.21        1.54306
               H 7 -- H 8                   -0.21        1.54306
               H 4 -- H 8                   -0.67        1.69834
               H 3 -- H 7                   -0.67        1.69834
               H 2 -- H 6                   -0.67        1.69834
               H 1 -- H 5                   -0.67        1.69834
======================================================================


Writing analysis data to Cmca4.castep_bin

Writing model to Cmca4.check
 
 A BibTeX formatted list of references used in this run has been written to 
 Cmca4.bib
 
Initialisation time =      4.20 s
Calculation time    =    119.51 s
Finalisation time   =      4.40 s
Total time          =    128.11 s
Peak Memory Use     = 537628 kB
  
Overall parallel efficiency rating: Excellent (92%)                             
  
Data was distributed by:-
k-point (32-way); efficiency rating: Excellent (93%)                            
  
Parallel notes:
1) Calculation only took 123.7 s, so efficiency estimates may be inaccurate.    
