 +-------------------------------------------------+
 |                                                 |
 |      CCC   AA    SSS  TTTTT  EEEEE  PPPP        |
 |     C     A  A  S       T    E      P   P       |
 |     C     AAAA   SS     T    EEE    PPPP        |
 |     C     A  A     S    T    E      P           |
 |      CCC  A  A  SSS     T    EEEEE  P           |
 |                                                 |
 +-------------------------------------------------+
 |                                                 |
 | Welcome to Academic Release CASTEP version 18.1 |          
 | Ab Initio Total Energy Program                  |
 |                                                 |
 | Authors:                                        |
 | M. Segall, M. Probert, C. Pickard, P. Hasnip,   |
 | S. Clark, K. Refson, J. R. Yates, M. Payne      |
 |                                                 |
 | Contributors:                                   |
 | P. Lindan, P. Haynes, J. White, V. Milman,      |
 | N. Govind, M. Gibson, P. Tulip, V. Cocula,      |
 | B. Montanari, D. Quigley, M. Glover,            |
 | L. Bernasconi, A. Perlov, M. Plummer,           |
 | E. McNellis, J. Meyer, J. Gale, D. Jochym       |
 | J. Aarons, B. Walker, R. Gillen, D. Jones       |
 | T. Green, I. J. Bush, C. J. Armstrong,          |
 | E. J. Higgins, E. L. Brown, M. S. McFly,        |
 | J. Wilkins, B-C. Shih, P. J. P. Byrne           |
 |                                                 |
 | Copyright (c) 2000 - 2017                       |
 |                                                 |
 |     Distributed under the terms of an           |
 |     Agreement between the United Kingdom        |
 |     Car-Parrinello (UKCP) Consortium,           |
 |     Daresbury Laboratory and Accelrys, Inc.     |
 |                                                 |
 | Please cite                                     |
 |                                                 |
 |     "First principles methods using CASTEP"     |
 |                                                 |
 |         Zeitschrift fuer Kristallographie       |
 |           220(5-6) pp. 567-570 (2005)           |
 |                                                 |
 | S. J. Clark, M. D. Segall, C. J. Pickard,       |
 | P. J. Hasnip, M. J. Probert, K. Refson,         |
 | M. C. Payne                                     |
 |                                                 |
 |       in all publications arising from          |
 |              your use of CASTEP                 |
 |                                                 |
 +-------------------------------------------------+


 Compiled for linux_x86_64_gfortran4.8 on Thu, 19 Jul 2018 15:42:32 +0100
 from code version 70483bd0ad64+  Sun, 10 Dec 2017 12:18:29 +0000
 Compiler: GNU Fortran 4.8.5; Optimisation: fast
 MATHLIBS: Intel MKL(2018.0.0) (LAPACK version 3.7.0)
 FFT Lib : mkl
 Fundamental constants values: CODATA 2014

 Run started: Thu, 27 Aug 2020 11:24:44 +0100

 Atomic calculation performed for H: 1s1

 Converged in 41 iterations to an ae energy of -12.488 eV

   ============================================================                
   | Pseudopotential Report - Date of generation 27-08-2020   |                
   ------------------------------------------------------------                
   | Element: H Ionic charge:  1.00 Level of theory: PBE      |                
   | Atomic Solver: Koelling-Harmon                           |                
   |                                                          |                
   |               Reference Electronic Structure             |                
   |         Orbital         Occupation         Energy        |                
   |            1s              1.000           -0.239        |                
   |                                                          |                
   |                 Pseudopotential Definition               |                
   |        Beta     l      e      Rc     scheme   norm       |                
   |         loc     0   -0.239   0.702     qc      1         |                
   |                                                          |                
   | No charge augmentation                                   |                
   | No partial core correction                               |                
   ------------------------------------------------------------                
   | "0|0.7|2|6|8|10L(qc=10)"                                 |                
   ------------------------------------------------------------                
   |      Author: Chris J. Pickard, Cambridge University      |                
   ============================================================                

 Pseudo atomic calculation performed for H 1s1

 Converged in 24 iterations to a total energy of -12.4855 eV

 Calculation parallelised over 32 processes.
 Data is distributed by k-point(32-way)

 ************************************ Title ************************************
 

 ***************************** General Parameters ******************************
  
 output verbosity                               : normal  (1)
 write checkpoint data to                       : Cmca4.check
 type of calculation                            : geometry optimization
 stress calculation                             : on
 density difference calculation                 : off
 electron localisation func (ELF) calculation   : off
 Hirshfeld analysis                             : off
 unlimited duration calculation
 timing information                             : on
 memory usage estimate                          : on
 write extra output files                       : on
 write final potential to formatted file        : off
 write final density to formatted file          : off
 write structure in CELL formatted file         : on
 write BibTeX reference list                    : on
 write OTFG pseudopotential files               : on
 write electrostatic potential file             : on
 write bands file                               : on
 checkpoint writing                             : both castep_bin and check files
  
 output         length unit                     : A
 output           mass unit                     : amu
 output           time unit                     : ps
 output         charge unit                     : e
 output           spin unit                     : hbar/2
 output         energy unit                     : eV
 output          force unit                     : eV/A
 output       velocity unit                     : A/ps
 output       pressure unit                     : GPa
 output     inv_length unit                     : 1/A
 output      frequency unit                     : cm-1
 output force constant unit                     : eV/A**2
 output         volume unit                     : A**3
 output   IR intensity unit                     : (D/A)**2/amu
 output         dipole unit                     : D
 output         efield unit                     : eV/A/e
 output        entropy unit                     : J/mol/K
  
 wavefunctions paging                           : none
 random number generator seed                   : randomised (112445581)
 data distribution                              : optimal for this architecture
 optimization strategy                          : maximize speed(+++)

 *********************** Exchange-Correlation Parameters ***********************
  
 using functional                               : Perdew Burke Ernzerhof
 relativistic treatment                         : Koelling-Harmon
 DFT+D: Semi-empirical dispersion correction    : off

 ************************* Pseudopotential Parameters **************************
  
 pseudopotential representation                 : reciprocal space
 <beta|phi> representation                      : reciprocal space
 spin-orbit coupling                            : off

 **************************** Basis Set Parameters *****************************
  
 plane wave basis set cut-off                   :  1600.0000   eV
 size of standard grid                          :     2.0000
 size of   fine   gmax                          :    40.9853   1/A
 finite basis set correction                    : automatic
 number of sample energies                      :          3
           sample  spacing                      :     5.0000   eV

 **************************** Electronic Parameters ****************************
  
 number of  electrons                           :  8.000    
 net charge of system                           :  0.000    
 treating system as non-spin-polarized
 number of bands                                :          4

 ********************* Electronic Minimization Parameters **********************
  
 Method: Treating system as non-metallic,
         and number of  SD  steps               :          1
         and number of  CG  steps               :          4
  
 total energy / atom convergence tol.           : 0.1000E-10   eV
 eigen-energy convergence tolerance             : 0.2000E-10   eV
 max force / atom convergence tol.              : ignored
 convergence tolerance window                   :          3   cycles
 max. number of SCF cycles                      :        100
 periodic dipole correction                     : NONE

 ************************** Density Mixing Parameters **************************
  
 density-mixing scheme                          : Broyden
 max. length of mixing history                  :         20
 charge density mixing amplitude                : 0.8000    
 cut-off energy for mixing                      :  1600.       eV

 *********************** Population Analysis Parameters ************************
  
 Population analysis with cutoff                :  3.000       A
 Population analysis output                     : summary and pdos components

 ********************** Geometry Optimization Parameters ***********************
  
 optimization method                            : LBFGS
 max. no. of LBFGS updates                      : unbounded
 variable cell method                           : fixed basis quality
 max. number of steps                           :        200
 estimated bulk modulus                         :  500.0       GPa
 estimated <frequency>                          :  1668.       cm-1
 geom line minimiser                            : on
 with line minimiser tolerance                  :     0.4000
 total energy convergence tolerance             : 0.1000E-08   eV/atom
        max ionic |force| tolerance             : 0.1000E-04   eV/A
 max ionic |displacement| tolerance             : 0.1000E-04   A
   max |stress component| tolerance             : 0.1000E-04   GPa
 convergence tolerance window                   :          2   steps
 backup results every                           :      14400   seconds
 write geom trajectory file                     : on

 *******************************************************************************
  

                           -------------------------------
                                      Unit Cell
                           -------------------------------
        Real Lattice(A)                      Reciprocal Lattice(1/A)
     1.7942132     0.0000000     0.0000000        3.501916784  -0.000000000   0.000000000
     0.0000000     2.9909763     0.0000000       -0.000000000   2.100713863   0.000000000
     0.0000000     0.0000000     2.7901646        0.000000000   0.000000000   2.251904892

                       Lattice parameters(A)       Cell Angles
                    a =      1.794213          alpha =   90.000000
                    b =      2.990976          beta  =   90.000000
                    c =      2.790165          gamma =   90.000000

                       Current cell volume =            14.973276       A**3
                                   density =             0.538527   AMU/A**3
                                           =             0.894246     g/cm^3

                           -------------------------------
                                     Cell Contents
                           -------------------------------
                         Total number of ions in cell =    8
                      Total number of species in cell =    1
                        Max number of any one species =    8

            xxxxxxxxxxxxxxxxxxxxxxxxxxxxxxxxxxxxxxxxxxxxxxxxxxxxxxxxxxxx
            x  Element    Atom        Fractional coordinates of atoms  x
            x            Number           u          v          w      x
            x----------------------------------------------------------x
            x  H            1         0.000000   0.381251   0.448837   x 
            x  H            2         0.000000   0.118749   0.948837   x 
            x  H            3         0.000000   0.881251   0.051163   x 
            x  H            4        -0.000000   0.618749   0.551163   x 
            x  H            5         0.500000   0.881251   0.448837   x 
            x  H            6         0.500000   0.618749   0.948837   x 
            x  H            7         0.500000   0.381251   0.051163   x 
            x  H            8         0.500000   0.118749   0.551163   x 
            xxxxxxxxxxxxxxxxxxxxxxxxxxxxxxxxxxxxxxxxxxxxxxxxxxxxxxxxxxxx


                         No user defined ionic velocities

                           -------------------------------
                                   Details of Species
                           -------------------------------

                               Mass of species in AMU
                                    H    1.0079400

                          Electric Quadrupole Moment (Barn)
                                    H    0.0028600 Isotope  2

                          Files used for pseudopotentials:
                                    H 0|0.7|2|6|8|10L(qc=10)

                           -------------------------------
                              k-Points For BZ Sampling
                           -------------------------------
                       MP grid size for SCF calculation is 18 18 18
                            with an offset of   0.000  0.000  0.000
                       Number of kpoints used =           729

                           -------------------------------
                               Symmetry and Constraints
                           -------------------------------

                      Cell is a supercell containing 2 primitive cells
                      Maximum deviation from symmetry = 0.303009E-14     ANG

                      Number of symmetry operations   =          16
                      Number of ionic constraints     =           3
                      Point group of crystal =     8: D2h, mmm, 2/m 2/m 2/m
                      Space group of crystal =    64: Cmce, -C 2bc 2

             Set iprint > 1 for details on symmetry rotations/translations

                         Centre of mass is constrained
             Set iprint > 1 for details of linear ionic constraints

                         Number of cell constraints= 3
                         Cell constraints are:  1 2 3 0 0 0

                         External pressure/stress (GPa)
                        150.00000   0.00000   0.00000
                                  150.00000   0.00000
                                            150.00000
  
+---------------- MEMORY AND SCRATCH DISK ESTIMATES PER PROCESS --------------+
|                                                     Memory          Disk    |
| Baseline code, static data and system overhead      479.0 MB         0.0 MB |
| BLAS internal memory storage                          0.0 MB         0.0 MB |
| Model and support data                               24.0 MB         0.0 MB |
| Electronic energy minimisation requirements          14.7 MB         0.0 MB |
| Force calculation requirements                        4.4 MB         0.0 MB |
| Stress calculation requirements                       5.6 MB         0.0 MB |
|                                               ----------------------------- |
| Approx. total storage required per process          517.7 MB         0.0 MB |
|                                                                             |
| Requirements will fluctuate during execution and may exceed these estimates |
+-----------------------------------------------------------------------------+
Calculating finite basis set correction with  3 cut-off energies.
Calculating total energy with cut-off of 1590.000 eV.
------------------------------------------------------------------------ <-- SCF
SCF loop      Energy                           Energy gain       Timer   <-- SCF
                                               per atom          (sec)   <-- SCF
------------------------------------------------------------------------ <-- SCF
Initial   1.87814535E+002                                          4.72  <-- SCF
      1  -1.02280540E+002                    3.62618843E+001       5.90  <-- SCF
      2  -1.18317770E+002                    2.00465371E+000       6.76  <-- SCF
      3  -1.18119776E+002                   -2.47491880E-002       8.07  <-- SCF
      4  -1.18111669E+002                   -1.01338375E-003       9.39  <-- SCF
      5  -1.18111886E+002                    2.71291476E-005      10.63  <-- SCF
      6  -1.18111905E+002                    2.35498043E-006      11.89  <-- SCF
      7  -1.18111905E+002                    2.78435775E-009      13.24  <-- SCF
      8  -1.18111905E+002                    1.73113395E-010      14.24  <-- SCF
      9  -1.18111905E+002                    5.80347687E-012      15.16  <-- SCF
     10  -1.18111905E+002                    2.80959578E-013      16.05  <-- SCF
------------------------------------------------------------------------ <-- SCF
 
Final energy =  -118.1119048249     eV
(energy not corrected for finite basis set)
 
Calculating total energy with cut-off of 1595.000 eV.
------------------------------------------------------------------------ <-- SCF
SCF loop      Energy                           Energy gain       Timer   <-- SCF
                                               per atom          (sec)   <-- SCF
------------------------------------------------------------------------ <-- SCF
Initial  -1.18111905E+002                                         16.66  <-- SCF
      1  -1.18111925E+002                    2.50920096E-006      17.59  <-- SCF
      2  -1.18111925E+002                    2.06641238E-012      18.53  <-- SCF
      3  -1.18111925E+002                    5.67517200E-010      19.44  <-- SCF
      4  -1.18111925E+002                    3.08693007E-011      20.39  <-- SCF
      5  -1.18111925E+002                    6.61614490E-013      21.28  <-- SCF
      6  -1.18111925E+002                    6.94846268E-014      22.18  <-- SCF
------------------------------------------------------------------------ <-- SCF
 
Final energy =  -118.1119249033     eV
(energy not corrected for finite basis set)
 
Calculating total energy with cut-off of 1600.000 eV.
------------------------------------------------------------------------ <-- SCF
SCF loop      Energy                           Energy gain       Timer   <-- SCF
                                               per atom          (sec)   <-- SCF
------------------------------------------------------------------------ <-- SCF
Initial  -1.18111925E+002                                         22.79  <-- SCF
      1  -1.18111943E+002                    2.29794194E-006      23.76  <-- SCF
      2  -1.18111943E+002                    2.58905762E-012      24.68  <-- SCF
      3  -1.18111943E+002                    5.12059404E-010      25.57  <-- SCF
      4  -1.18111943E+002                    2.75159122E-011      26.51  <-- SCF
      5  -1.18111943E+002                    9.33510855E-013      27.41  <-- SCF
      6  -1.18111943E+002                   -2.44706729E-013      28.36  <-- SCF
------------------------------------------------------------------------ <-- SCF
 
Final energy =  -118.1119432912     eV
(energy not corrected for finite basis set)
 
 For future reference: finite basis dEtot/dlog(Ecut) =      -0.006142eV
 Total energy corrected for finite basis set =    -118.111943 eV
 
+---------------- MEMORY AND SCRATCH DISK ESTIMATES PER PROCESS --------------+
|                                                     Memory          Disk    |
| Model and support data                               33.2 MB         0.0 MB |
| Electronic energy minimisation requirements          14.7 MB         0.0 MB |
| Geometry minimisation requirements                   19.5 MB         0.0 MB |
|                                               ----------------------------- |
| Approx. total storage required per process           67.4 MB         0.0 MB |
|                                                                             |
| Requirements will fluctuate during execution and may exceed these estimates |
+-----------------------------------------------------------------------------+
 

 ******************************** Symmetrised Forces ********************************
 *                                                                                  *
 *                           Cartesian components (eV/A)                            *
 * -------------------------------------------------------------------------------- *
 *                         x                    y                    z              *
 *                                                                                  *
 * H               1      0.00000              0.00000              0.00000         *
 * H               2      0.00000             -0.00000              0.00000         *
 * H               3      0.00000              0.00000             -0.00000         *
 * H               4      0.00000             -0.00000             -0.00000         *
 * H               5      0.00000              0.00000              0.00000         *
 * H               6      0.00000             -0.00000              0.00000         *
 * H               7      0.00000              0.00000             -0.00000         *
 * H               8      0.00000             -0.00000             -0.00000         *
 *                                                                                  *
 ************************************************************************************

 *********** Symmetrised Stress Tensor ***********
 *                                               *
 *          Cartesian components (GPa)           *
 * --------------------------------------------- *
 *             x             y             z     *
 *                                               *
 *  x   -159.997836     -0.000000      0.000000  *
 *  y     -0.000000   -159.997778      0.000000  *
 *  z      0.000000      0.000000   -159.997844  *
 *                                               *
 *  Pressure:  159.9978                          *
 *                                               *
 *************************************************
 LBFGS: finished iteration     0 with enthalpy= -1.04093567E+002 eV
  
 +-----------+-----------------+-----------------+------------+-----+ <-- LBFGS
 | Parameter |      value      |    tolerance    |    units   | OK? | <-- LBFGS
 +-----------+-----------------+-----------------+------------+-----+ <-- LBFGS
 |  dE/ion   |   0.000000E+000 |   1.000000E-009 |         eV | No  | <-- LBFGS
 |  |F|max   |   5.772652E-007 |   1.000000E-005 |       eV/A | Yes | <-- LBFGS
 |  |dR|max  |   0.000000E+000 |   1.000000E-005 |          A | No  | <-- LBFGS
 |   Smax    |   9.997844E+000 |   1.000000E-005 |        GPa | No  | <-- LBFGS
 +-----------+-----------------+-----------------+------------+-----+ <-- LBFGS
  

================================================================================
 Starting LBFGS iteration          1 ...
================================================================================
  
 +------------+-------------+-------------+-----------------+ <-- min LBFGS
 |    Step    |   lambda    |   F.delta'  |    enthalpy     | <-- min LBFGS
 +------------+-------------+-------------+-----------------+ <-- min LBFGS
 |  previous  |    0.000000 |    0.059473 |     -104.093567 | <-- min LBFGS
 +------------+-------------+-------------+-----------------+ <-- min LBFGS
  

--------------------------------------------------------------------------------
 LBFGS: starting iteration         1 with trial guess (lambda=  1.000000)
--------------------------------------------------------------------------------
 
+---------------- MEMORY AND SCRATCH DISK ESTIMATES PER PROCESS --------------+
|                                                     Memory          Disk    |
| Model and support data                               33.4 MB         0.0 MB |
| Electronic energy minimisation requirements          14.9 MB         0.0 MB |
| Geometry minimisation requirements                   19.8 MB         0.0 MB |
|                                               ----------------------------- |
| Approx. total storage required per process           68.1 MB         0.0 MB |
|                                                                             |
| Requirements will fluctuate during execution and may exceed these estimates |
+-----------------------------------------------------------------------------+
 

                           -------------------------------
                                      Unit Cell
                           -------------------------------
        Real Lattice(A)              Reciprocal Lattice(1/A)
     1.8061720     0.0000000     0.0000000        3.478730266  -0.000000000   0.000000000
     0.0000000     3.0109117     0.0000000       -0.000000000   2.086804922   0.000000000
     0.0000000     0.0000000     2.8087617        0.000000000   0.000000000   2.236994809

                       Lattice parameters(A)       Cell Angles
                    a =      1.806172          alpha =   90.000000
                    b =      3.010912          beta  =   90.000000
                    c =      2.808762          gamma =   90.000000

                Current cell volume =            15.274676 A**3

                           -------------------------------
                                     Cell Contents
                           -------------------------------

            xxxxxxxxxxxxxxxxxxxxxxxxxxxxxxxxxxxxxxxxxxxxxxxxxxxxxxxxxxxxxxxxx
            x  Element         Atom        Fractional coordinates of atoms  x
            x                 Number           u          v          w      x
            x---------------------------------------------------------------x
            x  H                 1        -0.000000   0.381251   0.448837   x
            x  H                 2         0.000000   0.118749   0.948837   x
            x  H                 3        -0.000000   0.881251   0.051163   x
            x  H                 4         0.000000   0.618749   0.551163   x
            x  H                 5         0.500000   0.881251   0.448837   x
            x  H                 6         0.500000   0.618749   0.948837   x
            x  H                 7         0.500000   0.381251   0.051163   x
            x  H                 8         0.500000   0.118749   0.551163   x
            xxxxxxxxxxxxxxxxxxxxxxxxxxxxxxxxxxxxxxxxxxxxxxxxxxxxxxxxxxxxxxxxx


------------------------------------------------------------------------ <-- SCF
SCF loop      Energy                           Energy gain       Timer   <-- SCF
                                               per atom          (sec)   <-- SCF
------------------------------------------------------------------------ <-- SCF
Initial  -1.18401637E+002                                         29.83  <-- SCF
      1  -1.18404162E+002                    3.15599638E-004      30.81  <-- SCF
      2  -1.18404176E+002                    1.68700512E-006      32.12  <-- SCF
      3  -1.18404140E+002                   -4.48343228E-006      33.39  <-- SCF
      4  -1.18404139E+002                   -1.08604324E-007      34.68  <-- SCF
      5  -1.18404139E+002                    5.49849072E-009      35.94  <-- SCF
      6  -1.18404139E+002                    5.22231350E-010      37.23  <-- SCF
      7  -1.18404139E+002                    7.46204470E-013      38.15  <-- SCF
      8  -1.18404139E+002                    2.38664588E-013      39.07  <-- SCF
------------------------------------------------------------------------ <-- SCF
 
Final energy =  -118.4041389517     eV
(energy not corrected for finite basis set)
 

 ******************************** Symmetrised Forces ********************************
 *                                                                                  *
 *                           Cartesian components (eV/A)                            *
 * -------------------------------------------------------------------------------- *
 *                         x                    y                    z              *
 *                                                                                  *
 * H               1      0.00000              0.10478              0.04596         *
 * H               2     -0.00000             -0.10478              0.04596         *
 * H               3      0.00000              0.10478             -0.04596         *
 * H               4     -0.00000             -0.10478             -0.04596         *
 * H               5      0.00000              0.10478              0.04596         *
 * H               6     -0.00000             -0.10478              0.04596         *
 * H               7      0.00000              0.10478             -0.04596         *
 * H               8     -0.00000             -0.10478             -0.04596         *
 *                                                                                  *
 ************************************************************************************

 *********** Symmetrised Stress Tensor ***********
 *                                               *
 *          Cartesian components (GPa)           *
 * --------------------------------------------- *
 *             x             y             z     *
 *                                               *
 *  x   -152.002058     -0.000000      0.000000  *
 *  y     -0.000000   -148.409919      0.000000  *
 *  z      0.000000      0.000000   -151.871815  *
 *                                               *
 *  Pressure:  150.7613                          *
 *                                               *
 *************************************************
  
 +------------+-------------+-------------+-----------------+ <-- min LBFGS
 |    Step    |   lambda    |   F.delta'  |    enthalpy     | <-- min LBFGS
 +------------+-------------+-------------+-----------------+ <-- min LBFGS
 |  previous  |    0.000000 |    0.059473 |     -104.093567 | <-- min LBFGS
 | trial step |    1.000000 |    0.004589 |     -104.103584 | <-- min LBFGS
 +------------+-------------+-------------+-----------------+ <-- min LBFGS
  
 LBFGS: finished iteration     1 with enthalpy= -1.04103584E+002 eV
  
 +-----------+-----------------+-----------------+------------+-----+ <-- LBFGS
 | Parameter |      value      |    tolerance    |    units   | OK? | <-- LBFGS
 +-----------+-----------------+-----------------+------------+-----+ <-- LBFGS
 |  dE/ion   |   1.252096E-003 |   1.000000E-009 |         eV | No  | <-- LBFGS
 |  |F|max   |   1.144138E-001 |   1.000000E-005 |       eV/A | No  | <-- LBFGS
 |  |dR|max  |   5.636212E-008 |   1.000000E-005 |          A | Yes | <-- LBFGS
 |   Smax    |   2.002058E+000 |   1.000000E-005 |        GPa | No  | <-- LBFGS
 +-----------+-----------------+-----------------+------------+-----+ <-- LBFGS
  

================================================================================
 Starting LBFGS iteration          2 ...
================================================================================
  
 +------------+-------------+-------------+-----------------+ <-- min LBFGS
 |    Step    |   lambda    |   F.delta'  |    enthalpy     | <-- min LBFGS
 +------------+-------------+-------------+-----------------+ <-- min LBFGS
 |  previous  |    0.000000 |    0.032052 |     -104.103584 | <-- min LBFGS
 +------------+-------------+-------------+-----------------+ <-- min LBFGS
  

--------------------------------------------------------------------------------
 LBFGS: starting iteration         2 with trial guess (lambda=  1.000000)
--------------------------------------------------------------------------------
 
+---------------- MEMORY AND SCRATCH DISK ESTIMATES PER PROCESS --------------+
|                                                     Memory          Disk    |
| Model and support data                               33.6 MB         0.0 MB |
| Electronic energy minimisation requirements          15.1 MB         0.0 MB |
| Geometry minimisation requirements                   20.0 MB         0.0 MB |
|                                               ----------------------------- |
| Approx. total storage required per process           68.7 MB         0.0 MB |
|                                                                             |
| Requirements will fluctuate during execution and may exceed these estimates |
+-----------------------------------------------------------------------------+
 

                           -------------------------------
                                      Unit Cell
                           -------------------------------
        Real Lattice(A)              Reciprocal Lattice(1/A)
     1.8169373     0.0000000     0.0000000        3.458118931  -0.000000000   0.000000000
     0.0000000     3.0209921     0.0000000       -0.000000000   2.079841717   0.000000000
     0.0000000     0.0000000     2.8252366        0.000000000   0.000000000   2.223950094

                       Lattice parameters(A)       Cell Angles
                    a =      1.816937          alpha =   90.000000
                    b =      3.020992          beta  =   90.000000
                    c =      2.825237          gamma =   90.000000

                Current cell volume =            15.507592 A**3

                           -------------------------------
                                     Cell Contents
                           -------------------------------

            xxxxxxxxxxxxxxxxxxxxxxxxxxxxxxxxxxxxxxxxxxxxxxxxxxxxxxxxxxxxxxxxx
            x  Element         Atom        Fractional coordinates of atoms  x
            x                 Number           u          v          w      x
            x---------------------------------------------------------------x
            x  H                 1        -0.000000   0.384957   0.450580   x
            x  H                 2         0.000000   0.115043   0.950580   x
            x  H                 3         0.000000   0.884957   0.049420   x
            x  H                 4        -0.000000   0.615043   0.549420   x
            x  H                 5         0.500000   0.884957   0.450580   x
            x  H                 6         0.500000   0.615043   0.950580   x
            x  H                 7         0.500000   0.384957   0.049420   x
            x  H                 8         0.500000   0.115043   0.549420   x
            xxxxxxxxxxxxxxxxxxxxxxxxxxxxxxxxxxxxxxxxxxxxxxxxxxxxxxxxxxxxxxxxx


------------------------------------------------------------------------ <-- SCF
SCF loop      Energy                           Energy gain       Timer   <-- SCF
                                               per atom          (sec)   <-- SCF
------------------------------------------------------------------------ <-- SCF
Initial  -1.18489755E+002                                         40.29  <-- SCF
      1  -1.18623459E+002                    1.67131105E-002      41.31  <-- SCF
      2  -1.18623954E+002                    6.17689212E-005      42.60  <-- SCF
      3  -1.18615632E+002                   -1.04023988E-003      43.86  <-- SCF
      4  -1.18615235E+002                   -4.96401738E-005      45.15  <-- SCF
      5  -1.18615236E+002                    1.52788175E-007      46.41  <-- SCF
      6  -1.18615236E+002                    1.11475002E-008      47.68  <-- SCF
      7  -1.18615236E+002                    4.26514766E-011      48.62  <-- SCF
      8  -1.18615236E+002                    1.59512535E-012      49.53  <-- SCF
      9  -1.18615236E+002                    3.29296710E-013      50.45  <-- SCF
------------------------------------------------------------------------ <-- SCF
 
Final energy =  -118.6152358948     eV
(energy not corrected for finite basis set)
 

 ******************************** Symmetrised Forces ********************************
 *                                                                                  *
 *                           Cartesian components (eV/A)                            *
 * -------------------------------------------------------------------------------- *
 *                         x                    y                    z              *
 *                                                                                  *
 * H               1      0.00000             -0.26463             -0.11548         *
 * H               2      0.00000              0.26463             -0.11548         *
 * H               3      0.00000             -0.26463              0.11548         *
 * H               4      0.00000              0.26463              0.11548         *
 * H               5      0.00000             -0.26463             -0.11548         *
 * H               6      0.00000              0.26463             -0.11548         *
 * H               7      0.00000             -0.26463              0.11548         *
 * H               8      0.00000              0.26463              0.11548         *
 *                                                                                  *
 ************************************************************************************

 *********** Symmetrised Stress Tensor ***********
 *                                               *
 *          Cartesian components (GPa)           *
 * --------------------------------------------- *
 *             x             y             z     *
 *                                               *
 *  x   -149.485216     -0.000000      0.000000  *
 *  y     -0.000000   -152.301730      0.000000  *
 *  z      0.000000      0.000000   -149.871635  *
 *                                               *
 *  Pressure:  150.5529                          *
 *                                               *
 *************************************************
  
 +------------+-------------+-------------+-----------------+ <-- min LBFGS
 |    Step    |   lambda    |   F.delta'  |    enthalpy     | <-- min LBFGS
 +------------+-------------+-------------+-----------------+ <-- min LBFGS
 |  previous  |    0.000000 |    0.032052 |     -104.103584 | <-- min LBFGS
 | trial step |    1.000000 |   -0.069639 |     -104.096620 | <-- min LBFGS
 +------------+-------------+-------------+-----------------+ <-- min LBFGS
  

--------------------------------------------------------------------------------
 LBFGS: improving iteration         2 with line minimization (lambda=  0.315189)
--------------------------------------------------------------------------------

                           -------------------------------
                                      Unit Cell
                           -------------------------------
        Real Lattice(A)              Reciprocal Lattice(1/A)
     1.8095651     0.0000000     0.0000000        3.472207326  -0.000000000   0.000000000
     0.0000000     3.0140889     0.0000000       -0.000000000   2.084605167   0.000000000
     0.0000000     0.0000000     2.8139544        0.000000000   0.000000000   2.232866769

                       Lattice parameters(A)       Cell Angles
                    a =      1.809565          alpha =   90.000000
                    b =      3.014089          beta  =   90.000000
                    c =      2.813954          gamma =   90.000000

                Current cell volume =            15.347843 A**3

                           -------------------------------
                                     Cell Contents
                           -------------------------------

            xxxxxxxxxxxxxxxxxxxxxxxxxxxxxxxxxxxxxxxxxxxxxxxxxxxxxxxxxxxxxxxxx
            x  Element         Atom        Fractional coordinates of atoms  x
            x                 Number           u          v          w      x
            x---------------------------------------------------------------x
            x  H                 1        -0.000000   0.382419   0.449387   x
            x  H                 2         0.000000   0.117581   0.949387   x
            x  H                 3         0.000000   0.882419   0.050613   x
            x  H                 4        -0.000000   0.617581   0.550613   x
            x  H                 5         0.500000   0.882419   0.449387   x
            x  H                 6         0.500000   0.617581   0.949387   x
            x  H                 7         0.500000   0.382419   0.050613   x
            x  H                 8         0.500000   0.117581   0.550613   x
            xxxxxxxxxxxxxxxxxxxxxxxxxxxxxxxxxxxxxxxxxxxxxxxxxxxxxxxxxxxxxxxxx


------------------------------------------------------------------------ <-- SCF
SCF loop      Energy                           Energy gain       Timer   <-- SCF
                                               per atom          (sec)   <-- SCF
------------------------------------------------------------------------ <-- SCF
Initial  -1.18414425E+002                                         51.63  <-- SCF
      1  -1.18478741E+002                    8.03946786E-003      52.61  <-- SCF
      2  -1.18478974E+002                    2.91551343E-005      53.84  <-- SCF
      3  -1.18474939E+002                   -5.04328357E-004      55.11  <-- SCF
      4  -1.18474749E+002                   -2.37334603E-005      56.38  <-- SCF
      5  -1.18474750E+002                    6.34498567E-008      57.60  <-- SCF
      6  -1.18474750E+002                    4.42331279E-009      58.86  <-- SCF
      7  -1.18474750E+002                    1.16250802E-011      59.76  <-- SCF
      8  -1.18474750E+002                    7.52246612E-013      60.68  <-- SCF
      9  -1.18474750E+002                    6.61614490E-013      61.58  <-- SCF
------------------------------------------------------------------------ <-- SCF
 
Final energy =  -118.4747498124     eV
(energy not corrected for finite basis set)
 

 ******************************** Symmetrised Forces ********************************
 *                                                                                  *
 *                           Cartesian components (eV/A)                            *
 * -------------------------------------------------------------------------------- *
 *                         x                    y                    z              *
 *                                                                                  *
 * H               1      0.00000             -0.00522             -0.00243         *
 * H               2     -0.00000              0.00522             -0.00243         *
 * H               3     -0.00000             -0.00522              0.00243         *
 * H               4     -0.00000              0.00522              0.00243         *
 * H               5      0.00000             -0.00522             -0.00243         *
 * H               6     -0.00000              0.00522             -0.00243         *
 * H               7     -0.00000             -0.00522              0.00243         *
 * H               8     -0.00000              0.00522              0.00243         *
 *                                                                                  *
 ************************************************************************************

 *********** Symmetrised Stress Tensor ***********
 *                                               *
 *          Cartesian components (GPa)           *
 * --------------------------------------------- *
 *             x             y             z     *
 *                                               *
 *  x   -151.027684      0.000000      0.000000  *
 *  y      0.000000   -149.651214      0.000000  *
 *  z      0.000000      0.000000   -151.077008  *
 *                                               *
 *  Pressure:  150.5853                          *
 *                                               *
 *************************************************
  
 +------------+-------------+-------------+-----------------+ <-- min LBFGS
 |    Step    |   lambda    |   F.delta'  |    enthalpy     | <-- min LBFGS
 +------------+-------------+-------------+-----------------+ <-- min LBFGS
 |  previous  |    0.000000 |    0.032052 |     -104.103584 | <-- min LBFGS
 | trial step |    1.000000 |   -0.069639 |     -104.096620 | <-- min LBFGS
 |  line step |    0.315189 |    0.001290 |     -104.105695 | <-- min LBFGS
 +------------+-------------+-------------+-----------------+ <-- min LBFGS
  
 LBFGS: finished iteration     2 with enthalpy= -1.04105695E+002 eV
  
 +-----------+-----------------+-----------------+------------+-----+ <-- LBFGS
 | Parameter |      value      |    tolerance    |    units   | OK? | <-- LBFGS
 +-----------+-----------------+-----------------+------------+-----+ <-- LBFGS
 |  dE/ion   |   2.638645E-004 |   1.000000E-009 |         eV | No  | <-- LBFGS
 |  |F|max   |   5.754272E-003 |   1.000000E-005 |       eV/A | No  | <-- LBFGS
 |  |dR|max  |   3.845366E-003 |   1.000000E-005 |          A | No  | <-- LBFGS
 |   Smax    |   1.077008E+000 |   1.000000E-005 |        GPa | No  | <-- LBFGS
 +-----------+-----------------+-----------------+------------+-----+ <-- LBFGS
  

================================================================================
 Starting LBFGS iteration          3 ...
================================================================================
  
 +------------+-------------+-------------+-----------------+ <-- min LBFGS
 |    Step    |   lambda    |   F.delta'  |    enthalpy     | <-- min LBFGS
 +------------+-------------+-------------+-----------------+ <-- min LBFGS
 |  previous  |    0.000000 |    0.005342 |     -104.105695 | <-- min LBFGS
 +------------+-------------+-------------+-----------------+ <-- min LBFGS
  

--------------------------------------------------------------------------------
 LBFGS: starting iteration         3 with trial guess (lambda=  1.000000)
--------------------------------------------------------------------------------

                           -------------------------------
                                      Unit Cell
                           -------------------------------
        Real Lattice(A)              Reciprocal Lattice(1/A)
     1.8111550     0.0000000     0.0000000        3.469159403  -0.000000000   0.000000000
     0.0000000     3.0134596     0.0000000       -0.000000000   2.085040523   0.000000000
     0.0000000     0.0000000     2.8165114        0.000000000   0.000000000   2.230839665

                       Lattice parameters(A)       Cell Angles
                    a =      1.811155          alpha =   90.000000
                    b =      3.013460          beta  =   90.000000
                    c =      2.816511          gamma =   90.000000

                Current cell volume =            15.372075 A**3

                           -------------------------------
                                     Cell Contents
                           -------------------------------

            xxxxxxxxxxxxxxxxxxxxxxxxxxxxxxxxxxxxxxxxxxxxxxxxxxxxxxxxxxxxxxxxx
            x  Element         Atom        Fractional coordinates of atoms  x
            x                 Number           u          v          w      x
            x---------------------------------------------------------------x
            x  H                 1        -0.000000   0.382417   0.449380   x
            x  H                 2         0.000000   0.117583   0.949380   x
            x  H                 3         0.000000   0.882417   0.050620   x
            x  H                 4        -0.000000   0.617583   0.550620   x
            x  H                 5         0.500000   0.882417   0.449380   x
            x  H                 6         0.500000   0.617583   0.949380   x
            x  H                 7         0.500000   0.382417   0.050620   x
            x  H                 8         0.500000   0.117583   0.550620   x
            xxxxxxxxxxxxxxxxxxxxxxxxxxxxxxxxxxxxxxxxxxxxxxxxxxxxxxxxxxxxxxxxx


------------------------------------------------------------------------ <-- SCF
SCF loop      Energy                           Energy gain       Timer   <-- SCF
                                               per atom          (sec)   <-- SCF
------------------------------------------------------------------------ <-- SCF
Initial  -1.18497442E+002                                         62.80  <-- SCF
      1  -1.18497569E+002                    1.58695905E-005      63.77  <-- SCF
      2  -1.18497570E+002                    8.86922622E-008      65.04  <-- SCF
      3  -1.18497568E+002                   -2.23565518E-007      66.29  <-- SCF
      4  -1.18497568E+002                   -4.41395654E-009      67.57  <-- SCF
      5  -1.18497568E+002                    2.20710364E-010      68.68  <-- SCF
      6  -1.18497568E+002                    2.08181984E-011      69.58  <-- SCF
      7  -1.18497568E+002                    1.02716405E-013      70.48  <-- SCF
      8  -1.18497568E+002                    4.44097397E-013      71.38  <-- SCF
------------------------------------------------------------------------ <-- SCF
 
Final energy =  -118.4975680903     eV
(energy not corrected for finite basis set)
 

 ******************************** Symmetrised Forces ********************************
 *                                                                                  *
 *                           Cartesian components (eV/A)                            *
 * -------------------------------------------------------------------------------- *
 *                         x                    y                    z              *
 *                                                                                  *
 * H               1      0.00000             -0.00094             -0.00049         *
 * H               2      0.00000              0.00094             -0.00049         *
 * H               3      0.00000             -0.00094              0.00049         *
 * H               4     -0.00000              0.00094              0.00049         *
 * H               5     -0.00000             -0.00094             -0.00049         *
 * H               6      0.00000              0.00094             -0.00049         *
 * H               7      0.00000             -0.00094              0.00049         *
 * H               8     -0.00000              0.00094              0.00049         *
 *                                                                                  *
 ************************************************************************************

 *********** Symmetrised Stress Tensor ***********
 *                                               *
 *          Cartesian components (GPa)           *
 * --------------------------------------------- *
 *             x             y             z     *
 *                                               *
 *  x   -150.422333      0.000000      0.000000  *
 *  y      0.000000   -149.275774      0.000000  *
 *  z      0.000000      0.000000   -150.321699  *
 *                                               *
 *  Pressure:  150.0066                          *
 *                                               *
 *************************************************
  
 +------------+-------------+-------------+-----------------+ <-- min LBFGS
 |    Step    |   lambda    |   F.delta'  |    enthalpy     | <-- min LBFGS
 +------------+-------------+-------------+-----------------+ <-- min LBFGS
 |  previous  |    0.000000 |    0.005342 |     -104.105695 | <-- min LBFGS
 | trial step |    1.000000 |    0.002225 |     -104.105826 | <-- min LBFGS
 +------------+-------------+-------------+-----------------+ <-- min LBFGS
  

--------------------------------------------------------------------------------
 LBFGS: improving iteration         3 with line minimization (lambda=  1.713676)
--------------------------------------------------------------------------------

                           -------------------------------
                                      Unit Cell
                           -------------------------------
        Real Lattice(A)              Reciprocal Lattice(1/A)
     1.8122896     0.0000000     0.0000000        3.466987445  -0.000000000   0.000000000
     0.0000000     3.0130104     0.0000000       -0.000000000   2.085351337   0.000000000
     0.0000000     0.0000000     2.8183362        0.000000000   0.000000000   2.229395219

                       Lattice parameters(A)       Cell Angles
                    a =      1.812290          alpha =   90.000000
                    b =      3.013010          beta  =   90.000000
                    c =      2.818336          gamma =   90.000000

                Current cell volume =            15.389377 A**3

                           -------------------------------
                                     Cell Contents
                           -------------------------------

            xxxxxxxxxxxxxxxxxxxxxxxxxxxxxxxxxxxxxxxxxxxxxxxxxxxxxxxxxxxxxxxxx
            x  Element         Atom        Fractional coordinates of atoms  x
            x                 Number           u          v          w      x
            x---------------------------------------------------------------x
            x  H                 1        -0.000000   0.382416   0.449376   x
            x  H                 2         0.000000   0.117584   0.949376   x
            x  H                 3         0.000000   0.882416   0.050624   x
            x  H                 4        -0.000000   0.617584   0.550624   x
            x  H                 5         0.500000   0.882416   0.449376   x
            x  H                 6         0.500000   0.617584   0.949376   x
            x  H                 7         0.500000   0.382416   0.050624   x
            x  H                 8         0.500000   0.117584   0.550624   x
            xxxxxxxxxxxxxxxxxxxxxxxxxxxxxxxxxxxxxxxxxxxxxxxxxxxxxxxxxxxxxxxxx


------------------------------------------------------------------------ <-- SCF
SCF loop      Energy                           Energy gain       Timer   <-- SCF
                                               per atom          (sec)   <-- SCF
------------------------------------------------------------------------ <-- SCF
Initial  -1.18513728E+002                                         72.58  <-- SCF
      1  -1.18513795E+002                    8.31806256E-006      73.55  <-- SCF
      2  -1.18513795E+002                    4.51732308E-008      74.83  <-- SCF
      3  -1.18513794E+002                   -1.17917143E-007      76.09  <-- SCF
      4  -1.18513794E+002                   -2.39364872E-009      77.37  <-- SCF
      5  -1.18513794E+002                    1.14565044E-010      78.30  <-- SCF
      6  -1.18513794E+002                    1.07610539E-011      79.21  <-- SCF
      7  -1.18513794E+002                    3.56486346E-013      80.13  <-- SCF
      8  -1.18513794E+002                   -3.41380992E-013      81.11  <-- SCF
------------------------------------------------------------------------ <-- SCF
 
Final energy =  -118.5137944030     eV
(energy not corrected for finite basis set)
 

 ******************************** Symmetrised Forces ********************************
 *                                                                                  *
 *                           Cartesian components (eV/A)                            *
 * -------------------------------------------------------------------------------- *
 *                         x                    y                    z              *
 *                                                                                  *
 * H               1      0.00000              0.00236              0.00099         *
 * H               2      0.00000             -0.00236              0.00099         *
 * H               3      0.00000              0.00236             -0.00099         *
 * H               4      0.00000             -0.00236             -0.00099         *
 * H               5      0.00000              0.00236              0.00099         *
 * H               6      0.00000             -0.00236              0.00099         *
 * H               7      0.00000              0.00236             -0.00099         *
 * H               8      0.00000             -0.00236             -0.00099         *
 *                                                                                  *
 ************************************************************************************

 *********** Symmetrised Stress Tensor ***********
 *                                               *
 *          Cartesian components (GPa)           *
 * --------------------------------------------- *
 *             x             y             z     *
 *                                               *
 *  x   -150.009392      0.000000      0.000000  *
 *  y      0.000000   -148.989422      0.000000  *
 *  z      0.000000      0.000000   -149.791711  *
 *                                               *
 *  Pressure:  149.5968                          *
 *                                               *
 *************************************************
  
 +------------+-------------+-------------+-----------------+ <-- min LBFGS
 |    Step    |   lambda    |   F.delta'  |    enthalpy     | <-- min LBFGS
 +------------+-------------+-------------+-----------------+ <-- min LBFGS
 |  previous  |    0.000000 |    0.005342 |     -104.105695 | <-- min LBFGS
 | trial step |    1.000000 |    0.002225 |     -104.105826 | <-- min LBFGS
 |  line step |    1.713676 |    0.000076 |     -104.105854 | <-- min LBFGS
 +------------+-------------+-------------+-----------------+ <-- min LBFGS
  
 LBFGS: finished iteration     3 with enthalpy= -1.04105854E+002 eV
  
 +-----------+-----------------+-----------------+------------+-----+ <-- LBFGS
 | Parameter |      value      |    tolerance    |    units   | OK? | <-- LBFGS
 +-----------+-----------------+-----------------+------------+-----+ <-- LBFGS
 |  dE/ion   |   1.991440E-005 |   1.000000E-009 |         eV | No  | <-- LBFGS
 |  |F|max   |   2.559737E-003 |   1.000000E-005 |       eV/A | No  | <-- LBFGS
 |  |dR|max  |   3.185761E-005 |   1.000000E-005 |          A | No  | <-- LBFGS
 |   Smax    |   1.010578E+000 |   1.000000E-005 |        GPa | No  | <-- LBFGS
 +-----------+-----------------+-----------------+------------+-----+ <-- LBFGS
  

================================================================================
 Starting LBFGS iteration          4 ...
================================================================================
  
 +------------+-------------+-------------+-----------------+ <-- min LBFGS
 |    Step    |   lambda    |   F.delta'  |    enthalpy     | <-- min LBFGS
 +------------+-------------+-------------+-----------------+ <-- min LBFGS
 |  previous  |    0.000000 |    0.003008 |     -104.105854 | <-- min LBFGS
 +------------+-------------+-------------+-----------------+ <-- min LBFGS
  

--------------------------------------------------------------------------------
 LBFGS: starting iteration         4 with trial guess (lambda=  1.000000)
--------------------------------------------------------------------------------

                           -------------------------------
                                      Unit Cell
                           -------------------------------
        Real Lattice(A)              Reciprocal Lattice(1/A)
     1.8127722     0.0000000     0.0000000        3.466064508  -0.000000000   0.000000000
     0.0000000     3.0108301     0.0000000       -0.000000000   2.086861430   0.000000000
     0.0000000     0.0000000     2.8187060        0.000000000   0.000000000   2.229102764

                       Lattice parameters(A)       Cell Angles
                    a =      1.812772          alpha =   90.000000
                    b =      3.010830          beta  =   90.000000
                    c =      2.818706          gamma =   90.000000

                Current cell volume =            15.384354 A**3

                           -------------------------------
                                     Cell Contents
                           -------------------------------

            xxxxxxxxxxxxxxxxxxxxxxxxxxxxxxxxxxxxxxxxxxxxxxxxxxxxxxxxxxxxxxxxx
            x  Element         Atom        Fractional coordinates of atoms  x
            x                 Number           u          v          w      x
            x---------------------------------------------------------------x
            x  H                 1        -0.000000   0.382378   0.449355   x
            x  H                 2         0.000000   0.117622   0.949355   x
            x  H                 3         0.000000   0.882378   0.050645   x
            x  H                 4        -0.000000   0.617622   0.550645   x
            x  H                 5         0.500000   0.882378   0.449355   x
            x  H                 6         0.500000   0.617622   0.949355   x
            x  H                 7         0.500000   0.382378   0.050645   x
            x  H                 8         0.500000   0.117622   0.550645   x
            xxxxxxxxxxxxxxxxxxxxxxxxxxxxxxxxxxxxxxxxxxxxxxxxxxxxxxxxxxxxxxxxx


------------------------------------------------------------------------ <-- SCF
SCF loop      Energy                           Energy gain       Timer   <-- SCF
                                               per atom          (sec)   <-- SCF
------------------------------------------------------------------------ <-- SCF
Initial  -1.18509089E+002                                         82.34  <-- SCF
      1  -1.18509141E+002                    6.49777732E-006      83.33  <-- SCF
      2  -1.18509141E+002                    4.77488507E-008      84.72  <-- SCF
      3  -1.18509142E+002                    9.71687492E-008      85.98  <-- SCF
      4  -1.18509142E+002                    8.38774911E-009      87.23  <-- SCF
      5  -1.18509142E+002                    3.52317268E-011      88.20  <-- SCF
      6  -1.18509142E+002                    3.09961857E-012      89.15  <-- SCF
      7  -1.18509142E+002                    4.74308105E-013      90.07  <-- SCF
------------------------------------------------------------------------ <-- SCF
 
Final energy =  -118.5091417619     eV
(energy not corrected for finite basis set)
 

 ******************************** Symmetrised Forces ********************************
 *                                                                                  *
 *                           Cartesian components (eV/A)                            *
 * -------------------------------------------------------------------------------- *
 *                         x                    y                    z              *
 *                                                                                  *
 * H               1      0.00000              0.00130              0.00057         *
 * H               2      0.00000             -0.00130              0.00057         *
 * H               3     -0.00000              0.00130             -0.00057         *
 * H               4     -0.00000             -0.00130             -0.00057         *
 * H               5      0.00000              0.00130              0.00057         *
 * H               6      0.00000             -0.00130              0.00057         *
 * H               7      0.00000              0.00130             -0.00057         *
 * H               8     -0.00000             -0.00130             -0.00057         *
 *                                                                                  *
 ************************************************************************************

 *********** Symmetrised Stress Tensor ***********
 *                                               *
 *          Cartesian components (GPa)           *
 * --------------------------------------------- *
 *             x             y             z     *
 *                                               *
 *  x   -150.102244      0.000000      0.000000  *
 *  y      0.000000   -149.469888      0.000000  *
 *  z      0.000000      0.000000   -149.820399  *
 *                                               *
 *  Pressure:  149.7975                          *
 *                                               *
 *************************************************
  
 +------------+-------------+-------------+-----------------+ <-- min LBFGS
 |    Step    |   lambda    |   F.delta'  |    enthalpy     | <-- min LBFGS
 +------------+-------------+-------------+-----------------+ <-- min LBFGS
 |  previous  |    0.000000 |    0.003008 |     -104.105854 | <-- min LBFGS
 | trial step |    1.000000 |    0.001649 |     -104.105904 | <-- min LBFGS
 +------------+-------------+-------------+-----------------+ <-- min LBFGS
  

--------------------------------------------------------------------------------
 LBFGS: improving iteration         4 with line minimization (lambda=  2.213047)
--------------------------------------------------------------------------------

                           -------------------------------
                                      Unit Cell
                           -------------------------------
        Real Lattice(A)              Reciprocal Lattice(1/A)
     1.8133576     0.0000000     0.0000000        3.464945602  -0.000000000   0.000000000
     0.0000000     3.0081854     0.0000000       -0.000000000   2.088696182   0.000000000
     0.0000000     0.0000000     2.8191545        0.000000000   0.000000000   2.228748105

                       Lattice parameters(A)       Cell Angles
                    a =      1.813358          alpha =   90.000000
                    b =      3.008185          beta  =   90.000000
                    c =      2.819155          gamma =   90.000000

                Current cell volume =            15.378250 A**3

                           -------------------------------
                                     Cell Contents
                           -------------------------------

            xxxxxxxxxxxxxxxxxxxxxxxxxxxxxxxxxxxxxxxxxxxxxxxxxxxxxxxxxxxxxxxxx
            x  Element         Atom        Fractional coordinates of atoms  x
            x                 Number           u          v          w      x
            x---------------------------------------------------------------x
            x  H                 1        -0.000000   0.382333   0.449330   x
            x  H                 2         0.000000   0.117667   0.949330   x
            x  H                 3         0.000000   0.882333   0.050670   x
            x  H                 4        -0.000000   0.617667   0.550670   x
            x  H                 5         0.500000   0.882333   0.449330   x
            x  H                 6         0.500000   0.617667   0.949330   x
            x  H                 7         0.500000   0.382333   0.050670   x
            x  H                 8         0.500000   0.117667   0.550670   x
            xxxxxxxxxxxxxxxxxxxxxxxxxxxxxxxxxxxxxxxxxxxxxxxxxxxxxxxxxxxxxxxxx


------------------------------------------------------------------------ <-- SCF
SCF loop      Energy                           Energy gain       Timer   <-- SCF
                                               per atom          (sec)   <-- SCF
------------------------------------------------------------------------ <-- SCF
Initial  -1.18503371E+002                                         91.26  <-- SCF
      1  -1.18503448E+002                    9.69473506E-006      92.25  <-- SCF
      2  -1.18503449E+002                    7.20469479E-008      93.54  <-- SCF
      3  -1.18503450E+002                    1.43931145E-007      94.80  <-- SCF
      4  -1.18503450E+002                    1.24270838E-008      96.05  <-- SCF
      5  -1.18503450E+002                    5.20439855E-011      97.04  <-- SCF
      6  -1.18503450E+002                    4.93340850E-012      97.95  <-- SCF
      7  -1.18503450E+002                    3.62528488E-014      98.87  <-- SCF
------------------------------------------------------------------------ <-- SCF
 
Final energy =  -118.5034500400     eV
(energy not corrected for finite basis set)
 

 ******************************** Symmetrised Forces ********************************
 *                                                                                  *
 *                           Cartesian components (eV/A)                            *
 * -------------------------------------------------------------------------------- *
 *                         x                    y                    z              *
 *                                                                                  *
 * H               1     -0.00000              0.00024              0.00015         *
 * H               2     -0.00000             -0.00024              0.00015         *
 * H               3     -0.00000              0.00024             -0.00015         *
 * H               4      0.00000             -0.00024             -0.00015         *
 * H               5     -0.00000              0.00024              0.00015         *
 * H               6     -0.00000             -0.00024              0.00015         *
 * H               7     -0.00000              0.00024             -0.00015         *
 * H               8      0.00000             -0.00024             -0.00015         *
 *                                                                                  *
 ************************************************************************************

 *********** Symmetrised Stress Tensor ***********
 *                                               *
 *          Cartesian components (GPa)           *
 * --------------------------------------------- *
 *             x             y             z     *
 *                                               *
 *  x   -150.233800      0.000000      0.000000  *
 *  y      0.000000   -150.034811      0.000000  *
 *  z      0.000000      0.000000   -149.861204  *
 *                                               *
 *  Pressure:  150.0433                          *
 *                                               *
 *************************************************
  
 +------------+-------------+-------------+-----------------+ <-- min LBFGS
 |    Step    |   lambda    |   F.delta'  |    enthalpy     | <-- min LBFGS
 +------------+-------------+-------------+-----------------+ <-- min LBFGS
 |  previous  |    0.000000 |    0.003008 |     -104.105854 | <-- min LBFGS
 | trial step |    1.000000 |    0.001649 |     -104.105904 | <-- min LBFGS
 |  line step |    2.213047 |    0.000070 |     -104.105927 | <-- min LBFGS
 +------------+-------------+-------------+-----------------+ <-- min LBFGS
  
 LBFGS: finished iteration     4 with enthalpy= -1.04105927E+002 eV
  
 +-----------+-----------------+-----------------+------------+-----+ <-- LBFGS
 | Parameter |      value      |    tolerance    |    units   | OK? | <-- LBFGS
 +-----------+-----------------+-----------------+------------+-----+ <-- LBFGS
 |  dE/ion   |   9.085556E-006 |   1.000000E-009 |         eV | No  | <-- LBFGS
 |  |F|max   |   2.847703E-004 |   1.000000E-005 |       eV/A | No  | <-- LBFGS
 |  |dR|max  |   2.808789E-004 |   1.000000E-005 |          A | No  | <-- LBFGS
 |   Smax    |   2.337995E-001 |   1.000000E-005 |        GPa | No  | <-- LBFGS
 +-----------+-----------------+-----------------+------------+-----+ <-- LBFGS
  

================================================================================
 Starting LBFGS iteration          5 ...
================================================================================
  
 +------------+-------------+-------------+-----------------+ <-- min LBFGS
 |    Step    |   lambda    |   F.delta'  |    enthalpy     | <-- min LBFGS
 +------------+-------------+-------------+-----------------+ <-- min LBFGS
 |  previous  |    0.000000 |    0.000803 |     -104.105927 | <-- min LBFGS
 +------------+-------------+-------------+-----------------+ <-- min LBFGS
  

--------------------------------------------------------------------------------
 LBFGS: starting iteration         5 with trial guess (lambda=  1.000000)
--------------------------------------------------------------------------------

                           -------------------------------
                                      Unit Cell
                           -------------------------------
        Real Lattice(A)              Reciprocal Lattice(1/A)
     1.8137836     0.0000000     0.0000000        3.464131632  -0.000000000   0.000000000
     0.0000000     3.0079440     0.0000000       -0.000000000   2.088863808   0.000000000
     0.0000000     0.0000000     2.8190414        0.000000000   0.000000000   2.228837552

                       Lattice parameters(A)       Cell Angles
                    a =      1.813784          alpha =   90.000000
                    b =      3.007944          beta  =   90.000000
                    c =      2.819041          gamma =   90.000000

                Current cell volume =            15.380012 A**3

                           -------------------------------
                                     Cell Contents
                           -------------------------------

            xxxxxxxxxxxxxxxxxxxxxxxxxxxxxxxxxxxxxxxxxxxxxxxxxxxxxxxxxxxxxxxxx
            x  Element         Atom        Fractional coordinates of atoms  x
            x                 Number           u          v          w      x
            x---------------------------------------------------------------x
            x  H                 1        -0.000000   0.382334   0.449331   x
            x  H                 2         0.000000   0.117666   0.949331   x
            x  H                 3        -0.000000   0.882334   0.050669   x
            x  H                 4        -0.000000   0.617666   0.550669   x
            x  H                 5         0.500000   0.882334   0.449331   x
            x  H                 6         0.500000   0.617666   0.949331   x
            x  H                 7         0.500000   0.382334   0.050669   x
            x  H                 8         0.500000   0.117666   0.550669   x
            xxxxxxxxxxxxxxxxxxxxxxxxxxxxxxxxxxxxxxxxxxxxxxxxxxxxxxxxxxxxxxxxx


------------------------------------------------------------------------ <-- SCF
SCF loop      Energy                           Energy gain       Timer   <-- SCF
                                               per atom          (sec)   <-- SCF
------------------------------------------------------------------------ <-- SCF
Initial  -1.18505096E+002                                        100.08  <-- SCF
      1  -1.18505104E+002                    1.00567867E-006     101.05  <-- SCF
      2  -1.18505104E+002                    1.00737815E-008     102.30  <-- SCF
      3  -1.18505104E+002                    3.44442546E-009     103.53  <-- SCF
      4  -1.18505104E+002                    8.87218989E-010     104.78  <-- SCF
      5  -1.18505104E+002                    1.20268826E-011     105.67  <-- SCF
      6  -1.18505104E+002                    1.50751429E-012     106.57  <-- SCF
      7  -1.18505104E+002                   -1.29906041E-013     107.46  <-- SCF
------------------------------------------------------------------------ <-- SCF
 
Final energy =  -118.5051040465     eV
(energy not corrected for finite basis set)
 

 ******************************** Symmetrised Forces ********************************
 *                                                                                  *
 *                           Cartesian components (eV/A)                            *
 * -------------------------------------------------------------------------------- *
 *                         x                    y                    z              *
 *                                                                                  *
 * H               1      0.00000              0.00006              0.00002         *
 * H               2      0.00000             -0.00006              0.00002         *
 * H               3      0.00000              0.00006             -0.00002         *
 * H               4     -0.00000             -0.00006             -0.00002         *
 * H               5     -0.00000              0.00006              0.00002         *
 * H               6      0.00000             -0.00006              0.00002         *
 * H               7     -0.00000              0.00006             -0.00002         *
 * H               8     -0.00000             -0.00006             -0.00002         *
 *                                                                                  *
 ************************************************************************************

 *********** Symmetrised Stress Tensor ***********
 *                                               *
 *          Cartesian components (GPa)           *
 * --------------------------------------------- *
 *             x             y             z     *
 *                                               *
 *  x   -150.155795     -0.000000      0.000000  *
 *  y     -0.000000   -150.027774      0.000000  *
 *  z      0.000000      0.000000   -149.874929  *
 *                                               *
 *  Pressure:  150.0195                          *
 *                                               *
 *************************************************
  
 +------------+-------------+-------------+-----------------+ <-- min LBFGS
 |    Step    |   lambda    |   F.delta'  |    enthalpy     | <-- min LBFGS
 +------------+-------------+-------------+-----------------+ <-- min LBFGS
 |  previous  |    0.000000 |    0.000803 |     -104.105927 | <-- min LBFGS
 | trial step |    1.000000 |    0.000547 |     -104.105932 | <-- min LBFGS
 +------------+-------------+-------------+-----------------+ <-- min LBFGS
  

--------------------------------------------------------------------------------
 LBFGS: improving iteration         5 with line minimization (lambda=  3.139178)
--------------------------------------------------------------------------------

                           -------------------------------
                                      Unit Cell
                           -------------------------------
        Real Lattice(A)              Reciprocal Lattice(1/A)
     1.8146951     0.0000000     0.0000000        3.462391690  -0.000000000   0.000000000
     0.0000000     3.0074276     0.0000000       -0.000000000   2.089222481   0.000000000
[...]
            x  H                 2         0.000000   0.117657   0.949307   x
            x  H                 3        -0.000000   0.882343   0.050693   x
            x  H                 4        -0.000000   0.617657   0.550693   x
            x  H                 5         0.500000   0.882343   0.449307   x
            x  H                 6         0.500000   0.617657   0.949307   x
            x  H                 7         0.500000   0.382343   0.050693   x
            x  H                 8         0.500000   0.117657   0.550693   x
            xxxxxxxxxxxxxxxxxxxxxxxxxxxxxxxxxxxxxxxxxxxxxxxxxxxxxxxxxxxxxxxxx


------------------------------------------------------------------------ <-- SCF
SCF loop      Energy                           Energy gain       Timer   <-- SCF
                                               per atom          (sec)   <-- SCF
------------------------------------------------------------------------ <-- SCF
Initial  -1.18506756E+002                                        170.37  <-- SCF
      1  -1.18506756E+002                    5.43792731E-014     171.00  <-- SCF
      2  -1.18506756E+002                    0.00000000E+000     171.92  <-- SCF
      3  -1.18506756E+002                    6.31403782E-013     172.84  <-- SCF
      4  -1.18506756E+002                   -4.41076327E-013     173.76  <-- SCF
------------------------------------------------------------------------ <-- SCF
 
Final energy =  -118.5067557642     eV
(energy not corrected for finite basis set)
 

 ******************************** Symmetrised Forces ********************************
 *                                                                                  *
 *                           Cartesian components (eV/A)                            *
 * -------------------------------------------------------------------------------- *
 *                         x                    y                    z              *
 *                                                                                  *
 * H               1     -0.00000             -0.00000             -0.00000         *
 * H               2     -0.00000              0.00000             -0.00000         *
 * H               3      0.00000             -0.00000              0.00000         *
 * H               4      0.00000              0.00000              0.00000         *
 * H               5     -0.00000             -0.00000             -0.00000         *
 * H               6     -0.00000              0.00000             -0.00000         *
 * H               7      0.00000             -0.00000              0.00000         *
 * H               8      0.00000              0.00000              0.00000         *
 *                                                                                  *
 ************************************************************************************

 *********** Symmetrised Stress Tensor ***********
 *                                               *
 *          Cartesian components (GPa)           *
 * --------------------------------------------- *
 *             x             y             z     *
 *                                               *
 *  x   -149.999996      0.000000      0.000000  *
 *  y      0.000000   -150.000010      0.000000  *
 *  z      0.000000      0.000000   -149.999994  *
 *                                               *
 *  Pressure:  150.0000                          *
 *                                               *
 *************************************************
  
 +------------+-------------+-------------+-----------------+ <-- min LBFGS
 |    Step    |   lambda    |   F.delta'  |    enthalpy     | <-- min LBFGS
 +------------+-------------+-------------+-----------------+ <-- min LBFGS
 |  previous  |    0.000000 |  1.989E-007 |     -104.105936 | <-- min LBFGS
 | trial step |    1.000000 | -1.798E-007 |     -104.105936 | <-- min LBFGS
 |  line step |    0.525150 |  6.835E-008 |     -104.105936 | <-- min LBFGS
 +------------+-------------+-------------+-----------------+ <-- min LBFGS
  
 LBFGS: finished iteration    12 with enthalpy= -1.04105936E+002 eV
  
 +-----------+-----------------+-----------------+------------+-----+ <-- LBFGS
 | Parameter |      value      |    tolerance    |    units   | OK? | <-- LBFGS
 +-----------+-----------------+-----------------+------------+-----+ <-- LBFGS
 |  dE/ion   |   5.740034E-014 |   1.000000E-009 |         eV | Yes | <-- LBFGS
 |  |F|max   |   6.334312E-007 |   1.000000E-005 |       eV/A | Yes | <-- LBFGS
 |  |dR|max  |   3.250624E-008 |   1.000000E-005 |          A | Yes | <-- LBFGS
 |   Smax    |   1.009930E-005 |   1.000000E-005 |        GPa | No  | <-- LBFGS
 +-----------+-----------------+-----------------+------------+-----+ <-- LBFGS
  

================================================================================
 Starting LBFGS iteration         13 ...
================================================================================
  
 +------------+-------------+-------------+-----------------+ <-- min LBFGS
 |    Step    |   lambda    |   F.delta'  |    enthalpy     | <-- min LBFGS
 +------------+-------------+-------------+-----------------+ <-- min LBFGS
 |  previous  |    0.000000 |  1.127E-007 |     -104.105936 | <-- min LBFGS
 +------------+-------------+-------------+-----------------+ <-- min LBFGS
  

--------------------------------------------------------------------------------
 LBFGS: starting iteration        13 with trial guess (lambda=  1.000000)
--------------------------------------------------------------------------------

                           -------------------------------
                                      Unit Cell
                           -------------------------------
        Real Lattice(A)              Reciprocal Lattice(1/A)
     1.8146548     0.0000000     0.0000000        3.462468565  -0.000000000   0.000000000
     0.0000000     3.0076056     0.0000000       -0.000000000   2.089098818   0.000000000
     0.0000000     0.0000000     2.8183272        0.000000000   0.000000000   2.229402331

                       Lattice parameters(A)       Cell Angles
                    a =      1.814655          alpha =   90.000000
                    b =      3.007606          beta  =   90.000000
                    c =      2.818327          gamma =   90.000000

                Current cell volume =            15.381771 A**3

                           -------------------------------
                                     Cell Contents
                           -------------------------------

            xxxxxxxxxxxxxxxxxxxxxxxxxxxxxxxxxxxxxxxxxxxxxxxxxxxxxxxxxxxxxxxxx
            x  Element         Atom        Fractional coordinates of atoms  x
            x                 Number           u          v          w      x
            x---------------------------------------------------------------x
            x  H                 1        -0.000000   0.382343   0.449307   x
            x  H                 2         0.000000   0.117657   0.949307   x
            x  H                 3        -0.000000   0.882343   0.050693   x
            x  H                 4        -0.000000   0.617657   0.550693   x
            x  H                 5         0.500000   0.882343   0.449307   x
            x  H                 6         0.500000   0.617657   0.949307   x
            x  H                 7         0.500000   0.382343   0.050693   x
            x  H                 8         0.500000   0.117657   0.550693   x
            xxxxxxxxxxxxxxxxxxxxxxxxxxxxxxxxxxxxxxxxxxxxxxxxxxxxxxxxxxxxxxxxx


------------------------------------------------------------------------ <-- SCF
SCF loop      Energy                           Energy gain       Timer   <-- SCF
                                               per atom          (sec)   <-- SCF
------------------------------------------------------------------------ <-- SCF
Initial  -1.18506755E+002                                        174.97  <-- SCF
      1  -1.18506755E+002                    6.34424853E-014     175.61  <-- SCF
      2  -1.18506755E+002                    1.81264244E-014     176.52  <-- SCF
      3  -1.18506755E+002                   -3.59507417E-013     177.43  <-- SCF
      4  -1.18506755E+002                    1.54074607E-013     178.34  <-- SCF
------------------------------------------------------------------------ <-- SCF
 
Final energy =  -118.5067554532     eV
(energy not corrected for finite basis set)
 

 ******************************** Symmetrised Forces ********************************
 *                                                                                  *
 *                           Cartesian components (eV/A)                            *
 * -------------------------------------------------------------------------------- *
 *                         x                    y                    z              *
 *                                                                                  *
 * H               1      0.00000              0.00000             -0.00000         *
 * H               2      0.00000             -0.00000             -0.00000         *
 * H               3      0.00000              0.00000              0.00000         *
 * H               4      0.00000             -0.00000              0.00000         *
 * H               5      0.00000              0.00000             -0.00000         *
 * H               6      0.00000             -0.00000             -0.00000         *
 * H               7     -0.00000              0.00000              0.00000         *
 * H               8     -0.00000             -0.00000              0.00000         *
 *                                                                                  *
 ************************************************************************************

 *********** Symmetrised Stress Tensor ***********
 *                                               *
 *          Cartesian components (GPa)           *
 * --------------------------------------------- *
 *             x             y             z     *
 *                                               *
 *  x   -150.000000      0.000000      0.000000  *
 *  y      0.000000   -150.000000      0.000000  *
 *  z      0.000000      0.000000   -150.000006  *
 *                                               *
 *  Pressure:  150.0000                          *
 *                                               *
 *************************************************
  
 +------------+-------------+-------------+-----------------+ <-- min LBFGS
 |    Step    |   lambda    |   F.delta'  |    enthalpy     | <-- min LBFGS
 +------------+-------------+-------------+-----------------+ <-- min LBFGS
 |  previous  |    0.000000 |  1.127E-007 |     -104.105936 | <-- min LBFGS
 | trial step |    1.000000 |  3.233E-008 |     -104.105936 | <-- min LBFGS
 +------------+-------------+-------------+-----------------+ <-- min LBFGS
  
 LBFGS: finished iteration    13 with enthalpy= -1.04105936E+002 eV
  
 +-----------+-----------------+-----------------+------------+-----+ <-- LBFGS
 | Parameter |      value      |    tolerance    |    units   | OK? | <-- LBFGS
 +-----------+-----------------+-----------------+------------+-----+ <-- LBFGS
 |  dE/ion   |   1.027164E-013 |   1.000000E-009 |         eV | Yes | <-- LBFGS
 |  |F|max   |   1.472833E-007 |   1.000000E-005 |       eV/A | Yes | <-- LBFGS
 |  |dR|max  |   4.565379E-008 |   1.000000E-005 |          A | Yes | <-- LBFGS
 |   Smax    |   5.780272E-006 |   1.000000E-005 |        GPa | Yes | <-- LBFGS
 +-----------+-----------------+-----------------+------------+-----+ <-- LBFGS
  
 LBFGS: Geometry optimization completed successfully.

================================================================================
 LBFGS: Final Configuration:
================================================================================

                           -------------------------------
                                      Unit Cell
                           -------------------------------
        Real Lattice(A)              Reciprocal Lattice(1/A)
     1.8146548     0.0000000     0.0000000        3.462468565  -0.000000000   0.000000000
     0.0000000     3.0076056     0.0000000       -0.000000000   2.089098818   0.000000000
     0.0000000     0.0000000     2.8183272        0.000000000   0.000000000   2.229402331

                       Lattice parameters(A)       Cell Angles
                    a =      1.814655          alpha =   90.000000
                    b =      3.007606          beta  =   90.000000
                    c =      2.818327          gamma =   90.000000

                Current cell volume =            15.381771 A**3

                           -------------------------------
                                     Cell Contents
                           -------------------------------

            xxxxxxxxxxxxxxxxxxxxxxxxxxxxxxxxxxxxxxxxxxxxxxxxxxxxxxxxxxxxxxxxx
            x  Element         Atom        Fractional coordinates of atoms  x
            x                 Number           u          v          w      x
            x---------------------------------------------------------------x
            x  H                 1        -0.000000   0.382343   0.449307   x
            x  H                 2         0.000000   0.117657   0.949307   x
            x  H                 3        -0.000000   0.882343   0.050693   x
            x  H                 4        -0.000000   0.617657   0.550693   x
            x  H                 5         0.500000   0.882343   0.449307   x
            x  H                 6         0.500000   0.617657   0.949307   x
            x  H                 7         0.500000   0.382343   0.050693   x
            x  H                 8         0.500000   0.117657   0.550693   x
            xxxxxxxxxxxxxxxxxxxxxxxxxxxxxxxxxxxxxxxxxxxxxxxxxxxxxxxxxxxxxxxxx


 LBFGS: Final Enthalpy     = -1.04105936E+002 eV
 LBFGS: Final <frequency>  =    2144.83210 cm-1
 LBFGS: Final bulk modulus =     349.36939 GPa

 ******************************** Symmetrised Forces ********************************
 *                                                                                  *
 *                           Cartesian components (eV/A)                            *
 * -------------------------------------------------------------------------------- *
 *                         x                    y                    z              *
 *                                                                                  *
 * H               1      0.00000              0.00000             -0.00000         *
 * H               2      0.00000             -0.00000             -0.00000         *
 * H               3      0.00000              0.00000              0.00000         *
 * H               4      0.00000             -0.00000              0.00000         *
 * H               5      0.00000              0.00000             -0.00000         *
 * H               6      0.00000             -0.00000             -0.00000         *
 * H               7     -0.00000              0.00000              0.00000         *
 * H               8     -0.00000             -0.00000              0.00000         *
 *                                                                                  *
 ************************************************************************************

 *********** Symmetrised Stress Tensor ***********
 *                                               *
 *          Cartesian components (GPa)           *
 * --------------------------------------------- *
 *             x             y             z     *
 *                                               *
 *  x   -150.000000      0.000000      0.000000  *
 *  y      0.000000   -150.000000      0.000000  *
 *  z      0.000000      0.000000   -150.000006  *
 *                                               *
 *  Pressure:  150.0000                          *
 *                                               *
 *************************************************

 Pseudo atomic calculation performed for H 1s1

 Converged in 24 iterations to a total energy of -12.4855 eV

Charge spilling parameter for spin component 1 = 0.55%

            Orbital Populations       
     Ion    Atom   Orbital             Charge
  -------------------------------------------
      H     1      S                    0.996
      H     2      S                    1.004
      H     3      S                    1.004
      H     4      S                    0.996
      H     5      S                    0.996
      H     6      S                    1.004
      H     7      S                    1.004
      H     8      S                    0.996
  -------------------------------------------
                           Total:       8.000
  -------------------------------------------

     Atomic Populations (Mulliken)
     -----------------------------
Species          Ion     s      p      d      f     Total  Charge (e)
=====================================================================
  H               1     1.00   0.00   0.00   0.00   1.00     0.00
  H               2     1.00   0.00   0.00   0.00   1.00     0.00
  H               3     1.00   0.00   0.00   0.00   1.00     0.00
  H               4     1.00   0.00   0.00   0.00   1.00     0.00
  H               5     1.00   0.00   0.00   0.00   1.00     0.00
  H               6     1.00   0.00   0.00   0.00   1.00     0.00
  H               7     1.00   0.00   0.00   0.00   1.00     0.00
  H               8     1.00   0.00   0.00   0.00   1.00     0.00
=====================================================================

                 Bond                   Population      Length (A)
======================================================================
               H 2 -- H 3                    1.11        0.76324
               H 5 -- H 8                    1.11        0.76324
               H 6 -- H 7                    1.11        0.76324
               H 1 -- H 4                    1.11        0.76324
               H 3 -- H 6                    0.17        1.24041
               H 4 -- H 5                    0.17        1.24041
               H 2 -- H 7                    0.17        1.24041
               H 1 -- H 8                    0.17        1.24041
               H 3 -- H 5                   -0.15        1.44406
               H 1 -- H 7                   -0.15        1.44406
               H 4 -- H 6                   -0.15        1.44406
               H 2 -- H 8                   -0.15        1.44406
               H 5 -- H 6                   -0.14        1.61848
               H 3 -- H 4                   -0.14        1.61848
               H 1 -- H 2                   -0.14        1.61848
               H 7 -- H 8                   -0.14        1.61848
               H 4 -- H 8                   -0.61        1.75632
               H 2 -- H 6                   -0.61        1.75632
               H 3 -- H 7                   -0.61        1.75632
               H 1 -- H 5                   -0.61        1.75632
======================================================================


Writing analysis data to Cmca4.castep_bin

Writing model to Cmca4.check
 
 A BibTeX formatted list of references used in this run has been written to 
 Cmca4.bib
 
Initialisation time =      4.23 s
Calculation time    =    176.62 s
Finalisation time   =      5.73 s
Total time          =    186.57 s
Peak Memory Use     = 549568 kB
  
Overall parallel efficiency rating: Excellent (91%)                             
  
Data was distributed by:-
k-point (32-way); efficiency rating: Excellent (92%)                            
  
Parallel notes:
1) Calculation only took 180.9 s, so efficiency estimates may be inaccurate.    
