 +-------------------------------------------------+
 |                                                 |
 |      CCC   AA    SSS  TTTTT  EEEEE  PPPP        |
 |     C     A  A  S       T    E      P   P       |
 |     C     AAAA   SS     T    EEE    PPPP        |
 |     C     A  A     S    T    E      P           |
 |      CCC  A  A  SSS     T    EEEEE  P           |
 |                                                 |
 +-------------------------------------------------+
 |                                                 |
 | Welcome to Academic Release CASTEP version 18.1 |          
 | Ab Initio Total Energy Program                  |
 |                                                 |
 | Authors:                                        |
 | M. Segall, M. Probert, C. Pickard, P. Hasnip,   |
 | S. Clark, K. Refson, J. R. Yates, M. Payne      |
 |                                                 |
 | Contributors:                                   |
 | P. Lindan, P. Haynes, J. White, V. Milman,      |
 | N. Govind, M. Gibson, P. Tulip, V. Cocula,      |
 | B. Montanari, D. Quigley, M. Glover,            |
 | L. Bernasconi, A. Perlov, M. Plummer,           |
 | E. McNellis, J. Meyer, J. Gale, D. Jochym       |
 | J. Aarons, B. Walker, R. Gillen, D. Jones       |
 | T. Green, I. J. Bush, C. J. Armstrong,          |
 | E. J. Higgins, E. L. Brown, M. S. McFly,        |
 | J. Wilkins, B-C. Shih, P. J. P. Byrne           |
 |                                                 |
 | Copyright (c) 2000 - 2017                       |
 |                                                 |
 |     Distributed under the terms of an           |
 |     Agreement between the United Kingdom        |
 |     Car-Parrinello (UKCP) Consortium,           |
 |     Daresbury Laboratory and Accelrys, Inc.     |
 |                                                 |
 | Please cite                                     |
 |                                                 |
 |     "First principles methods using CASTEP"     |
 |                                                 |
 |         Zeitschrift fuer Kristallographie       |
 |           220(5-6) pp. 567-570 (2005)           |
 |                                                 |
 | S. J. Clark, M. D. Segall, C. J. Pickard,       |
 | P. J. Hasnip, M. J. Probert, K. Refson,         |
 | M. C. Payne                                     |
 |                                                 |
 |       in all publications arising from          |
 |              your use of CASTEP                 |
 |                                                 |
 +-------------------------------------------------+


 Compiled for linux_x86_64_gfortran4.8 on Thu, 19 Jul 2018 15:42:32 +0100
 from code version 70483bd0ad64+  Sun, 10 Dec 2017 12:18:29 +0000
 Compiler: GNU Fortran 4.8.5; Optimisation: fast
 MATHLIBS: Intel MKL(2018.0.0) (LAPACK version 3.7.0)
 FFT Lib : mkl
 Fundamental constants values: CODATA 2014

 Run started: Thu, 27 Aug 2020 11:19:40 +0100

 Atomic calculation performed for H: 1s1

 Converged in 41 iterations to an ae energy of -12.488 eV

   ============================================================                
   | Pseudopotential Report - Date of generation 27-08-2020   |                
   ------------------------------------------------------------                
   | Element: H Ionic charge:  1.00 Level of theory: PBE      |                
   | Atomic Solver: Koelling-Harmon                           |                
   |                                                          |                
   |               Reference Electronic Structure             |                
   |         Orbital         Occupation         Energy        |                
   |            1s              1.000           -0.239        |                
   |                                                          |                
   |                 Pseudopotential Definition               |                
   |        Beta     l      e      Rc     scheme   norm       |                
   |         loc     0   -0.239   0.702     qc      1         |                
   |                                                          |                
   | No charge augmentation                                   |                
   | No partial core correction                               |                
   ------------------------------------------------------------                
   | "0|0.7|2|6|8|10L(qc=10)"                                 |                
   ------------------------------------------------------------                
   |      Author: Chris J. Pickard, Cambridge University      |                
   ============================================================                

 Pseudo atomic calculation performed for H 1s1

 Converged in 24 iterations to a total energy of -12.4855 eV

 Calculation parallelised over 32 processes.
 Data is distributed by k-point(32-way)

 ************************************ Title ************************************
 

 ***************************** General Parameters ******************************
  
 output verbosity                               : normal  (1)
 write checkpoint data to                       : Cmca4.check
 type of calculation                            : geometry optimization
 stress calculation                             : on
 density difference calculation                 : off
 electron localisation func (ELF) calculation   : off
 Hirshfeld analysis                             : off
 unlimited duration calculation
 timing information                             : on
 memory usage estimate                          : on
 write extra output files                       : on
 write final potential to formatted file        : off
 write final density to formatted file          : off
 write structure in CELL formatted file         : on
 write BibTeX reference list                    : on
 write OTFG pseudopotential files               : on
 write electrostatic potential file             : on
 write bands file                               : on
 checkpoint writing                             : both castep_bin and check files
  
 output         length unit                     : A
 output           mass unit                     : amu
 output           time unit                     : ps
 output         charge unit                     : e
 output           spin unit                     : hbar/2
 output         energy unit                     : eV
 output          force unit                     : eV/A
 output       velocity unit                     : A/ps
 output       pressure unit                     : GPa
 output     inv_length unit                     : 1/A
 output      frequency unit                     : cm-1
 output force constant unit                     : eV/A**2
 output         volume unit                     : A**3
 output   IR intensity unit                     : (D/A)**2/amu
 output         dipole unit                     : D
 output         efield unit                     : eV/A/e
 output        entropy unit                     : J/mol/K
  
 wavefunctions paging                           : none
 random number generator seed                   : randomised (111941141)
 data distribution                              : optimal for this architecture
 optimization strategy                          : maximize speed(+++)

 *********************** Exchange-Correlation Parameters ***********************
  
 using functional                               : Perdew Burke Ernzerhof
 relativistic treatment                         : Koelling-Harmon
 DFT+D: Semi-empirical dispersion correction    : off

 ************************* Pseudopotential Parameters **************************
  
 pseudopotential representation                 : reciprocal space
 <beta|phi> representation                      : reciprocal space
 spin-orbit coupling                            : off

 **************************** Basis Set Parameters *****************************
  
 plane wave basis set cut-off                   :  1600.0000   eV
 size of standard grid                          :     2.0000
 size of   fine   gmax                          :    40.9853   1/A
 finite basis set correction                    : automatic
 number of sample energies                      :          3
           sample  spacing                      :     5.0000   eV

 **************************** Electronic Parameters ****************************
  
 number of  electrons                           :  8.000    
 net charge of system                           :  0.000    
 treating system as non-spin-polarized
 number of bands                                :          4

 ********************* Electronic Minimization Parameters **********************
  
 Method: Treating system as non-metallic,
         and number of  SD  steps               :          1
         and number of  CG  steps               :          4
  
 total energy / atom convergence tol.           : 0.1000E-10   eV
 eigen-energy convergence tolerance             : 0.2000E-10   eV
 max force / atom convergence tol.              : ignored
 convergence tolerance window                   :          3   cycles
 max. number of SCF cycles                      :        100
 periodic dipole correction                     : NONE

 ************************** Density Mixing Parameters **************************
  
 density-mixing scheme                          : Broyden
 max. length of mixing history                  :         20
 charge density mixing amplitude                : 0.8000    
 cut-off energy for mixing                      :  1600.       eV

 *********************** Population Analysis Parameters ************************
  
 Population analysis with cutoff                :  3.000       A
 Population analysis output                     : summary and pdos components

 ********************** Geometry Optimization Parameters ***********************
  
 optimization method                            : LBFGS
 max. no. of LBFGS updates                      : unbounded
 variable cell method                           : fixed basis quality
 max. number of steps                           :        200
 estimated bulk modulus                         :  500.0       GPa
 estimated <frequency>                          :  1668.       cm-1
 geom line minimiser                            : on
 with line minimiser tolerance                  :     0.4000
 total energy convergence tolerance             : 0.1000E-08   eV/atom
        max ionic |force| tolerance             : 0.1000E-04   eV/A
 max ionic |displacement| tolerance             : 0.1000E-04   A
   max |stress component| tolerance             : 0.1000E-04   GPa
 convergence tolerance window                   :          2   steps
 backup results every                           :      14400   seconds
 write geom trajectory file                     : on

 *******************************************************************************
  

                           -------------------------------
                                      Unit Cell
                           -------------------------------
        Real Lattice(A)                      Reciprocal Lattice(1/A)
     1.7630588     0.0000000     0.0000000        3.563797998  -0.000000000   0.000000000
     0.0000000     2.9541238     0.0000000       -0.000000000   2.126920127   0.000000000
     0.0000000     0.0000000     2.7413348        0.000000000   0.000000000   2.292016779

                       Lattice parameters(A)       Cell Angles
                    a =      1.763059          alpha =   90.000000
                    b =      2.954124          beta  =   90.000000
                    c =      2.741335          gamma =   90.000000

                       Current cell volume =            14.277677       A**3
                                   density =             0.564764   AMU/A**3
                                           =             0.937813     g/cm^3

                           -------------------------------
                                     Cell Contents
                           -------------------------------
                         Total number of ions in cell =    8
                      Total number of species in cell =    1
                        Max number of any one species =    8

            xxxxxxxxxxxxxxxxxxxxxxxxxxxxxxxxxxxxxxxxxxxxxxxxxxxxxxxxxxxx
            x  Element    Atom        Fractional coordinates of atoms  x
            x            Number           u          v          w      x
            x----------------------------------------------------------x
            x  H            1         0.000000   0.379517   0.447451   x 
            x  H            2         0.000000   0.120483   0.947451   x 
            x  H            3         0.000000   0.879517   0.052549   x 
            x  H            4        -0.000000   0.620483   0.552549   x 
            x  H            5         0.500000   0.879517   0.447451   x 
            x  H            6         0.500000   0.620483   0.947451   x 
            x  H            7         0.500000   0.379517   0.052549   x 
            x  H            8         0.500000   0.120483   0.552549   x 
            xxxxxxxxxxxxxxxxxxxxxxxxxxxxxxxxxxxxxxxxxxxxxxxxxxxxxxxxxxxx


                         No user defined ionic velocities

                           -------------------------------
                                   Details of Species
                           -------------------------------

                               Mass of species in AMU
                                    H    1.0079400

                          Electric Quadrupole Moment (Barn)
                                    H    0.0028600 Isotope  2

                          Files used for pseudopotentials:
                                    H 0|0.7|2|6|8|10L(qc=10)

                           -------------------------------
                              k-Points For BZ Sampling
                           -------------------------------
                       MP grid size for SCF calculation is 18 18 18
                            with an offset of   0.000  0.000  0.000
                       Number of kpoints used =           729

                           -------------------------------
                               Symmetry and Constraints
                           -------------------------------

                      Cell is a supercell containing 2 primitive cells
                      Maximum deviation from symmetry = 0.295176E-14     ANG

                      Number of symmetry operations   =          16
                      Number of ionic constraints     =           3
                      Point group of crystal =     8: D2h, mmm, 2/m 2/m 2/m
                      Space group of crystal =    64: Cmce, -C 2bc 2

             Set iprint > 1 for details on symmetry rotations/translations

                         Centre of mass is constrained
             Set iprint > 1 for details of linear ionic constraints

                         Number of cell constraints= 3
                         Cell constraints are:  1 2 3 0 0 0

                         External pressure/stress (GPa)
                        170.00000   0.00000   0.00000
                                  170.00000   0.00000
                                            170.00000
  
+---------------- MEMORY AND SCRATCH DISK ESTIMATES PER PROCESS --------------+
|                                                     Memory          Disk    |
| Baseline code, static data and system overhead      479.0 MB         0.0 MB |
| BLAS internal memory storage                          0.0 MB         0.0 MB |
| Model and support data                               22.7 MB         0.0 MB |
| Electronic energy minimisation requirements          13.8 MB         0.0 MB |
| Force calculation requirements                        4.0 MB         0.0 MB |
| Stress calculation requirements                       5.0 MB         0.0 MB |
|                                               ----------------------------- |
| Approx. total storage required per process          515.5 MB         0.0 MB |
|                                                                             |
| Requirements will fluctuate during execution and may exceed these estimates |
+-----------------------------------------------------------------------------+
Calculating finite basis set correction with  3 cut-off energies.
Calculating total energy with cut-off of 1590.000 eV.
------------------------------------------------------------------------ <-- SCF
SCF loop      Energy                           Energy gain       Timer   <-- SCF
                                               per atom          (sec)   <-- SCF
------------------------------------------------------------------------ <-- SCF
Initial   1.84501463E+002                                          4.58  <-- SCF
      1  -1.02607822E+002                    3.58886606E+001       5.68  <-- SCF
      2  -1.17545955E+002                    1.86726661E+000       6.44  <-- SCF
      3  -1.17381591E+002                   -2.05454526E-002       7.57  <-- SCF
      4  -1.17374982E+002                   -8.26196330E-004       8.71  <-- SCF
      5  -1.17375164E+002                    2.27595009E-005       9.84  <-- SCF
      6  -1.17375179E+002                    1.92931899E-006      10.97  <-- SCF
      7  -1.17375179E+002                    2.43572921E-009      12.12  <-- SCF
      8  -1.17375179E+002                    1.60231549E-010      13.10  <-- SCF
      9  -1.17375179E+002                    6.91220983E-012      13.92  <-- SCF
     10  -1.17375179E+002                    1.78243173E-013      14.73  <-- SCF
------------------------------------------------------------------------ <-- SCF
 
Final energy =  -117.3751793649     eV
(energy not corrected for finite basis set)
 
Calculating total energy with cut-off of 1595.000 eV.
------------------------------------------------------------------------ <-- SCF
SCF loop      Energy                           Energy gain       Timer   <-- SCF
                                               per atom          (sec)   <-- SCF
------------------------------------------------------------------------ <-- SCF
Initial  -1.17375179E+002                                         15.29  <-- SCF
      1  -1.17375201E+002                    2.67477776E-006      16.15  <-- SCF
      2  -1.17375201E+002                    1.97578026E-012      17.00  <-- SCF
      3  -1.17375201E+002                    5.71695341E-010      17.82  <-- SCF
      4  -1.17375201E+002                    3.04554140E-011      18.65  <-- SCF
      5  -1.17375201E+002                    2.32622446E-013      19.46  <-- SCF
      6  -1.17375201E+002                    5.92129863E-013      20.28  <-- SCF
------------------------------------------------------------------------ <-- SCF
 
Final energy =  -117.3752007679     eV
(energy not corrected for finite basis set)
 
Calculating total energy with cut-off of 1600.000 eV.
------------------------------------------------------------------------ <-- SCF
SCF loop      Energy                           Energy gain       Timer   <-- SCF
                                               per atom          (sec)   <-- SCF
------------------------------------------------------------------------ <-- SCF
Initial  -1.17375201E+002                                         20.82  <-- SCF
      1  -1.17375221E+002                    2.57215458E-006      21.74  <-- SCF
      2  -1.17375221E+002                    2.58905762E-012      22.59  <-- SCF
      3  -1.17375221E+002                    5.63417607E-010      23.40  <-- SCF
      4  -1.17375221E+002                    2.94735660E-011      24.26  <-- SCF
      5  -1.17375221E+002                    8.70068370E-013      25.09  <-- SCF
      6  -1.17375221E+002                    1.32927112E-013      25.91  <-- SCF
------------------------------------------------------------------------ <-- SCF
 
Final energy =  -117.3752213499     eV
(energy not corrected for finite basis set)
 
 For future reference: finite basis dEtot/dlog(Ecut) =      -0.006715eV
 Total energy corrected for finite basis set =    -117.375221 eV
 
+---------------- MEMORY AND SCRATCH DISK ESTIMATES PER PROCESS --------------+
|                                                     Memory          Disk    |
| Model and support data                               32.2 MB         0.0 MB |
| Electronic energy minimisation requirements          13.8 MB         0.0 MB |
| Geometry minimisation requirements                   18.4 MB         0.0 MB |
|                                               ----------------------------- |
| Approx. total storage required per process           64.3 MB         0.0 MB |
|                                                                             |
| Requirements will fluctuate during execution and may exceed these estimates |
+-----------------------------------------------------------------------------+
 

 ******************************** Symmetrised Forces ********************************
 *                                                                                  *
 *                           Cartesian components (eV/A)                            *
 * -------------------------------------------------------------------------------- *
 *                         x                    y                    z              *
 *                                                                                  *
 * H               1      0.00000             -0.00000             -0.00000         *
 * H               2      0.00000              0.00000             -0.00000         *
 * H               3      0.00000             -0.00000              0.00000         *
 * H               4     -0.00000              0.00000              0.00000         *
 * H               5      0.00000             -0.00000             -0.00000         *
 * H               6      0.00000              0.00000             -0.00000         *
 * H               7      0.00000             -0.00000              0.00000         *
 * H               8     -0.00000              0.00000              0.00000         *
 *                                                                                  *
 ************************************************************************************

 *********** Symmetrised Stress Tensor ***********
 *                                               *
 *          Cartesian components (GPa)           *
 * --------------------------------------------- *
 *             x             y             z     *
 *                                               *
 *  x   -180.000798      0.000000      0.000000  *
 *  y      0.000000   -180.000827      0.000000  *
 *  z      0.000000      0.000000   -180.000805  *
 *                                               *
 *  Pressure:  180.0008                          *
 *                                               *
 *************************************************
 LBFGS: finished iteration     0 with enthalpy= -1.02225799E+002 eV
  
 +-----------+-----------------+-----------------+------------+-----+ <-- LBFGS
 | Parameter |      value      |    tolerance    |    units   | OK? | <-- LBFGS
 +-----------+-----------------+-----------------+------------+-----+ <-- LBFGS
 |  dE/ion   |   0.000000E+000 |   1.000000E-009 |         eV | No  | <-- LBFGS
 |  |F|max   |   2.034745E-007 |   1.000000E-005 |       eV/A | Yes | <-- LBFGS
 |  |dR|max  |   0.000000E+000 |   1.000000E-005 |          A | No  | <-- LBFGS
 |   Smax    |   1.000083E+001 |   1.000000E-005 |        GPa | No  | <-- LBFGS
 +-----------+-----------------+-----------------+------------+-----+ <-- LBFGS
  

================================================================================
 Starting LBFGS iteration          1 ...
================================================================================
  
 +------------+-------------+-------------+-----------------+ <-- min LBFGS
 |    Step    |   lambda    |   F.delta'  |    enthalpy     | <-- min LBFGS
 +------------+-------------+-------------+-----------------+ <-- min LBFGS
 |  previous  |    0.000000 |    0.056727 |     -102.225799 | <-- min LBFGS
 +------------+-------------+-------------+-----------------+ <-- min LBFGS
  

--------------------------------------------------------------------------------
 LBFGS: starting iteration         1 with trial guess (lambda=  1.000000)
--------------------------------------------------------------------------------
 
+---------------- MEMORY AND SCRATCH DISK ESTIMATES PER PROCESS --------------+
|                                                     Memory          Disk    |
| Model and support data                               33.0 MB         0.0 MB |
| Electronic energy minimisation requirements          14.4 MB         0.0 MB |
| Geometry minimisation requirements                   19.1 MB         0.0 MB |
|                                               ----------------------------- |
| Approx. total storage required per process           66.4 MB         0.0 MB |
|                                                                             |
| Requirements will fluctuate during execution and may exceed these estimates |
+-----------------------------------------------------------------------------+
 

                           -------------------------------
                                      Unit Cell
                           -------------------------------
        Real Lattice(A)              Reciprocal Lattice(1/A)
     1.7748134     0.0000000     0.0000000        3.540194816  -0.000000000   0.000000000
     0.0000000     2.9738196     0.0000000       -0.000000000   2.112833406   0.000000000
     0.0000000     0.0000000     2.7596118        0.000000000   0.000000000   2.276836646

                       Lattice parameters(A)       Cell Angles
                    a =      1.774813          alpha =   90.000000
                    b =      2.973820          beta  =   90.000000
                    c =      2.759612          gamma =   90.000000

                Current cell volume =            14.565162 A**3

                           -------------------------------
                                     Cell Contents
                           -------------------------------

            xxxxxxxxxxxxxxxxxxxxxxxxxxxxxxxxxxxxxxxxxxxxxxxxxxxxxxxxxxxxxxxxx
            x  Element         Atom        Fractional coordinates of atoms  x
            x                 Number           u          v          w      x
            x---------------------------------------------------------------x
            x  H                 1         0.000000   0.379517   0.447451   x
            x  H                 2        -0.000000   0.120483   0.947451   x
            x  H                 3        -0.000000   0.879517   0.052549   x
            x  H                 4         0.000000   0.620483   0.552549   x
            x  H                 5         0.500000   0.879517   0.447451   x
            x  H                 6         0.500000   0.620483   0.947451   x
            x  H                 7         0.500000   0.379517   0.052549   x
            x  H                 8         0.500000   0.120483   0.552549   x
            xxxxxxxxxxxxxxxxxxxxxxxxxxxxxxxxxxxxxxxxxxxxxxxxxxxxxxxxxxxxxxxxx


------------------------------------------------------------------------ <-- SCF
SCF loop      Energy                           Energy gain       Timer   <-- SCF
                                               per atom          (sec)   <-- SCF
------------------------------------------------------------------------ <-- SCF
Initial  -1.17686496E+002                                         27.09  <-- SCF
      1  -1.17688950E+002                    3.06733326E-004      28.04  <-- SCF
      2  -1.17688963E+002                    1.58760145E-006      29.39  <-- SCF
      3  -1.17688939E+002                   -2.95083107E-006      30.62  <-- SCF
      4  -1.17688939E+002                   -4.80921228E-008      31.87  <-- SCF
      5  -1.17688939E+002                    4.49380646E-009      33.13  <-- SCF
      6  -1.17688939E+002                    4.25067673E-010      34.36  <-- SCF
      7  -1.17688939E+002                    5.37750590E-013      35.25  <-- SCF
      8  -1.17688939E+002                   -6.34424853E-014      36.13  <-- SCF
------------------------------------------------------------------------ <-- SCF
 
Final energy =  -117.6889390692     eV
(energy not corrected for finite basis set)
 

 ******************************** Symmetrised Forces ********************************
 *                                                                                  *
 *                           Cartesian components (eV/A)                            *
 * -------------------------------------------------------------------------------- *
 *                         x                    y                    z              *
 *                                                                                  *
 * H               1     -0.00000              0.09853              0.04423         *
 * H               2      0.00000             -0.09853              0.04423         *
 * H               3      0.00000              0.09853             -0.04423         *
 * H               4      0.00000             -0.09853             -0.04423         *
 * H               5     -0.00000              0.09853              0.04423         *
 * H               6      0.00000             -0.09853              0.04423         *
 * H               7      0.00000              0.09853             -0.04423         *
 * H               8      0.00000             -0.09853             -0.04423         *
 *                                                                                  *
 ************************************************************************************

 *********** Symmetrised Stress Tensor ***********
 *                                               *
 *          Cartesian components (GPa)           *
 * --------------------------------------------- *
 *             x             y             z     *
 *                                               *
 *  x   -170.968626      0.000000      0.000000  *
 *  y      0.000000   -167.521127      0.000000  *
 *  z      0.000000      0.000000   -170.895880  *
 *                                               *
 *  Pressure:  169.7952                          *
 *                                               *
 *************************************************
  
 +------------+-------------+-------------+-----------------+ <-- min LBFGS
 |    Step    |   lambda    |   F.delta'  |    enthalpy     | <-- min LBFGS
 +------------+-------------+-------------+-----------------+ <-- min LBFGS
 |  previous  |    0.000000 |    0.056727 |     -102.225799 | <-- min LBFGS
 | trial step |    1.000000 |   -0.001177 |     -102.234479 | <-- min LBFGS
 +------------+-------------+-------------+-----------------+ <-- min LBFGS
  
 LBFGS: finished iteration     1 with enthalpy= -1.02234479E+002 eV
  
 +-----------+-----------------+-----------------+------------+-----+ <-- LBFGS
 | Parameter |      value      |    tolerance    |    units   | OK? | <-- LBFGS
 +-----------+-----------------+-----------------+------------+-----+ <-- LBFGS
 |  dE/ion   |   1.084968E-003 |   1.000000E-009 |         eV | No  | <-- LBFGS
 |  |F|max   |   1.080011E-001 |   1.000000E-005 |       eV/A | No  | <-- LBFGS
 |  |dR|max  |   1.986656E-008 |   1.000000E-005 |          A | Yes | <-- LBFGS
 |   Smax    |   2.478873E+000 |   1.000000E-005 |        GPa | No  | <-- LBFGS
 +-----------+-----------------+-----------------+------------+-----+ <-- LBFGS
  

================================================================================
 Starting LBFGS iteration          2 ...
================================================================================
  
 +------------+-------------+-------------+-----------------+ <-- min LBFGS
 |    Step    |   lambda    |   F.delta'  |    enthalpy     | <-- min LBFGS
 +------------+-------------+-------------+-----------------+ <-- min LBFGS
 |  previous  |    0.000000 |    0.029079 |     -102.234479 | <-- min LBFGS
 +------------+-------------+-------------+-----------------+ <-- min LBFGS
  

--------------------------------------------------------------------------------
 LBFGS: starting iteration         2 with trial guess (lambda=  1.000000)
--------------------------------------------------------------------------------
 
+---------------- MEMORY AND SCRATCH DISK ESTIMATES PER PROCESS --------------+
|                                                     Memory          Disk    |
| Model and support data                               33.1 MB         0.0 MB |
| Electronic energy minimisation requirements          14.5 MB         0.0 MB |
| Geometry minimisation requirements                   19.2 MB         0.0 MB |
|                                               ----------------------------- |
| Approx. total storage required per process           66.8 MB         0.0 MB |
|                                                                             |
| Requirements will fluctuate during execution and may exceed these estimates |
+-----------------------------------------------------------------------------+
 

                           -------------------------------
                                      Unit Cell
                           -------------------------------
        Real Lattice(A)              Reciprocal Lattice(1/A)
     1.7820479     0.0000000     0.0000000        3.525823000  -0.000000000   0.000000000
     0.0000000     2.9792008     0.0000000       -0.000000000   2.109017032   0.000000000
     0.0000000     0.0000000     2.7707285        0.000000000   0.000000000   2.267701587

                       Lattice parameters(A)       Cell Angles
                    a =      1.782048          alpha =   90.000000
                    b =      2.979201          beta  =   90.000000
                    c =      2.770728          gamma =   90.000000

                Current cell volume =            14.710015 A**3

                           -------------------------------
                                     Cell Contents
                           -------------------------------

            xxxxxxxxxxxxxxxxxxxxxxxxxxxxxxxxxxxxxxxxxxxxxxxxxxxxxxxxxxxxxxxxx
            x  Element         Atom        Fractional coordinates of atoms  x
            x                 Number           u          v          w      x
            x---------------------------------------------------------------x
            x  H                 1        -0.000000   0.382707   0.448994   x
            x  H                 2        -0.000000   0.117293   0.948994   x
            x  H                 3        -0.000000   0.882707   0.051006   x
            x  H                 4         0.000000   0.617293   0.551006   x
            x  H                 5         0.500000   0.882707   0.448994   x
            x  H                 6         0.500000   0.617293   0.948994   x
            x  H                 7         0.500000   0.382707   0.051006   x
            x  H                 8         0.500000   0.117293   0.551006   x
            xxxxxxxxxxxxxxxxxxxxxxxxxxxxxxxxxxxxxxxxxxxxxxxxxxxxxxxxxxxxxxxxx


------------------------------------------------------------------------ <-- SCF
SCF loop      Energy                           Energy gain       Timer   <-- SCF
                                               per atom          (sec)   <-- SCF
------------------------------------------------------------------------ <-- SCF
Initial  -1.17748401E+002                                         37.56  <-- SCF
      1  -1.17842099E+002                    1.17122066E-002      38.52  <-- SCF
      2  -1.17842456E+002                    4.46792136E-005      39.77  <-- SCF
      3  -1.17837043E+002                   -6.76607889E-004      41.00  <-- SCF
      4  -1.17836778E+002                   -3.31708225E-005      42.32  <-- SCF
      5  -1.17836779E+002                    8.32529844E-008      43.53  <-- SCF
      6  -1.17836779E+002                    5.78610269E-009      44.79  <-- SCF
      7  -1.17836779E+002                    2.23045652E-011      45.70  <-- SCF
      8  -1.17836779E+002                    4.44097397E-013      46.59  <-- SCF
      9  -1.17836779E+002                    4.25970973E-013      47.48  <-- SCF
------------------------------------------------------------------------ <-- SCF
 
Final energy =  -117.8367788187     eV
(energy not corrected for finite basis set)
 

 ******************************** Symmetrised Forces ********************************
 *                                                                                  *
 *                           Cartesian components (eV/A)                            *
 * -------------------------------------------------------------------------------- *
 *                         x                    y                    z              *
 *                                                                                  *
 * H               1     -0.00000             -0.23681             -0.10166         *
 * H               2      0.00000              0.23681             -0.10166         *
 * H               3      0.00000             -0.23681              0.10166         *
 * H               4     -0.00000              0.23681              0.10166         *
 * H               5     -0.00000             -0.23681             -0.10166         *
 * H               6      0.00000              0.23681             -0.10166         *
 * H               7      0.00000             -0.23681              0.10166         *
 * H               8     -0.00000              0.23681              0.10166         *
 *                                                                                  *
 ************************************************************************************

 *********** Symmetrised Stress Tensor ***********
 *                                               *
 *          Cartesian components (GPa)           *
 * --------------------------------------------- *
 *             x             y             z     *
 *                                               *
 *  x   -168.475117      0.000000      0.000000  *
 *  y      0.000000   -173.300625      0.000000  *
 *  z      0.000000      0.000000   -169.361248  *
 *                                               *
 *  Pressure:  170.3790                          *
 *                                               *
 *************************************************
  
 +------------+-------------+-------------+-----------------+ <-- min LBFGS
 |    Step    |   lambda    |   F.delta'  |    enthalpy     | <-- min LBFGS
 +------------+-------------+-------------+-----------------+ <-- min LBFGS
 |  previous  |    0.000000 |    0.029079 |     -102.234479 | <-- min LBFGS
 | trial step |    1.000000 |   -0.068238 |     -102.228621 | <-- min LBFGS
 +------------+-------------+-------------+-----------------+ <-- min LBFGS
  

--------------------------------------------------------------------------------
 LBFGS: improving iteration         2 with line minimization (lambda=  0.298810)
--------------------------------------------------------------------------------

                           -------------------------------
                                      Unit Cell
                           -------------------------------
        Real Lattice(A)              Reciprocal Lattice(1/A)
     1.7769751     0.0000000     0.0000000        3.535888114  -0.000000000   0.000000000
     0.0000000     2.9754275     0.0000000       -0.000000000   2.111691589   0.000000000
     0.0000000     0.0000000     2.7629336        0.000000000   0.000000000   2.274099297

                       Lattice parameters(A)       Cell Angles
                    a =      1.776975          alpha =   90.000000
                    b =      2.975428          beta  =   90.000000
                    c =      2.762934          gamma =   90.000000

                Current cell volume =            14.608350 A**3

                           -------------------------------
                                     Cell Contents
                           -------------------------------

            xxxxxxxxxxxxxxxxxxxxxxxxxxxxxxxxxxxxxxxxxxxxxxxxxxxxxxxxxxxxxxxxx
            x  Element         Atom        Fractional coordinates of atoms  x
            x                 Number           u          v          w      x
            x---------------------------------------------------------------x
            x  H                 1         0.000000   0.380470   0.447912   x
            x  H                 2        -0.000000   0.119530   0.947912   x
            x  H                 3        -0.000000   0.880470   0.052088   x
            x  H                 4         0.000000   0.619530   0.552088   x
            x  H                 5         0.500000   0.880470   0.447912   x
            x  H                 6         0.500000   0.619530   0.947912   x
            x  H                 7         0.500000   0.380470   0.052088   x
            x  H                 8         0.500000   0.119530   0.552088   x
            xxxxxxxxxxxxxxxxxxxxxxxxxxxxxxxxxxxxxxxxxxxxxxxxxxxxxxxxxxxxxxxxx


------------------------------------------------------------------------ <-- SCF
SCF loop      Energy                           Energy gain       Timer   <-- SCF
                                               per atom          (sec)   <-- SCF
------------------------------------------------------------------------ <-- SCF
Initial  -1.17691940E+002                                         48.63  <-- SCF
      1  -1.17738911E+002                    5.87131835E-003      49.59  <-- SCF
      2  -1.17739086E+002                    2.18447047E-005      50.82  <-- SCF
      3  -1.17736359E+002                   -3.40841417E-004      52.06  <-- SCF
      4  -1.17736227E+002                   -1.65500019E-005      53.32  <-- SCF
      5  -1.17736227E+002                    3.72405516E-008      54.55  <-- SCF
      6  -1.17736227E+002                    2.48858284E-009      55.79  <-- SCF
      7  -1.17736227E+002                    7.15691656E-012      56.70  <-- SCF
      8  -1.17736227E+002                    4.83371317E-013      57.59  <-- SCF
------------------------------------------------------------------------ <-- SCF
 
Final energy =  -117.7362268997     eV
(energy not corrected for finite basis set)
 

 ******************************** Symmetrised Forces ********************************
 *                                                                                  *
 *                           Cartesian components (eV/A)                            *
 * -------------------------------------------------------------------------------- *
 *                         x                    y                    z              *
 *                                                                                  *
 * H               1      0.00000              0.00427              0.00288         *
 * H               2      0.00000             -0.00427              0.00288         *
 * H               3     -0.00000              0.00427             -0.00288         *
 * H               4      0.00000             -0.00427             -0.00288         *
 * H               5      0.00000              0.00427              0.00288         *
 * H               6      0.00000             -0.00427              0.00288         *
 * H               7     -0.00000              0.00427             -0.00288         *
 * H               8      0.00000             -0.00427             -0.00288         *
 *                                                                                  *
 ************************************************************************************

 *********** Symmetrised Stress Tensor ***********
 *                                               *
 *          Cartesian components (GPa)           *
 * --------------------------------------------- *
 *             x             y             z     *
 *                                               *
 *  x   -170.154054      0.000000      0.000000  *
 *  y      0.000000   -169.190203      0.000000  *
 *  z      0.000000      0.000000   -170.347816  *
 *                                               *
 *  Pressure:  169.8974                          *
 *                                               *
 *************************************************
  
 +------------+-------------+-------------+-----------------+ <-- min LBFGS
 |    Step    |   lambda    |   F.delta'  |    enthalpy     | <-- min LBFGS
 +------------+-------------+-------------+-----------------+ <-- min LBFGS
 |  previous  |    0.000000 |    0.029079 |     -102.234479 | <-- min LBFGS
 | trial step |    1.000000 |   -0.068238 |     -102.228621 | <-- min LBFGS
 |  line step |    0.298810 |    0.001486 |     -102.235941 | <-- min LBFGS
 +------------+-------------+-------------+-----------------+ <-- min LBFGS
  
 LBFGS: finished iteration     2 with enthalpy= -1.02235941E+002 eV
  
 +-----------+-----------------+-----------------+------------+-----+ <-- LBFGS
 | Parameter |      value      |    tolerance    |    units   | OK? | <-- LBFGS
 +-----------+-----------------+-----------------+------------+-----+ <-- LBFGS
 |  dE/ion   |   1.828156E-004 |   1.000000E-009 |         eV | No  | <-- LBFGS
 |  |F|max   |   5.146637E-003 |   1.000000E-005 |       eV/A | No  | <-- LBFGS
 |  |dR|max  |   3.109455E-003 |   1.000000E-005 |          A | No  | <-- LBFGS
 |   Smax    |   8.097974E-001 |   1.000000E-005 |        GPa | No  | <-- LBFGS
 +-----------+-----------------+-----------------+------------+-----+ <-- LBFGS
  

================================================================================
 Starting LBFGS iteration          3 ...
================================================================================
  
 +------------+-------------+-------------+-----------------+ <-- min LBFGS
 |    Step    |   lambda    |   F.delta'  |    enthalpy     | <-- min LBFGS
 +------------+-------------+-------------+-----------------+ <-- min LBFGS
 |  previous  |    0.000000 |    0.003061 |     -102.235941 | <-- min LBFGS
 +------------+-------------+-------------+-----------------+ <-- min LBFGS
  

--------------------------------------------------------------------------------
 LBFGS: starting iteration         3 with trial guess (lambda=  1.000000)
--------------------------------------------------------------------------------

                           -------------------------------
                                      Unit Cell
                           -------------------------------
        Real Lattice(A)              Reciprocal Lattice(1/A)
     1.7772399     0.0000000     0.0000000        3.535361459  -0.000000000   0.000000000
     0.0000000     2.9741397     0.0000000       -0.000000000   2.112606007   0.000000000
     0.0000000     0.0000000     2.7637299        0.000000000   0.000000000   2.273444055

                       Lattice parameters(A)       Cell Angles
                    a =      1.777240          alpha =   90.000000
                    b =      2.974140          beta  =   90.000000
                    c =      2.763730          gamma =   90.000000

                Current cell volume =            14.608412 A**3

                           -------------------------------
                                     Cell Contents
                           -------------------------------

            xxxxxxxxxxxxxxxxxxxxxxxxxxxxxxxxxxxxxxxxxxxxxxxxxxxxxxxxxxxxxxxxx
            x  Element         Atom        Fractional coordinates of atoms  x
            x                 Number           u          v          w      x
            x---------------------------------------------------------------x
            x  H                 1         0.000000   0.380476   0.447952   x
            x  H                 2        -0.000000   0.119524   0.947952   x
            x  H                 3        -0.000000   0.880476   0.052048   x
            x  H                 4         0.000000   0.619524   0.552048   x
            x  H                 5         0.500000   0.880476   0.447952   x
            x  H                 6         0.500000   0.619524   0.947952   x
            x  H                 7         0.500000   0.380476   0.052048   x
            x  H                 8         0.500000   0.119524   0.552048   x
            xxxxxxxxxxxxxxxxxxxxxxxxxxxxxxxxxxxxxxxxxxxxxxxxxxxxxxxxxxxxxxxxx


------------------------------------------------------------------------ <-- SCF
SCF loop      Energy                           Energy gain       Timer   <-- SCF
                                               per atom          (sec)   <-- SCF
------------------------------------------------------------------------ <-- SCF
Initial  -1.17736282E+002                                         58.78  <-- SCF
      1  -1.17736326E+002                    5.46190468E-006      59.75  <-- SCF
      2  -1.17736326E+002                    2.75667780E-008      60.99  <-- SCF
      3  -1.17736326E+002                   -5.67596714E-008      62.23  <-- SCF
      4  -1.17736326E+002                   -8.55978096E-010      63.48  <-- SCF
      5  -1.17736326E+002                    5.04126073E-011      64.38  <-- SCF
      6  -1.17736326E+002                    4.72193355E-012      65.27  <-- SCF
      7  -1.17736326E+002                    5.89108792E-013      66.16  <-- SCF
------------------------------------------------------------------------ <-- SCF
 
Final energy =  -117.7363256877     eV
(energy not corrected for finite basis set)
 

 ******************************** Symmetrised Forces ********************************
 *                                                                                  *
 *                           Cartesian components (eV/A)                            *
 * -------------------------------------------------------------------------------- *
 *                         x                    y                    z              *
 *                                                                                  *
 * H               1      0.00000             -0.00117              0.00046         *
 * H               2     -0.00000              0.00117              0.00046         *
 * H               3      0.00000             -0.00117             -0.00046         *
 * H               4     -0.00000              0.00117             -0.00046         *
 * H               5      0.00000             -0.00117              0.00046         *
 * H               6      0.00000              0.00117              0.00046         *
 * H               7      0.00000             -0.00117             -0.00046         *
 * H               8      0.00000              0.00117             -0.00046         *
 *                                                                                  *
 ************************************************************************************

 *********** Symmetrised Stress Tensor ***********
 *                                               *
 *          Cartesian components (GPa)           *
 * --------------------------------------------- *
 *             x             y             z     *
 *                                               *
 *  x   -170.133748      0.000000      0.000000  *
 *  y      0.000000   -169.653746      0.000000  *
 *  z      0.000000      0.000000   -170.219574  *
 *                                               *
 *  Pressure:  170.0024                          *
 *                                               *
 *************************************************
  
 +------------+-------------+-------------+-----------------+ <-- min LBFGS
 |    Step    |   lambda    |   F.delta'  |    enthalpy     | <-- min LBFGS
 +------------+-------------+-------------+-----------------+ <-- min LBFGS
 |  previous  |    0.000000 |    0.003061 |     -102.235941 | <-- min LBFGS
 | trial step |    1.000000 |    0.001418 |     -102.235975 | <-- min LBFGS
 +------------+-------------+-------------+-----------------+ <-- min LBFGS
  

--------------------------------------------------------------------------------
 LBFGS: improving iteration         3 with line minimization (lambda=  1.863474)
--------------------------------------------------------------------------------

                           -------------------------------
                                      Unit Cell
                           -------------------------------
        Real Lattice(A)              Reciprocal Lattice(1/A)
     1.7774684     0.0000000     0.0000000        3.534906832  -0.000000000   0.000000000
     0.0000000     2.9730276     0.0000000       -0.000000000   2.113396221   0.000000000
     0.0000000     0.0000000     2.7644175        0.000000000   0.000000000   2.272878574

                       Lattice parameters(A)       Cell Angles
                    a =      1.777468          alpha =   90.000000
                    b =      2.973028          beta  =   90.000000
                    c =      2.764418          gamma =   90.000000

                Current cell volume =            14.608461 A**3

                           -------------------------------
                                     Cell Contents
                           -------------------------------

            xxxxxxxxxxxxxxxxxxxxxxxxxxxxxxxxxxxxxxxxxxxxxxxxxxxxxxxxxxxxxxxxx
            x  Element         Atom        Fractional coordinates of atoms  x
            x                 Number           u          v          w      x
            x---------------------------------------------------------------x
            x  H                 1         0.000000   0.380482   0.447986   x
            x  H                 2        -0.000000   0.119518   0.947986   x
            x  H                 3        -0.000000   0.880482   0.052014   x
            x  H                 4         0.000000   0.619518   0.552014   x
            x  H                 5         0.500000   0.880482   0.447986   x
            x  H                 6         0.500000   0.619518   0.947986   x
            x  H                 7         0.500000   0.380482   0.052014   x
            x  H                 8         0.500000   0.119518   0.552014   x
            xxxxxxxxxxxxxxxxxxxxxxxxxxxxxxxxxxxxxxxxxxxxxxxxxxxxxxxxxxxxxxxxx


------------------------------------------------------------------------ <-- SCF
SCF loop      Energy                           Energy gain       Timer   <-- SCF
                                               per atom          (sec)   <-- SCF
------------------------------------------------------------------------ <-- SCF
Initial  -1.17736355E+002                                         67.31  <-- SCF
      1  -1.17736388E+002                    4.09901425E-006      68.30  <-- SCF
      2  -1.17736388E+002                    2.08520676E-008      69.54  <-- SCF
      3  -1.17736387E+002                   -4.26605821E-008      70.77  <-- SCF
      4  -1.17736387E+002                   -6.48415432E-010      72.06  <-- SCF
      5  -1.17736387E+002                    3.74642981E-011      73.05  <-- SCF
      6  -1.17736387E+002                    3.52256847E-012      73.94  <-- SCF
      7  -1.17736387E+002                    7.85478390E-014      74.83  <-- SCF
------------------------------------------------------------------------ <-- SCF
 
Final energy =  -117.7363874400     eV
(energy not corrected for finite basis set)
 

 ******************************** Symmetrised Forces ********************************
 *                                                                                  *
 *                           Cartesian components (eV/A)                            *
 * -------------------------------------------------------------------------------- *
 *                         x                    y                    z              *
 *                                                                                  *
 * H               1     -0.00000             -0.00586             -0.00162         *
 * H               2      0.00000              0.00586             -0.00162         *
 * H               3      0.00000             -0.00586              0.00162         *
 * H               4      0.00000              0.00586              0.00162         *
 * H               5     -0.00000             -0.00586             -0.00162         *
 * H               6      0.00000              0.00586             -0.00162         *
 * H               7      0.00000             -0.00586              0.00162         *
 * H               8      0.00000              0.00586              0.00162         *
 *                                                                                  *
 ************************************************************************************

 *********** Symmetrised Stress Tensor ***********
 *                                               *
 *          Cartesian components (GPa)           *
 * --------------------------------------------- *
 *             x             y             z     *
 *                                               *
 *  x   -170.117985     -0.000000      0.000000  *
 *  y     -0.000000   -170.052318      0.000000  *
 *  z      0.000000      0.000000   -170.110432  *
 *                                               *
 *  Pressure:  170.0936                          *
 *                                               *
 *************************************************
  
 +------------+-------------+-------------+-----------------+ <-- min LBFGS
 |    Step    |   lambda    |   F.delta'  |    enthalpy     | <-- min LBFGS
 +------------+-------------+-------------+-----------------+ <-- min LBFGS
 |  previous  |    0.000000 |    0.003061 |     -102.235941 | <-- min LBFGS
 | trial step |    1.000000 |    0.001418 |     -102.235975 | <-- min LBFGS
 |  line step |    1.863474 |  8.388E-006 |     -102.235984 | <-- min LBFGS
 +------------+-------------+-------------+-----------------+ <-- min LBFGS
  
 LBFGS: finished iteration     3 with enthalpy= -1.02235984E+002 eV
  
 +-----------+-----------------+-----------------+------------+-----+ <-- LBFGS
 | Parameter |      value      |    tolerance    |    units   | OK? | <-- LBFGS
 +-----------+-----------------+-----------------+------------+-----+ <-- LBFGS
 |  dE/ion   |   5.383731E-006 |   1.000000E-009 |         eV | No  | <-- LBFGS
 |  |F|max   |   6.081822E-003 |   1.000000E-005 |       eV/A | No  | <-- LBFGS
 |  |dR|max  |   2.062064E-004 |   1.000000E-005 |          A | No  | <-- LBFGS
 |   Smax    |   1.179851E-001 |   1.000000E-005 |        GPa | No  | <-- LBFGS
 +-----------+-----------------+-----------------+------------+-----+ <-- LBFGS
  

================================================================================
 Starting LBFGS iteration          4 ...
================================================================================
  
 +------------+-------------+-------------+-----------------+ <-- min LBFGS
 |    Step    |   lambda    |   F.delta'  |    enthalpy     | <-- min LBFGS
 +------------+-------------+-------------+-----------------+ <-- min LBFGS
 |  previous  |    0.000000 |    0.001300 |     -102.235984 | <-- min LBFGS
 +------------+-------------+-------------+-----------------+ <-- min LBFGS
  

--------------------------------------------------------------------------------
 LBFGS: starting iteration         4 with trial guess (lambda=  1.000000)
--------------------------------------------------------------------------------

                           -------------------------------
                                      Unit Cell
                           -------------------------------
        Real Lattice(A)              Reciprocal Lattice(1/A)
     1.7776263     0.0000000     0.0000000        3.534592857  -0.000000000   0.000000000
     0.0000000     2.9726019     0.0000000       -0.000000000   2.113698852   0.000000000
     0.0000000     0.0000000     2.7647057        0.000000000   0.000000000   2.272641639

                       Lattice parameters(A)       Cell Angles
                    a =      1.777626          alpha =   90.000000
                    b =      2.972602          beta  =   90.000000
                    c =      2.764706          gamma =   90.000000

                Current cell volume =            14.609190 A**3

                           -------------------------------
                                     Cell Contents
                           -------------------------------

            xxxxxxxxxxxxxxxxxxxxxxxxxxxxxxxxxxxxxxxxxxxxxxxxxxxxxxxxxxxxxxxxx
            x  Element         Atom        Fractional coordinates of atoms  x
            x                 Number           u          v          w      x
            x---------------------------------------------------------------x
            x  H                 1         0.000000   0.380421   0.447998   x
            x  H                 2        -0.000000   0.119579   0.947998   x
            x  H                 3        -0.000000   0.880421   0.052002   x
            x  H                 4         0.000000   0.619579   0.552002   x
            x  H                 5         0.500000   0.880421   0.447998   x
            x  H                 6         0.500000   0.619579   0.947998   x
            x  H                 7         0.500000   0.380421   0.052002   x
            x  H                 8         0.500000   0.119579   0.552002   x
            xxxxxxxxxxxxxxxxxxxxxxxxxxxxxxxxxxxxxxxxxxxxxxxxxxxxxxxxxxxxxxxxx


------------------------------------------------------------------------ <-- SCF
SCF loop      Energy                           Energy gain       Timer   <-- SCF
                                               per atom          (sec)   <-- SCF
------------------------------------------------------------------------ <-- SCF
Initial  -1.17737143E+002                                         76.01  <-- SCF
      1  -1.17737167E+002                    3.03561486E-006      76.96  <-- SCF
      2  -1.17737167E+002                    1.40928237E-008      78.23  <-- SCF
      3  -1.17737167E+002                   -7.99389031E-008      79.48  <-- SCF
      4  -1.17737167E+002                   -3.89164664E-009      80.74  <-- SCF
      5  -1.17737167E+002                    1.78847387E-011      81.64  <-- SCF
      6  -1.17737167E+002                    2.19027628E-012      82.54  <-- SCF
      7  -1.17737167E+002                   -4.41076327E-013      83.43  <-- SCF
------------------------------------------------------------------------ <-- SCF
 
Final energy =  -117.7371665573     eV
(energy not corrected for finite basis set)
 

 ******************************** Symmetrised Forces ********************************
 *                                                                                  *
 *                           Cartesian components (eV/A)                            *
 * -------------------------------------------------------------------------------- *
 *                         x                    y                    z              *
 *                                                                                  *
 * H               1     -0.00000             -0.00143              0.00019         *
 * H               2     -0.00000              0.00143              0.00019         *
 * H               3     -0.00000             -0.00143             -0.00019         *
 * H               4      0.00000              0.00143             -0.00019         *
 * H               5     -0.00000             -0.00143              0.00019         *
 * H               6      0.00000              0.00143              0.00019         *
 * H               7     -0.00000             -0.00143             -0.00019         *
 * H               8      0.00000              0.00143             -0.00019         *
 *                                                                                  *
 ************************************************************************************

 *********** Symmetrised Stress Tensor ***********
 *                                               *
 *          Cartesian components (GPa)           *
 * --------------------------------------------- *
 *             x             y             z     *
 *                                               *
 *  x   -170.047928      0.000000      0.000000  *
 *  y      0.000000   -170.015315      0.000000  *
 *  z      0.000000      0.000000   -170.001844  *
 *                                               *
 *  Pressure:  170.0217                          *
 *                                               *
 *************************************************
  
 +------------+-------------+-------------+-----------------+ <-- min LBFGS
 |    Step    |   lambda    |   F.delta'  |    enthalpy     | <-- min LBFGS
 +------------+-------------+-------------+-----------------+ <-- min LBFGS
 |  previous  |    0.000000 |    0.001300 |     -102.235984 | <-- min LBFGS
 | trial step |    1.000000 |    0.000323 |     -102.235990 | <-- min LBFGS
 +------------+-------------+-------------+-----------------+ <-- min LBFGS
  
 LBFGS: finished iteration     4 with enthalpy= -1.02235990E+002 eV
  
 +-----------+-----------------+-----------------+------------+-----+ <-- LBFGS
 | Parameter |      value      |    tolerance    |    units   | OK? | <-- LBFGS
 +-----------+-----------------+-----------------+------------+-----+ <-- LBFGS
 |  dE/ion   |   7.268453E-007 |   1.000000E-009 |         eV | No  | <-- LBFGS
 |  |F|max   |   1.444930E-003 |   1.000000E-005 |       eV/A | No  | <-- LBFGS
 |  |dR|max  |   1.854146E-004 |   1.000000E-005 |          A | No  | <-- LBFGS
 |   Smax    |   4.792768E-002 |   1.000000E-005 |        GPa | No  | <-- LBFGS
 +-----------+-----------------+-----------------+------------+-----+ <-- LBFGS
  

================================================================================
 Starting LBFGS iteration          5 ...
================================================================================
  
 +------------+-------------+-------------+-----------------+ <-- min LBFGS
 |    Step    |   lambda    |   F.delta'  |    enthalpy     | <-- min LBFGS
 +------------+-------------+-------------+-----------------+ <-- min LBFGS
 |  previous  |    0.000000 |    0.000343 |     -102.235990 | <-- min LBFGS
 +------------+-------------+-------------+-----------------+ <-- min LBFGS
  

--------------------------------------------------------------------------------
 LBFGS: starting iteration         5 with trial guess (lambda=  1.000000)
--------------------------------------------------------------------------------

                           -------------------------------
                                      Unit Cell
                           -------------------------------
        Real Lattice(A)              Reciprocal Lattice(1/A)
     1.7777200     0.0000000     0.0000000        3.534406661  -0.000000000   0.000000000
     0.0000000     2.9724586     0.0000000       -0.000000000   2.113800753   0.000000000
     0.0000000     0.0000000     2.7647602        0.000000000   0.000000000   2.272596866

                       Lattice parameters(A)       Cell Angles
                    a =      1.777720          alpha =   90.000000
                    b =      2.972459          beta  =   90.000000
                    c =      2.764760          gamma =   90.000000

                Current cell volume =            14.609543 A**3

                           -------------------------------
                                     Cell Contents
                           -------------------------------

            xxxxxxxxxxxxxxxxxxxxxxxxxxxxxxxxxxxxxxxxxxxxxxxxxxxxxxxxxxxxxxxxx
            x  Element         Atom        Fractional coordinates of atoms  x
            x                 Number           u          v          w      x
            x---------------------------------------------------------------x
            x  H                 1         0.000000   0.380391   0.448027   x
            x  H                 2         0.000000   0.119609   0.948027   x
            x  H                 3        -0.000000   0.880391   0.051973   x
            x  H                 4        -0.000000   0.619609   0.551973   x
            x  H                 5         0.500000   0.880391   0.448027   x
            x  H                 6         0.500000   0.619609   0.948027   x
            x  H                 7         0.500000   0.380391   0.051973   x
            x  H                 8         0.500000   0.119609   0.551973   x
            xxxxxxxxxxxxxxxxxxxxxxxxxxxxxxxxxxxxxxxxxxxxxxxxxxxxxxxxxxxxxxxxx


------------------------------------------------------------------------ <-- SCF
SCF loop      Energy                           Energy gain       Timer   <-- SCF
                                               per atom          (sec)   <-- SCF
------------------------------------------------------------------------ <-- SCF
Initial  -1.17737535E+002                                         84.61  <-- SCF
      1  -1.17737542E+002                    9.14741469E-007      85.57  <-- SCF
      2  -1.17737542E+002                    4.11047186E-009      86.83  <-- SCF
      3  -1.17737542E+002                   -5.48723421E-009      88.07  <-- SCF
      4  -1.17737542E+002                   -2.18006506E-010      89.35  <-- SCF
      5  -1.17737542E+002                    5.67659190E-012      90.25  <-- SCF
      6  -1.17737542E+002                    5.07539883E-013      91.13  <-- SCF
------------------------------------------------------------------------ <-- SCF
 
Final energy =  -117.7375420937     eV
(energy not corrected for finite basis set)
 

 ******************************** Symmetrised Forces ********************************
 *                                                                                  *
 *                           Cartesian components (eV/A)                            *
 * -------------------------------------------------------------------------------- *
 *                         x                    y                    z              *
 *                                                                                  *
 * H               1      0.00000              0.00000              0.00063         *
 * H               2     -0.00000             -0.00000              0.00063         *
 * H               3      0.00000              0.00000             -0.00063         *
 * H               4      0.00000             -0.00000             -0.00063         *
 * H               5      0.00000              0.00000              0.00063         *
 * H               6     -0.00000             -0.00000              0.00063         *
 * H               7      0.00000              0.00000             -0.00063         *
 * H               8      0.00000             -0.00000             -0.00063         *
 *                                                                                  *
 ************************************************************************************

 *********** Symmetrised Stress Tensor ***********
 *                                               *
 *          Cartesian components (GPa)           *
 * --------------------------------------------- *
 *             x             y             z     *
 *                                               *
 *  x   -170.012005      0.000000      0.000000  *
 *  y      0.000000   -170.001370      0.000000  *
 *  z      0.000000      0.000000   -169.974620  *
 *                                               *
 *  Pressure:  169.9960                          *
 *                                               *
 *************************************************
  
 +------------+-------------+-------------+-----------------+ <-- min LBFGS
 |    Step    |   lambda    |   F.delta'  |    enthalpy     | <-- min LBFGS
 +------------+-------------+-------------+-----------------+ <-- min LBFGS
 |  previous  |    0.000000 |    0.000343 |     -102.235990 | <-- min LBFGS
 | trial step |    1.000000 |    0.000109 |     -102.235991 | <-- min LBFGS
 +------------+-------------+-------------+-----------------+ <-- min LBFGS
  

--------------------------------------------------------------------------------
 LBFGS: improving iteration         5 with line minimization (lambda=  1.464934)
--------------------------------------------------------------------------------

                           -------------------------------
                                      Unit Cell
                           -------------------------------
        Real Lattice(A)              Reciprocal Lattice(1/A)
     1.7777635     0.0000000     0.0000000        3.534320098  -0.000000000   0.000000000
     0.0000000     2.9723920     0.0000000       -0.000000000   2.113848134   0.000000000
     0.0000000     0.0000000     2.7647855        0.000000000   0.000000000   2.272576050

                       Lattice parameters(A)       Cell Angles
                    a =      1.777764          alpha =   90.000000
                    b =      2.972392          beta  =   90.000000
                    c =      2.764785          gamma =   90.000000

                Current cell volume =            14.609707 A**3

                           -------------------------------
                                     Cell Contents
                           -------------------------------

            xxxxxxxxxxxxxxxxxxxxxxxxxxxxxxxxxxxxxxxxxxxxxxxxxxxxxxxxxxxxxxxxx
            x  Element         Atom        Fractional coordinates of atoms  x
            x                 Number           u          v          w      x
            x---------------------------------------------------------------x
            x  H                 1         0.000000   0.380377   0.448041   x
            x  H                 2         0.000000   0.119623   0.948041   x
            x  H                 3        -0.000000   0.880377   0.051959   x
            x  H                 4        -0.000000   0.619623   0.551959   x
            x  H                 5         0.500000   0.880377   0.448041   x
            x  H                 6         0.500000   0.619623   0.948041   x
            x  H                 7         0.500000   0.380377   0.051959   x
            x  H                 8         0.500000   0.119623   0.551959   x
            xxxxxxxxxxxxxxxxxxxxxxxxxxxxxxxxxxxxxxxxxxxxxxxxxxxxxxxxxxxxxxxxx


------------------------------------------------------------------------ <-- SCF
SCF loop      Energy                           Energy gain       Timer   <-- SCF
                                               per atom          (sec)   <-- SCF
------------------------------------------------------------------------ <-- SCF
Initial  -1.17737715E+002                                         92.28  <-- SCF
      1  -1.17737716E+002                    2.04235049E-007      93.28  <-- SCF
      2  -1.17737716E+002                    8.89155495E-010      94.54  <-- SCF
      3  -1.17737716E+002                   -1.18592736E-009      95.78  <-- SCF
      4  -1.17737716E+002                   -4.77661493E-011      96.76  <-- SCF
      5  -1.17737716E+002                    1.49845108E-012      97.65  <-- SCF
      6  -1.17737716E+002                    4.28992044E-013      98.54  <-- SCF
------------------------------------------------------------------------ <-- SCF
 
Final energy =  -117.7377163437     eV
(energy not corrected for finite basis set)
 

 ******************************** Symmetrised Forces ********************************
 *                                                                                  *
 *                           Cartesian components (eV/A)                            *
 * -------------------------------------------------------------------------------- *
 *                         x                    y                    z              *
 *                                                                                  *
 * H               1      0.00000              0.00067              0.00084         *
 * H               2     -0.00000             -0.00067              0.00084         *
 * H               3     -0.00000              0.00067             -0.00084         *
 * H               4     -0.00000             -0.00067             -0.00084         *
 * H               5      0.00000              0.00067              0.00084         *
 * H               6     -0.00000             -0.00067              0.00084         *
 * H               7     -0.00000              0.00067             -0.00084         *
 * H               8     -0.00000             -0.00067             -0.00084         *
 *                                                                                  *
 ************************************************************************************

 *********** Symmetrised Stress Tensor ***********
 *                                               *
 *          Cartesian components (GPa)           *
 * --------------------------------------------- *
 *             x             y             z     *
 *                                               *
 *  x   -169.995291     -0.000000      0.000000  *
 *  y     -0.000000   -169.994909      0.000000  *
 *  z      0.000000      0.000000   -169.961957  *
 *                                               *
 *  Pressure:  169.9841                          *
 *                                               *
 *************************************************
  
 +------------+-------------+-------------+-----------------+ <-- min LBFGS
 |    Step    |   lambda    |   F.delta'  |    enthalpy     | <-- min LBFGS
 +------------+-------------+-------------+-----------------+ <-- min LBFGS
 |  previous  |    0.000000 |    0.000343 |     -102.235990 | <-- min LBFGS
 | trial step |    1.000000 |    0.000109 |     -102.235991 | <-- min LBFGS
 |  line step |    1.464934 | -1.695E-007 |     -102.235991 | <-- min LBFGS
 +------------+-------------+-------------+-----------------+ <-- min LBFGS
  
 LBFGS: finished iteration     5 with enthalpy= -1.02235991E+002 eV
  
 +-----------+-----------------+-----------------+------------+-----+ <-- LBFGS
 | Parameter |      value      |    tolerance    |    units   | OK? | <-- LBFGS
 +-----------+-----------------+-----------------+------------+-----+ <-- LBFGS
 |  dE/ion   |   1.150885E-007 |   1.000000E-009 |         eV | No  | <-- LBFGS
 |  |F|max   |   1.076350E-003 |   1.000000E-005 |       eV/A | No  | <-- LBFGS
 |  |dR|max  |   1.759834E-004 |   1.000000E-005 |          A | No  | <-- LBFGS
 |   Smax    |   3.804336E-002 |   1.000000E-005 |        GPa | No  | <-- LBFGS
 +-----------+-----------------+-----------------+------------+-----+ <-- LBFGS
  

================================================================================
 Starting LBFGS iteration          6 ...
================================================================================
  
 +------------+-------------+-------------+-----------------+ <-- min LBFGS
[...]
            x  H                 1        -0.000000   0.380346   0.448144   x
            x  H                 2         0.000000   0.119654   0.948144   x
            x  H                 3        -0.000000   0.880346   0.051856   x
            x  H                 4        -0.000000   0.619654   0.551856   x
            x  H                 5         0.500000   0.880346   0.448144   x
            x  H                 6         0.500000   0.619654   0.948144   x
            x  H                 7         0.500000   0.380346   0.051856   x
            x  H                 8         0.500000   0.119654   0.551856   x
            xxxxxxxxxxxxxxxxxxxxxxxxxxxxxxxxxxxxxxxxxxxxxxxxxxxxxxxxxxxxxxxxx


------------------------------------------------------------------------ <-- SCF
SCF loop      Energy                           Energy gain       Timer   <-- SCF
                                               per atom          (sec)   <-- SCF
------------------------------------------------------------------------ <-- SCF
Initial  -1.17737543E+002                                        134.43  <-- SCF
      1  -1.17737543E+002                    3.50444205E-013     135.04  <-- SCF
      2  -1.17737543E+002                    2.71896366E-014     135.93  <-- SCF
      3  -1.17737543E+002                    1.63137819E-013     136.82  <-- SCF
      4  -1.17737543E+002                    4.22949902E-013     137.75  <-- SCF
------------------------------------------------------------------------ <-- SCF
 
Final energy =  -117.7375433281     eV
(energy not corrected for finite basis set)
 

 ******************************** Symmetrised Forces ********************************
 *                                                                                  *
 *                           Cartesian components (eV/A)                            *
 * -------------------------------------------------------------------------------- *
 *                         x                    y                    z              *
 *                                                                                  *
 * H               1      0.00000             -0.00000              0.00000         *
 * H               2      0.00000              0.00000              0.00000         *
 * H               3      0.00000             -0.00000             -0.00000         *
 * H               4      0.00000              0.00000             -0.00000         *
 * H               5      0.00000             -0.00000              0.00000         *
 * H               6      0.00000              0.00000              0.00000         *
 * H               7      0.00000             -0.00000             -0.00000         *
 * H               8      0.00000              0.00000             -0.00000         *
 *                                                                                  *
 ************************************************************************************

 *********** Symmetrised Stress Tensor ***********
 *                                               *
 *          Cartesian components (GPa)           *
 * --------------------------------------------- *
 *             x             y             z     *
 *                                               *
 *  x   -169.999980      0.000000      0.000000  *
 *  y      0.000000   -170.000030      0.000000  *
 *  z      0.000000      0.000000   -169.999978  *
 *                                               *
 *  Pressure:  170.0000                          *
 *                                               *
 *************************************************
  
 +------------+-------------+-------------+-----------------+ <-- min LBFGS
 |    Step    |   lambda    |   F.delta'  |    enthalpy     | <-- min LBFGS
 +------------+-------------+-------------+-----------------+ <-- min LBFGS
 |  previous  |    0.000000 |  4.284E-007 |     -102.235992 | <-- min LBFGS
 | trial step |    1.000000 | -1.738E-007 |     -102.235992 | <-- min LBFGS
 +------------+-------------+-------------+-----------------+ <-- min LBFGS
  
 LBFGS: finished iteration     9 with enthalpy= -1.02235992E+002 eV
  
 +-----------+-----------------+-----------------+------------+-----+ <-- LBFGS
 | Parameter |      value      |    tolerance    |    units   | OK? | <-- LBFGS
 +-----------+-----------------+-----------------+------------+-----+ <-- LBFGS
 |  dE/ion   |   3.021071E-013 |   1.000000E-009 |         eV | Yes | <-- LBFGS
 |  |F|max   |   5.222793E-007 |   1.000000E-005 |       eV/A | Yes | <-- LBFGS
 |  |dR|max  |   5.555568E-008 |   1.000000E-005 |          A | Yes | <-- LBFGS
 |   Smax    |   3.010359E-005 |   1.000000E-005 |        GPa | No  | <-- LBFGS
 +-----------+-----------------+-----------------+------------+-----+ <-- LBFGS
  

================================================================================
 Starting LBFGS iteration         10 ...
================================================================================
  
 +------------+-------------+-------------+-----------------+ <-- min LBFGS
 |    Step    |   lambda    |   F.delta'  |    enthalpy     | <-- min LBFGS
 +------------+-------------+-------------+-----------------+ <-- min LBFGS
 |  previous  |    0.000000 |  1.081E-007 |     -102.235992 | <-- min LBFGS
 +------------+-------------+-------------+-----------------+ <-- min LBFGS
  

--------------------------------------------------------------------------------
 LBFGS: starting iteration        10 with trial guess (lambda=  1.000000)
--------------------------------------------------------------------------------

                           -------------------------------
                                      Unit Cell
                           -------------------------------
        Real Lattice(A)              Reciprocal Lattice(1/A)
     1.7777729     0.0000000     0.0000000        3.534301431  -0.000000000   0.000000000
     0.0000000     2.9724622     0.0000000       -0.000000000   2.113798240   0.000000000
     0.0000000     0.0000000     2.7646746        0.000000000   0.000000000   2.272667212

                       Lattice parameters(A)       Cell Angles
                    a =      1.777773          alpha =   90.000000
                    b =      2.972462          beta  =   90.000000
                    c =      2.764675          gamma =   90.000000

                Current cell volume =            14.609543 A**3

                           -------------------------------
                                     Cell Contents
                           -------------------------------

            xxxxxxxxxxxxxxxxxxxxxxxxxxxxxxxxxxxxxxxxxxxxxxxxxxxxxxxxxxxxxxxxx
            x  Element         Atom        Fractional coordinates of atoms  x
            x                 Number           u          v          w      x
            x---------------------------------------------------------------x
            x  H                 1        -0.000000   0.380346   0.448144   x
            x  H                 2         0.000000   0.119654   0.948144   x
            x  H                 3        -0.000000   0.880346   0.051856   x
            x  H                 4        -0.000000   0.619654   0.551856   x
            x  H                 5         0.500000   0.880346   0.448144   x
            x  H                 6         0.500000   0.619654   0.948144   x
            x  H                 7         0.500000   0.380346   0.051856   x
            x  H                 8         0.500000   0.119654   0.551856   x
            xxxxxxxxxxxxxxxxxxxxxxxxxxxxxxxxxxxxxxxxxxxxxxxxxxxxxxxxxxxxxxxxx


------------------------------------------------------------------------ <-- SCF
SCF loop      Energy                           Energy gain       Timer   <-- SCF
                                               per atom          (sec)   <-- SCF
------------------------------------------------------------------------ <-- SCF
Initial  -1.17737543E+002                                        138.93  <-- SCF
      1  -1.17737543E+002                    5.40771661E-013     139.54  <-- SCF
      2  -1.17737543E+002                    4.53160609E-014     140.43  <-- SCF
      3  -1.17737543E+002                    3.86697053E-013     141.32  <-- SCF
      4  -1.17737543E+002                   -4.13886690E-013     142.21  <-- SCF
------------------------------------------------------------------------ <-- SCF
 
Final energy =  -117.7375431199     eV
(energy not corrected for finite basis set)
 

 ******************************** Symmetrised Forces ********************************
 *                                                                                  *
 *                           Cartesian components (eV/A)                            *
 * -------------------------------------------------------------------------------- *
 *                         x                    y                    z              *
 *                                                                                  *
 * H               1      0.00000             -0.00000             -0.00000         *
 * H               2      0.00000              0.00000             -0.00000         *
 * H               3     -0.00000             -0.00000              0.00000         *
 * H               4     -0.00000              0.00000              0.00000         *
 * H               5     -0.00000             -0.00000             -0.00000         *
 * H               6      0.00000              0.00000             -0.00000         *
 * H               7      0.00000             -0.00000              0.00000         *
 * H               8     -0.00000              0.00000              0.00000         *
 *                                                                                  *
 ************************************************************************************

 *********** Symmetrised Stress Tensor ***********
 *                                               *
 *          Cartesian components (GPa)           *
 * --------------------------------------------- *
 *             x             y             z     *
 *                                               *
 *  x   -169.999998      0.000000      0.000000  *
 *  y      0.000000   -170.000009      0.000000  *
 *  z      0.000000      0.000000   -169.999994  *
 *                                               *
 *  Pressure:  170.0000                          *
 *                                               *
 *************************************************
  
 +------------+-------------+-------------+-----------------+ <-- min LBFGS
 |    Step    |   lambda    |   F.delta'  |    enthalpy     | <-- min LBFGS
 +------------+-------------+-------------+-----------------+ <-- min LBFGS
 |  previous  |    0.000000 |  1.081E-007 |     -102.235992 | <-- min LBFGS
 | trial step |    1.000000 |  7.781E-009 |     -102.235992 | <-- min LBFGS
 +------------+-------------+-------------+-----------------+ <-- min LBFGS
  
 LBFGS: finished iteration    10 with enthalpy= -1.02235992E+002 eV
  
 +-----------+-----------------+-----------------+------------+-----+ <-- LBFGS
 | Parameter |      value      |    tolerance    |    units   | OK? | <-- LBFGS
 +-----------+-----------------+-----------------+------------+-----+ <-- LBFGS
 |  dE/ion   |   4.138867E-013 |   1.000000E-009 |         eV | Yes | <-- LBFGS
 |  |F|max   |   5.897228E-008 |   1.000000E-005 |       eV/A | Yes | <-- LBFGS
 |  |dR|max  |   1.147571E-007 |   1.000000E-005 |          A | Yes | <-- LBFGS
 |   Smax    |   9.221537E-006 |   1.000000E-005 |        GPa | Yes | <-- LBFGS
 +-----------+-----------------+-----------------+------------+-----+ <-- LBFGS
  
 LBFGS: Geometry optimization completed successfully.

================================================================================
 LBFGS: Final Configuration:
================================================================================

                           -------------------------------
                                      Unit Cell
                           -------------------------------
        Real Lattice(A)              Reciprocal Lattice(1/A)
     1.7777729     0.0000000     0.0000000        3.534301431  -0.000000000   0.000000000
     0.0000000     2.9724622     0.0000000       -0.000000000   2.113798240   0.000000000
     0.0000000     0.0000000     2.7646746        0.000000000   0.000000000   2.272667212

                       Lattice parameters(A)       Cell Angles
                    a =      1.777773          alpha =   90.000000
                    b =      2.972462          beta  =   90.000000
                    c =      2.764675          gamma =   90.000000

                Current cell volume =            14.609543 A**3

                           -------------------------------
                                     Cell Contents
                           -------------------------------

            xxxxxxxxxxxxxxxxxxxxxxxxxxxxxxxxxxxxxxxxxxxxxxxxxxxxxxxxxxxxxxxxx
            x  Element         Atom        Fractional coordinates of atoms  x
            x                 Number           u          v          w      x
            x---------------------------------------------------------------x
            x  H                 1        -0.000000   0.380346   0.448144   x
            x  H                 2         0.000000   0.119654   0.948144   x
            x  H                 3        -0.000000   0.880346   0.051856   x
            x  H                 4        -0.000000   0.619654   0.551856   x
            x  H                 5         0.500000   0.880346   0.448144   x
            x  H                 6         0.500000   0.619654   0.948144   x
            x  H                 7         0.500000   0.380346   0.051856   x
            x  H                 8         0.500000   0.119654   0.551856   x
            xxxxxxxxxxxxxxxxxxxxxxxxxxxxxxxxxxxxxxxxxxxxxxxxxxxxxxxxxxxxxxxxx


 LBFGS: Final Enthalpy     = -1.02235992E+002 eV
 LBFGS: Final <frequency>  =     723.65705 cm-1
 LBFGS: Final bulk modulus =     434.00536 GPa

 ******************************** Symmetrised Forces ********************************
 *                                                                                  *
 *                           Cartesian components (eV/A)                            *
 * -------------------------------------------------------------------------------- *
 *                         x                    y                    z              *
 *                                                                                  *
 * H               1      0.00000             -0.00000             -0.00000         *
 * H               2      0.00000              0.00000             -0.00000         *
 * H               3     -0.00000             -0.00000              0.00000         *
 * H               4     -0.00000              0.00000              0.00000         *
 * H               5     -0.00000             -0.00000             -0.00000         *
 * H               6      0.00000              0.00000             -0.00000         *
 * H               7      0.00000             -0.00000              0.00000         *
 * H               8     -0.00000              0.00000              0.00000         *
 *                                                                                  *
 ************************************************************************************

 *********** Symmetrised Stress Tensor ***********
 *                                               *
 *          Cartesian components (GPa)           *
 * --------------------------------------------- *
 *             x             y             z     *
 *                                               *
 *  x   -169.999998      0.000000      0.000000  *
 *  y      0.000000   -170.000009      0.000000  *
 *  z      0.000000      0.000000   -169.999994  *
 *                                               *
 *  Pressure:  170.0000                          *
 *                                               *
 *************************************************

 Pseudo atomic calculation performed for H 1s1

 Converged in 24 iterations to a total energy of -12.4855 eV

Charge spilling parameter for spin component 1 = 0.57%

            Orbital Populations       
     Ion    Atom   Orbital             Charge
  -------------------------------------------
      H     1      S                    0.996
      H     2      S                    1.004
      H     3      S                    1.004
      H     4      S                    0.996
      H     5      S                    0.996
      H     6      S                    1.004
      H     7      S                    1.004
      H     8      S                    0.996
  -------------------------------------------
                           Total:       8.000
  -------------------------------------------

     Atomic Populations (Mulliken)
     -----------------------------
Species          Ion     s      p      d      f     Total  Charge (e)
=====================================================================
  H               1     1.00   0.00   0.00   0.00   1.00     0.00
  H               2     1.00   0.00   0.00   0.00   1.00     0.00
  H               3     1.00   0.00   0.00   0.00   1.00     0.00
  H               4     1.00   0.00   0.00   0.00   1.00     0.00
  H               5     1.00   0.00   0.00   0.00   1.00     0.00
  H               6     1.00   0.00   0.00   0.00   1.00     0.00
  H               7     1.00   0.00   0.00   0.00   1.00     0.00
  H               8     1.00   0.00   0.00   0.00   1.00     0.00
=====================================================================

                 Bond                   Population      Length (A)
======================================================================
               H 2 -- H 3                    1.08        0.76695
               H 5 -- H 8                    1.08        0.76695
               H 6 -- H 7                    1.08        0.76695
               H 1 -- H 4                    1.08        0.76695
               H 3 -- H 6                    0.23        1.21359
               H 4 -- H 5                    0.23        1.21359
               H 2 -- H 7                    0.23        1.21359
               H 1 -- H 8                    0.23        1.21359
               H 3 -- H 5                   -0.12        1.41084
               H 1 -- H 7                   -0.12        1.41084
               H 4 -- H 6                   -0.12        1.41084
               H 2 -- H 8                   -0.12        1.41084
               H 5 -- H 6                   -0.17        1.58471
               H 3 -- H 4                   -0.17        1.58471
               H 1 -- H 2                   -0.17        1.58471
               H 7 -- H 8                   -0.17        1.58471
               H 4 -- H 8                   -0.63        1.73176
               H 2 -- H 6                   -0.63        1.73176
               H 3 -- H 7                   -0.63        1.73176
               H 1 -- H 5                   -0.63        1.73176
======================================================================


Writing analysis data to Cmca4.castep_bin

Writing model to Cmca4.check
 
 A BibTeX formatted list of references used in this run has been written to 
 Cmca4.bib
 
Initialisation time =      4.14 s
Calculation time    =    140.55 s
Finalisation time   =      3.99 s
Total time          =    148.69 s
Peak Memory Use     = 542384 kB
  
Overall parallel efficiency rating: Excellent (93%)                             
  
Data was distributed by:-
k-point (32-way); efficiency rating: Excellent (94%)                            
  
Parallel notes:
1) Calculation only took 144.7 s, so efficiency estimates may be inaccurate.    
