 +-------------------------------------------------+
 |                                                 |
 |      CCC   AA    SSS  TTTTT  EEEEE  PPPP        |
 |     C     A  A  S       T    E      P   P       |
 |     C     AAAA   SS     T    EEE    PPPP        |
 |     C     A  A     S    T    E      P           |
 |      CCC  A  A  SSS     T    EEEEE  P           |
 |                                                 |
 +-------------------------------------------------+
 |                                                 |
 | Welcome to Academic Release CASTEP version 18.1 |          
 | Ab Initio Total Energy Program                  |
 |                                                 |
 | Authors:                                        |
 | M. Segall, M. Probert, C. Pickard, P. Hasnip,   |
 | S. Clark, K. Refson, J. R. Yates, M. Payne      |
 |                                                 |
 | Contributors:                                   |
 | P. Lindan, P. Haynes, J. White, V. Milman,      |
 | N. Govind, M. Gibson, P. Tulip, V. Cocula,      |
 | B. Montanari, D. Quigley, M. Glover,            |
 | L. Bernasconi, A. Perlov, M. Plummer,           |
 | E. McNellis, J. Meyer, J. Gale, D. Jochym       |
 | J. Aarons, B. Walker, R. Gillen, D. Jones       |
 | T. Green, I. J. Bush, C. J. Armstrong,          |
 | E. J. Higgins, E. L. Brown, M. S. McFly,        |
 | J. Wilkins, B-C. Shih, P. J. P. Byrne           |
 |                                                 |
 | Copyright (c) 2000 - 2017                       |
 |                                                 |
 |     Distributed under the terms of an           |
 |     Agreement between the United Kingdom        |
 |     Car-Parrinello (UKCP) Consortium,           |
 |     Daresbury Laboratory and Accelrys, Inc.     |
 |                                                 |
 | Please cite                                     |
 |                                                 |
 |     "First principles methods using CASTEP"     |
 |                                                 |
 |         Zeitschrift fuer Kristallographie       |
 |           220(5-6) pp. 567-570 (2005)           |
 |                                                 |
 | S. J. Clark, M. D. Segall, C. J. Pickard,       |
 | P. J. Hasnip, M. J. Probert, K. Refson,         |
 | M. C. Payne                                     |
 |                                                 |
 |       in all publications arising from          |
 |              your use of CASTEP                 |
 |                                                 |
 +-------------------------------------------------+


 Compiled for linux_x86_64_gfortran4.8 on Thu, 19 Jul 2018 15:42:32 +0100
 from code version 70483bd0ad64+  Sun, 10 Dec 2017 12:18:29 +0000
 Compiler: GNU Fortran 4.8.5; Optimisation: fast
 MATHLIBS: Intel MKL(2018.0.0) (LAPACK version 3.7.0)
 FFT Lib : mkl
 Fundamental constants values: CODATA 2014

 Run started: Thu, 27 Aug 2020 11:08:29 +0100

 Atomic calculation performed for H: 1s1

 Converged in 41 iterations to an ae energy of -12.488 eV

   ============================================================                
   | Pseudopotential Report - Date of generation 27-08-2020   |                
   ------------------------------------------------------------                
   | Element: H Ionic charge:  1.00 Level of theory: PBE      |                
   | Atomic Solver: Koelling-Harmon                           |                
   |                                                          |                
   |               Reference Electronic Structure             |                
   |         Orbital         Occupation         Energy        |                
   |            1s              1.000           -0.239        |                
   |                                                          |                
   |                 Pseudopotential Definition               |                
   |        Beta     l      e      Rc     scheme   norm       |                
   |         loc     0   -0.239   0.702     qc      1         |                
   |                                                          |                
   | No charge augmentation                                   |                
   | No partial core correction                               |                
   ------------------------------------------------------------                
   | "0|0.7|2|6|8|10L(qc=10)"                                 |                
   ------------------------------------------------------------                
   |      Author: Chris J. Pickard, Cambridge University      |                
   ============================================================                

 Pseudo atomic calculation performed for H 1s1

 Converged in 24 iterations to a total energy of -12.4855 eV

 Calculation parallelised over 32 processes.
 Data is distributed by k-point(32-way)

 ************************************ Title ************************************
 

 ***************************** General Parameters ******************************
  
 output verbosity                               : normal  (1)
 write checkpoint data to                       : Cmca4.check
 type of calculation                            : geometry optimization
 stress calculation                             : on
 density difference calculation                 : off
 electron localisation func (ELF) calculation   : off
 Hirshfeld analysis                             : off
 unlimited duration calculation
 timing information                             : on
 memory usage estimate                          : on
 write extra output files                       : on
 write final potential to formatted file        : off
 write final density to formatted file          : off
 write structure in CELL formatted file         : on
 write BibTeX reference list                    : on
 write OTFG pseudopotential files               : on
 write electrostatic potential file             : on
 write bands file                               : on
 checkpoint writing                             : both castep_bin and check files
  
 output         length unit                     : A
 output           mass unit                     : amu
 output           time unit                     : ps
 output         charge unit                     : e
 output           spin unit                     : hbar/2
 output         energy unit                     : eV
 output          force unit                     : eV/A
 output       velocity unit                     : A/ps
 output       pressure unit                     : GPa
 output     inv_length unit                     : 1/A
 output      frequency unit                     : cm-1
 output force constant unit                     : eV/A**2
 output         volume unit                     : A**3
 output   IR intensity unit                     : (D/A)**2/amu
 output         dipole unit                     : D
 output         efield unit                     : eV/A/e
 output        entropy unit                     : J/mol/K
  
 wavefunctions paging                           : none
 random number generator seed                   : randomised (110830801)
 data distribution                              : optimal for this architecture
 optimization strategy                          : maximize speed(+++)

 *********************** Exchange-Correlation Parameters ***********************
  
 using functional                               : Perdew Burke Ernzerhof
 relativistic treatment                         : Koelling-Harmon
 DFT+D: Semi-empirical dispersion correction    : off

 ************************* Pseudopotential Parameters **************************
  
 pseudopotential representation                 : reciprocal space
 <beta|phi> representation                      : reciprocal space
 spin-orbit coupling                            : off

 **************************** Basis Set Parameters *****************************
  
 plane wave basis set cut-off                   :  1600.0000   eV
 size of standard grid                          :     2.0000
 size of   fine   gmax                          :    40.9853   1/A
 finite basis set correction                    : automatic
 number of sample energies                      :          3
           sample  spacing                      :     5.0000   eV

 **************************** Electronic Parameters ****************************
  
 number of  electrons                           :  8.000    
 net charge of system                           :  0.000    
 treating system as non-spin-polarized
 number of bands                                :          4

 ********************* Electronic Minimization Parameters **********************
  
 Method: Treating system as non-metallic,
         and number of  SD  steps               :          1
         and number of  CG  steps               :          4
  
 total energy / atom convergence tol.           : 0.1000E-10   eV
 eigen-energy convergence tolerance             : 0.2000E-10   eV
 max force / atom convergence tol.              : ignored
 convergence tolerance window                   :          3   cycles
 max. number of SCF cycles                      :        100
 periodic dipole correction                     : NONE

 ************************** Density Mixing Parameters **************************
  
 density-mixing scheme                          : Broyden
 max. length of mixing history                  :         20
 charge density mixing amplitude                : 0.8000    
 cut-off energy for mixing                      :  1600.       eV

 *********************** Population Analysis Parameters ************************
  
 Population analysis with cutoff                :  3.000       A
 Population analysis output                     : summary and pdos components

 ********************** Geometry Optimization Parameters ***********************
  
 optimization method                            : LBFGS
 max. no. of LBFGS updates                      : unbounded
 variable cell method                           : fixed basis quality
 max. number of steps                           :        200
 estimated bulk modulus                         :  500.0       GPa
 estimated <frequency>                          :  1668.       cm-1
 geom line minimiser                            : on
 with line minimiser tolerance                  :     0.4000
 total energy convergence tolerance             : 0.1000E-08   eV/atom
        max ionic |force| tolerance             : 0.1000E-04   eV/A
 max ionic |displacement| tolerance             : 0.1000E-04   A
   max |stress component| tolerance             : 0.1000E-04   GPa
 convergence tolerance window                   :          2   steps
 backup results every                           :      14400   seconds
 write geom trajectory file                     : on

 *******************************************************************************
  

                           -------------------------------
                                      Unit Cell
                           -------------------------------
        Real Lattice(A)                      Reciprocal Lattice(1/A)
     1.7029091     0.0000000     0.0000000        3.689677446  -0.000000000   0.000000000
     0.0000000     2.8728309     0.0000000       -0.000000000   2.187105830   0.000000000
     0.0000000     0.0000000     2.6458828        0.000000000   0.000000000   2.374702818

                       Lattice parameters(A)       Cell Angles
                    a =      1.702909          alpha =   90.000000
                    b =      2.872831          beta  =   90.000000
                    c =      2.645883          gamma =   90.000000

                       Current cell volume =            12.944108       A**3
                                   density =             0.622949   AMU/A**3
                                           =             1.034431     g/cm^3

                           -------------------------------
                                     Cell Contents
                           -------------------------------
                         Total number of ions in cell =    8
                      Total number of species in cell =    1
                        Max number of any one species =    8

            xxxxxxxxxxxxxxxxxxxxxxxxxxxxxxxxxxxxxxxxxxxxxxxxxxxxxxxxxxxx
            x  Element    Atom        Fractional coordinates of atoms  x
            x            Number           u          v          w      x
            x----------------------------------------------------------x
            x  H            1        -0.000000   0.376267   0.443894   x 
            x  H            2        -0.000000   0.123733   0.943894   x 
            x  H            3         0.000000   0.876267   0.056106   x 
            x  H            4         0.000000   0.623733   0.556106   x 
            x  H            5         0.500000   0.876267   0.443894   x 
            x  H            6         0.500000   0.623733   0.943894   x 
            x  H            7         0.500000   0.376267   0.056106   x 
            x  H            8         0.500000   0.123733   0.556106   x 
            xxxxxxxxxxxxxxxxxxxxxxxxxxxxxxxxxxxxxxxxxxxxxxxxxxxxxxxxxxxx


                         No user defined ionic velocities

                           -------------------------------
                                   Details of Species
                           -------------------------------

                               Mass of species in AMU
                                    H    1.0079400

                          Electric Quadrupole Moment (Barn)
                                    H    0.0028600 Isotope  2

                          Files used for pseudopotentials:
                                    H 0|0.7|2|6|8|10L(qc=10)

                           -------------------------------
                              k-Points For BZ Sampling
                           -------------------------------
                       MP grid size for SCF calculation is 18 18 18
                            with an offset of   0.000  0.000  0.000
                       Number of kpoints used =           729

                           -------------------------------
                               Symmetry and Constraints
                           -------------------------------

                      Cell is a supercell containing 2 primitive cells
                      Maximum deviation from symmetry = 0.266213E-14     ANG

                      Number of symmetry operations   =          16
                      Number of ionic constraints     =           3
                      Point group of crystal =     8: D2h, mmm, 2/m 2/m 2/m
                      Space group of crystal =    64: Cmce, -C 2bc 2

             Set iprint > 1 for details on symmetry rotations/translations

                         Centre of mass is constrained
             Set iprint > 1 for details of linear ionic constraints

                         Number of cell constraints= 3
                         Cell constraints are:  1 2 3 0 0 0

                         External pressure/stress (GPa)
                        220.00000   0.00000   0.00000
                                  220.00000   0.00000
                                            220.00000
  
+---------------- MEMORY AND SCRATCH DISK ESTIMATES PER PROCESS --------------+
|                                                     Memory          Disk    |
| Baseline code, static data and system overhead      479.0 MB         0.0 MB |
| BLAS internal memory storage                          0.0 MB         0.0 MB |
| Model and support data                               21.8 MB         0.0 MB |
| Electronic energy minimisation requirements          12.8 MB         0.0 MB |
| Force calculation requirements                        4.0 MB         0.0 MB |
| Stress calculation requirements                       5.0 MB         0.0 MB |
|                                               ----------------------------- |
| Approx. total storage required per process          513.7 MB         0.0 MB |
|                                                                             |
| Requirements will fluctuate during execution and may exceed these estimates |
+-----------------------------------------------------------------------------+
Calculating finite basis set correction with  3 cut-off energies.
Calculating total energy with cut-off of 1590.000 eV.
------------------------------------------------------------------------ <-- SCF
SCF loop      Energy                           Energy gain       Timer   <-- SCF
                                               per atom          (sec)   <-- SCF
------------------------------------------------------------------------ <-- SCF
Initial   1.79600875E+002                                          4.77  <-- SCF
      1  -1.02283131E+002                    3.52355008E+001       5.80  <-- SCF
      2  -1.15802378E+002                    1.68990592E+000       6.54  <-- SCF
      3  -1.15684403E+002                   -1.47469159E-002       7.67  <-- SCF
      4  -1.15680337E+002                   -5.08297202E-004       8.80  <-- SCF
      5  -1.15680467E+002                    1.63538999E-005       9.92  <-- SCF
      6  -1.15680478E+002                    1.32518728E-006      11.03  <-- SCF
      7  -1.15680478E+002                    5.43596060E-009      12.15  <-- SCF
      8  -1.15680478E+002                    1.24307997E-010      13.03  <-- SCF
      9  -1.15680478E+002                    3.87301268E-012      13.92  <-- SCF
     10  -1.15680478E+002                   -4.22949902E-014      14.73  <-- SCF
------------------------------------------------------------------------ <-- SCF
 
Final energy =  -115.6804780874     eV
(energy not corrected for finite basis set)
 
Calculating total energy with cut-off of 1595.000 eV.
------------------------------------------------------------------------ <-- SCF
SCF loop      Energy                           Energy gain       Timer   <-- SCF
                                               per atom          (sec)   <-- SCF
------------------------------------------------------------------------ <-- SCF
Initial  -1.15680478E+002                                         15.31  <-- SCF
      1  -1.15680501E+002                    2.85384441E-006      16.19  <-- SCF
      2  -1.15680501E+002                    2.07849666E-012      17.00  <-- SCF
      3  -1.15680501E+002                    5.93876042E-010      17.80  <-- SCF
      4  -1.15680501E+002                    3.38420343E-011      18.63  <-- SCF
      5  -1.15680501E+002                    3.98781336E-013      19.46  <-- SCF
      6  -1.15680501E+002                    6.64635561E-014      20.27  <-- SCF
------------------------------------------------------------------------ <-- SCF
 
Final energy =  -115.6805009232     eV
(energy not corrected for finite basis set)
 
Calculating total energy with cut-off of 1600.000 eV.
------------------------------------------------------------------------ <-- SCF
SCF loop      Energy                           Energy gain       Timer   <-- SCF
                                               per atom          (sec)   <-- SCF
------------------------------------------------------------------------ <-- SCF
Initial  -1.15680501E+002                                         20.82  <-- SCF
      1  -1.15680522E+002                    2.67160338E-006      21.67  <-- SCF
      2  -1.15680522E+002                    2.52863620E-012      22.49  <-- SCF
      3  -1.15680522E+002                    5.38665974E-010      23.41  <-- SCF
      4  -1.15680522E+002                    3.04040558E-011      24.27  <-- SCF
      5  -1.15680522E+002                    1.05435368E-012      25.08  <-- SCF
      6  -1.15680522E+002                   -2.29601375E-013      25.89  <-- SCF
------------------------------------------------------------------------ <-- SCF
 
Final energy =  -115.6805223006     eV
(energy not corrected for finite basis set)
 
 For future reference: finite basis dEtot/dlog(Ecut) =      -0.007048eV
 Total energy corrected for finite basis set =    -115.680522 eV
 
+---------------- MEMORY AND SCRATCH DISK ESTIMATES PER PROCESS --------------+
|                                                     Memory          Disk    |
| Model and support data                               31.3 MB         0.0 MB |
| Electronic energy minimisation requirements          12.8 MB         0.0 MB |
| Geometry minimisation requirements                   17.2 MB         0.0 MB |
|                                               ----------------------------- |
| Approx. total storage required per process           61.2 MB         0.0 MB |
|                                                                             |
| Requirements will fluctuate during execution and may exceed these estimates |
+-----------------------------------------------------------------------------+
 

 ******************************** Symmetrised Forces ********************************
 *                                                                                  *
 *                           Cartesian components (eV/A)                            *
 * -------------------------------------------------------------------------------- *
 *                         x                    y                    z              *
 *                                                                                  *
 * H               1      0.00000             -0.00000             -0.00000         *
 * H               2      0.00000              0.00000             -0.00000         *
 * H               3     -0.00000             -0.00000              0.00000         *
 * H               4     -0.00000              0.00000              0.00000         *
 * H               5      0.00000             -0.00000             -0.00000         *
 * H               6      0.00000              0.00000             -0.00000         *
 * H               7     -0.00000             -0.00000              0.00000         *
 * H               8     -0.00000              0.00000              0.00000         *
 *                                                                                  *
 ************************************************************************************

 *********** Symmetrised Stress Tensor ***********
 *                                               *
 *          Cartesian components (GPa)           *
 * --------------------------------------------- *
 *             x             y             z     *
 *                                               *
 *  x   -230.000237      0.000000      0.000000  *
 *  y      0.000000   -230.000259      0.000000  *
 *  z      0.000000      0.000000   -230.000225  *
 *                                               *
 *  Pressure:  230.0002                          *
 *                                               *
 *************************************************
 LBFGS: finished iteration     0 with enthalpy= -9.79065528E+001 eV
  
 +-----------+-----------------+-----------------+------------+-----+ <-- LBFGS
 | Parameter |      value      |    tolerance    |    units   | OK? | <-- LBFGS
 +-----------+-----------------+-----------------+------------+-----+ <-- LBFGS
 |  dE/ion   |   0.000000E+000 |   1.000000E-009 |         eV | No  | <-- LBFGS
 |  |F|max   |   1.808085E-007 |   1.000000E-005 |       eV/A | Yes | <-- LBFGS
 |  |dR|max  |   0.000000E+000 |   1.000000E-005 |          A | No  | <-- LBFGS
 |   Smax    |   1.000026E+001 |   1.000000E-005 |        GPa | No  | <-- LBFGS
 +-----------+-----------------+-----------------+------------+-----+ <-- LBFGS
  

================================================================================
 Starting LBFGS iteration          1 ...
================================================================================
  
 +------------+-------------+-------------+-----------------+ <-- min LBFGS
 |    Step    |   lambda    |   F.delta'  |    enthalpy     | <-- min LBFGS
 +------------+-------------+-------------+-----------------+ <-- min LBFGS
 |  previous  |    0.000000 |    0.051426 |      -97.906553 | <-- min LBFGS
 +------------+-------------+-------------+-----------------+ <-- min LBFGS
  

--------------------------------------------------------------------------------
 LBFGS: starting iteration         1 with trial guess (lambda=  1.000000)
--------------------------------------------------------------------------------
 
+---------------- MEMORY AND SCRATCH DISK ESTIMATES PER PROCESS --------------+
|                                                     Memory          Disk    |
| Model and support data                               31.5 MB         0.0 MB |
| Electronic energy minimisation requirements          13.0 MB         0.0 MB |
| Geometry minimisation requirements                   17.4 MB         0.0 MB |
|                                               ----------------------------- |
| Approx. total storage required per process           61.9 MB         0.0 MB |
|                                                                             |
| Requirements will fluctuate during execution and may exceed these estimates |
+-----------------------------------------------------------------------------+
 

                           -------------------------------
                                      Unit Cell
                           -------------------------------
        Real Lattice(A)              Reciprocal Lattice(1/A)
     1.7142621     0.0000000     0.0000000        3.665241919  -0.000000000   0.000000000
     0.0000000     2.8919836     0.0000000       -0.000000000   2.172621312   0.000000000
     0.0000000     0.0000000     2.6635224        0.000000000   0.000000000   2.358975958

                       Lattice parameters(A)       Cell Angles
                    a =      1.714262          alpha =   90.000000
                    b =      2.891984          beta  =   90.000000
                    c =      2.663522          gamma =   90.000000

                Current cell volume =            13.204726 A**3

                           -------------------------------
                                     Cell Contents
                           -------------------------------

            xxxxxxxxxxxxxxxxxxxxxxxxxxxxxxxxxxxxxxxxxxxxxxxxxxxxxxxxxxxxxxxxx
            x  Element         Atom        Fractional coordinates of atoms  x
            x                 Number           u          v          w      x
            x---------------------------------------------------------------x
            x  H                 1         0.000000   0.376267   0.443894   x
            x  H                 2         0.000000   0.123733   0.943894   x
            x  H                 3         0.000000   0.876267   0.056106   x
            x  H                 4         0.000000   0.623733   0.556106   x
            x  H                 5         0.500000   0.876267   0.443894   x
            x  H                 6         0.500000   0.623733   0.943894   x
            x  H                 7         0.500000   0.376267   0.056106   x
            x  H                 8         0.500000   0.123733   0.556106   x
            xxxxxxxxxxxxxxxxxxxxxxxxxxxxxxxxxxxxxxxxxxxxxxxxxxxxxxxxxxxxxxxxx


------------------------------------------------------------------------ <-- SCF
SCF loop      Energy                           Energy gain       Timer   <-- SCF
                                               per atom          (sec)   <-- SCF
------------------------------------------------------------------------ <-- SCF
Initial  -1.16042003E+002                                         27.00  <-- SCF
      1  -1.16044333E+002                    2.91191275E-004      27.95  <-- SCF
      2  -1.16044345E+002                    1.56676381E-006      29.09  <-- SCF
      3  -1.16044340E+002                   -6.47337505E-007      30.20  <-- SCF
      4  -1.16044340E+002                    5.20193668E-008      31.32  <-- SCF
      5  -1.16044340E+002                    3.04455351E-009      32.42  <-- SCF
      6  -1.16044340E+002                    2.81974658E-010      33.47  <-- SCF
      7  -1.16044340E+002                    5.89108792E-013      34.28  <-- SCF
      8  -1.16044340E+002                    6.04214146E-015      35.09  <-- SCF
------------------------------------------------------------------------ <-- SCF
 
Final energy =  -116.0443404251     eV
(energy not corrected for finite basis set)
 

 ******************************** Symmetrised Forces ********************************
 *                                                                                  *
 *                           Cartesian components (eV/A)                            *
 * -------------------------------------------------------------------------------- *
 *                         x                    y                    z              *
 *                                                                                  *
 * H               1      0.00000              0.08862              0.04260         *
 * H               2      0.00000             -0.08862              0.04260         *
 * H               3      0.00000              0.08862             -0.04260         *
 * H               4      0.00000             -0.08862             -0.04260         *
 * H               5      0.00000              0.08862              0.04260         *
 * H               6      0.00000             -0.08862              0.04260         *
 * H               7      0.00000              0.08862             -0.04260         *
 * H               8      0.00000             -0.08862             -0.04260         *
 *                                                                                  *
 ************************************************************************************

 *********** Symmetrised Stress Tensor ***********
 *                                               *
 *          Cartesian components (GPa)           *
 * --------------------------------------------- *
 *             x             y             z     *
 *                                               *
 *  x   -218.630641      0.000000      0.000000  *
 *  y      0.000000   -215.177928      0.000000  *
 *  z      0.000000      0.000000   -218.582734  *
 *                                               *
 *  Pressure:  217.4638                          *
 *                                               *
 *************************************************
  
 +------------+-------------+-------------+-----------------+ <-- min LBFGS
 |    Step    |   lambda    |   F.delta'  |    enthalpy     | <-- min LBFGS
 +------------+-------------+-------------+-----------------+ <-- min LBFGS
 |  previous  |    0.000000 |    0.051426 |      -97.906553 | <-- min LBFGS
 | trial step |    1.000000 |   -0.013217 |      -97.912508 | <-- min LBFGS
 +------------+-------------+-------------+-----------------+ <-- min LBFGS
  
 LBFGS: finished iteration     1 with enthalpy= -9.79125080E+001 eV
  
 +-----------+-----------------+-----------------+------------+-----+ <-- LBFGS
 | Parameter |      value      |    tolerance    |    units   | OK? | <-- LBFGS
 +-----------+-----------------+-----------------+------------+-----+ <-- LBFGS
 |  dE/ion   |   7.443998E-004 |   1.000000E-009 |         eV | No  | <-- LBFGS
 |  |F|max   |   9.832831E-002 |   1.000000E-005 |       eV/A | No  | <-- LBFGS
 |  |dR|max  |   1.765353E-008 |   1.000000E-005 |          A | Yes | <-- LBFGS
 |   Smax    |   4.822072E+000 |   1.000000E-005 |        GPa | No  | <-- LBFGS
 +-----------+-----------------+-----------------+------------+-----+ <-- LBFGS
  

================================================================================
 Starting LBFGS iteration          2 ...
================================================================================
  
 +------------+-------------+-------------+-----------------+ <-- min LBFGS
 |    Step    |   lambda    |   F.delta'  |    enthalpy     | <-- min LBFGS
 +------------+-------------+-------------+-----------------+ <-- min LBFGS
 |  previous  |    0.000000 |    0.027626 |      -97.912508 | <-- min LBFGS
 +------------+-------------+-------------+-----------------+ <-- min LBFGS
  

--------------------------------------------------------------------------------
 LBFGS: starting iteration         2 with trial guess (lambda=  1.000000)
--------------------------------------------------------------------------------
 
+---------------- MEMORY AND SCRATCH DISK ESTIMATES PER PROCESS --------------+
|                                                     Memory          Disk    |
| Model and support data                               31.5 MB         0.0 MB |
| Electronic energy minimisation requirements          13.1 MB         0.0 MB |
| Geometry minimisation requirements                   17.5 MB         0.0 MB |
|                                               ----------------------------- |
| Approx. total storage required per process           62.0 MB         0.0 MB |
|                                                                             |
| Requirements will fluctuate during execution and may exceed these estimates |
+-----------------------------------------------------------------------------+
 

                           -------------------------------
                                      Unit Cell
                           -------------------------------
        Real Lattice(A)              Reciprocal Lattice(1/A)
     1.7165820     0.0000000     0.0000000        3.660288524  -0.000000000   0.000000000
     0.0000000     2.8905663     0.0000000       -0.000000000   2.173686637   0.000000000
     0.0000000     0.0000000     2.6670588        0.000000000   0.000000000   2.355848099

                       Lattice parameters(A)       Cell Angles
                    a =      1.716582          alpha =   90.000000
                    b =      2.890566          beta  =   90.000000
                    c =      2.667059          gamma =   90.000000

                Current cell volume =            13.233663 A**3

                           -------------------------------
                                     Cell Contents
                           -------------------------------

            xxxxxxxxxxxxxxxxxxxxxxxxxxxxxxxxxxxxxxxxxxxxxxxxxxxxxxxxxxxxxxxxx
            x  Element         Atom        Fractional coordinates of atoms  x
            x                 Number           u          v          w      x
            x---------------------------------------------------------------x
            x  H                 1         0.000000   0.378663   0.445144   x
            x  H                 2        -0.000000   0.121337   0.945144   x
            x  H                 3         0.000000   0.878663   0.054856   x
            x  H                 4         0.000000   0.621337   0.554856   x
            x  H                 5         0.500000   0.878663   0.445144   x
            x  H                 6         0.500000   0.621337   0.945144   x
            x  H                 7         0.500000   0.378663   0.054856   x
            x  H                 8         0.500000   0.121337   0.554856   x
            xxxxxxxxxxxxxxxxxxxxxxxxxxxxxxxxxxxxxxxxxxxxxxxxxxxxxxxxxxxxxxxxx


------------------------------------------------------------------------ <-- SCF
SCF loop      Energy                           Energy gain       Timer   <-- SCF
                                               per atom          (sec)   <-- SCF
------------------------------------------------------------------------ <-- SCF
Initial  -1.16034916E+002                                         36.19  <-- SCF
      1  -1.16083666E+002                    6.09383171E-003      37.06  <-- SCF
      2  -1.16083834E+002                    2.09452361E-005      38.18  <-- SCF
      3  -1.16081363E+002                   -3.08848941E-004      39.32  <-- SCF
      4  -1.16081238E+002                   -1.56588545E-005      40.45  <-- SCF
      5  -1.16081238E+002                    2.85632510E-008      41.56  <-- SCF
      6  -1.16081238E+002                    1.81859093E-009      42.68  <-- SCF
      7  -1.16081238E+002                    6.57384991E-012      43.52  <-- SCF
      8  -1.16081238E+002                    6.22340570E-013      44.36  <-- SCF
------------------------------------------------------------------------ <-- SCF
 
Final energy =  -116.0812380058     eV
(energy not corrected for finite basis set)
 

 ******************************** Symmetrised Forces ********************************
 *                                                                                  *
 *                           Cartesian components (eV/A)                            *
 * -------------------------------------------------------------------------------- *
 *                         x                    y                    z              *
 *                                                                                  *
 * H               1      0.00000             -0.17523             -0.07510         *
 * H               2      0.00000              0.17523             -0.07510         *
 * H               3     -0.00000             -0.17523              0.07510         *
 * H               4     -0.00000              0.17523              0.07510         *
 * H               5      0.00000             -0.17523             -0.07510         *
 * H               6      0.00000              0.17523             -0.07510         *
 * H               7     -0.00000             -0.17523              0.07510         *
 * H               8     -0.00000              0.17523              0.07510         *
 *                                                                                  *
 ************************************************************************************

 *********** Symmetrised Stress Tensor ***********
 *                                               *
 *          Cartesian components (GPa)           *
 * --------------------------------------------- *
 *             x             y             z     *
 *                                               *
 *  x   -218.391219      0.000000      0.000000  *
 *  y      0.000000   -223.043296      0.000000  *
 *  z      0.000000      0.000000   -219.038244  *
 *                                               *
 *  Pressure:  220.1576                          *
 *                                               *
 *************************************************
  
 +------------+-------------+-------------+-----------------+ <-- min LBFGS
 |    Step    |   lambda    |   F.delta'  |    enthalpy     | <-- min LBFGS
 +------------+-------------+-------------+-----------------+ <-- min LBFGS
 |  previous  |    0.000000 |    0.027626 |      -97.912508 | <-- min LBFGS
 | trial step |    1.000000 |   -0.056423 |      -97.909672 | <-- min LBFGS
 +------------+-------------+-------------+-----------------+ <-- min LBFGS
  

--------------------------------------------------------------------------------
 LBFGS: improving iteration         2 with line minimization (lambda=  0.328694)
--------------------------------------------------------------------------------

                           -------------------------------
                                      Unit Cell
                           -------------------------------
        Real Lattice(A)              Reciprocal Lattice(1/A)
     1.7150246     0.0000000     0.0000000        3.663612292  -0.000000000   0.000000000
     0.0000000     2.8915178     0.0000000       -0.000000000   2.172971362   0.000000000
     0.0000000     0.0000000     2.6646848        0.000000000   0.000000000   2.357946935

                       Lattice parameters(A)       Cell Angles
                    a =      1.715025          alpha =   90.000000
                    b =      2.891518          beta  =   90.000000
                    c =      2.664685          gamma =   90.000000

                Current cell volume =            13.214236 A**3

                           -------------------------------
                                     Cell Contents
                           -------------------------------

            xxxxxxxxxxxxxxxxxxxxxxxxxxxxxxxxxxxxxxxxxxxxxxxxxxxxxxxxxxxxxxxxx
            x  Element         Atom        Fractional coordinates of atoms  x
            x                 Number           u          v          w      x
            x---------------------------------------------------------------x
            x  H                 1         0.000000   0.377054   0.444305   x
            x  H                 2        -0.000000   0.122946   0.944305   x
            x  H                 3         0.000000   0.877054   0.055695   x
            x  H                 4         0.000000   0.622946   0.555695   x
            x  H                 5         0.500000   0.877054   0.444305   x
            x  H                 6         0.500000   0.622946   0.944305   x
            x  H                 7         0.500000   0.377054   0.055695   x
            x  H                 8         0.500000   0.122946   0.555695   x
            xxxxxxxxxxxxxxxxxxxxxxxxxxxxxxxxxxxxxxxxxxxxxxxxxxxxxxxxxxxxxxxxx


------------------------------------------------------------------------ <-- SCF
SCF loop      Energy                           Energy gain       Timer   <-- SCF
                                               per atom          (sec)   <-- SCF
------------------------------------------------------------------------ <-- SCF
Initial  -1.16037430E+002                                         45.41  <-- SCF
      1  -1.16059543E+002                    2.76420432E-003      46.28  <-- SCF
      2  -1.16059625E+002                    1.02377535E-005      47.40  <-- SCF
      3  -1.16058496E+002                   -1.41181500E-004      48.52  <-- SCF
      4  -1.16058439E+002                   -7.08610366E-006      49.66  <-- SCF
      5  -1.16058439E+002                    1.19829441E-008      50.77  <-- SCF
      6  -1.16058439E+002                    7.42851082E-010      51.93  <-- SCF
      7  -1.16058439E+002                    2.21746592E-012      52.74  <-- SCF
      8  -1.16058439E+002                   -8.15689097E-014      53.55  <-- SCF
------------------------------------------------------------------------ <-- SCF
 
Final energy =  -116.0584391145     eV
(energy not corrected for finite basis set)
 

 ******************************** Symmetrised Forces ********************************
 *                                                                                  *
 *                           Cartesian components (eV/A)                            *
 * -------------------------------------------------------------------------------- *
 *                         x                    y                    z              *
 *                                                                                  *
 * H               1     -0.00000              0.00686              0.00600         *
 * H               2      0.00000             -0.00686              0.00600         *
 * H               3      0.00000              0.00686             -0.00600         *
 * H               4      0.00000             -0.00686             -0.00600         *
 * H               5     -0.00000              0.00686              0.00600         *
 * H               6      0.00000             -0.00686              0.00600         *
 * H               7      0.00000              0.00686             -0.00600         *
 * H               8      0.00000             -0.00686             -0.00600         *
 *                                                                                  *
 ************************************************************************************

 *********** Symmetrised Stress Tensor ***********
 *                                               *
 *          Cartesian components (GPa)           *
 * --------------------------------------------- *
 *             x             y             z     *
 *                                               *
 *  x   -218.599633      0.000000      0.000000  *
 *  y      0.000000   -217.601914      0.000000  *
 *  z      0.000000      0.000000   -218.735644  *
 *                                               *
 *  Pressure:  218.3124                          *
 *                                               *
 *************************************************
  
 +------------+-------------+-------------+-----------------+ <-- min LBFGS
 |    Step    |   lambda    |   F.delta'  |    enthalpy     | <-- min LBFGS
 +------------+-------------+-------------+-----------------+ <-- min LBFGS
 |  previous  |    0.000000 |    0.027626 |      -97.912508 | <-- min LBFGS
 | trial step |    1.000000 |   -0.056423 |      -97.909672 | <-- min LBFGS
 |  line step |    0.328694 |    0.001595 |      -97.913548 | <-- min LBFGS
 +------------+-------------+-------------+-----------------+ <-- min LBFGS
  
 LBFGS: finished iteration     2 with enthalpy= -9.79135484E+001 eV
  
 +-----------+-----------------+-----------------+------------+-----+ <-- LBFGS
 | Parameter |      value      |    tolerance    |    units   | OK? | <-- LBFGS
 +-----------+-----------------+-----------------+------------+-----+ <-- LBFGS
 |  dE/ion   |   1.300440E-004 |   1.000000E-009 |         eV | No  | <-- LBFGS
 |  |F|max   |   9.117945E-003 |   1.000000E-005 |       eV/A | No  | <-- LBFGS
 |  |dR|max  |   2.527013E-003 |   1.000000E-005 |          A | No  | <-- LBFGS
 |   Smax    |   2.398086E+000 |   1.000000E-005 |        GPa | No  | <-- LBFGS
 +-----------+-----------------+-----------------+------------+-----+ <-- LBFGS
  

================================================================================
 Starting LBFGS iteration          3 ...
================================================================================
  
 +------------+-------------+-------------+-----------------+ <-- min LBFGS
 |    Step    |   lambda    |   F.delta'  |    enthalpy     | <-- min LBFGS
 +------------+-------------+-------------+-----------------+ <-- min LBFGS
 |  previous  |    0.000000 |    0.008803 |      -97.913548 | <-- min LBFGS
 +------------+-------------+-------------+-----------------+ <-- min LBFGS
  

--------------------------------------------------------------------------------
 LBFGS: starting iteration         3 with trial guess (lambda=  1.000000)
--------------------------------------------------------------------------------

                           -------------------------------
                                      Unit Cell
                           -------------------------------
        Real Lattice(A)              Reciprocal Lattice(1/A)
     1.7134530     0.0000000     0.0000000        3.666972650  -0.000000000   0.000000000
     0.0000000     2.8875988     0.0000000       -0.000000000   2.175920450   0.000000000
     0.0000000     0.0000000     2.6625111        0.000000000   0.000000000   2.359872000

                       Lattice parameters(A)       Cell Angles
                    a =      1.713453          alpha =   90.000000
                    b =      2.887599          beta  =   90.000000
                    c =      2.662511          gamma =   90.000000

                Current cell volume =            13.173479 A**3

                           -------------------------------
                                     Cell Contents
                           -------------------------------

            xxxxxxxxxxxxxxxxxxxxxxxxxxxxxxxxxxxxxxxxxxxxxxxxxxxxxxxxxxxxxxxxx
            x  Element         Atom        Fractional coordinates of atoms  x
            x                 Number           u          v          w      x
            x---------------------------------------------------------------x
            x  H                 1         0.000000   0.376946   0.444355   x
            x  H                 2        -0.000000   0.123054   0.944355   x
            x  H                 3         0.000000   0.876946   0.055645   x
            x  H                 4        -0.000000   0.623054   0.555645   x
            x  H                 5         0.500000   0.876946   0.444355   x
            x  H                 6         0.500000   0.623054   0.944355   x
            x  H                 7         0.500000   0.376946   0.055645   x
            x  H                 8         0.500000   0.123054   0.555645   x
            xxxxxxxxxxxxxxxxxxxxxxxxxxxxxxxxxxxxxxxxxxxxxxxxxxxxxxxxxxxxxxxxx


------------------------------------------------------------------------ <-- SCF
SCF loop      Energy                           Energy gain       Timer   <-- SCF
                                               per atom          (sec)   <-- SCF
------------------------------------------------------------------------ <-- SCF
Initial  -1.16002542E+002                                         54.63  <-- SCF
      1  -1.16002688E+002                    1.81782816E-005      55.50  <-- SCF
      2  -1.16002688E+002                    7.76203431E-008      56.63  <-- SCF
      3  -1.16002684E+002                   -4.91662757E-007      57.74  <-- SCF
      4  -1.16002684E+002                   -2.23370931E-008      58.88  <-- SCF
      5  -1.16002684E+002                    1.43682124E-010      59.78  <-- SCF
      6  -1.16002684E+002                    1.26915181E-011      60.59  <-- SCF
      7  -1.16002684E+002                    3.41380992E-013      61.40  <-- SCF
      8  -1.16002684E+002                   -2.59812083E-013      62.21  <-- SCF
------------------------------------------------------------------------ <-- SCF
 
Final energy =  -116.0026840628     eV
(energy not corrected for finite basis set)
 

 ******************************** Symmetrised Forces ********************************
 *                                                                                  *
 *                           Cartesian components (eV/A)                            *
 * -------------------------------------------------------------------------------- *
 *                         x                    y                    z              *
 *                                                                                  *
 * H               1      0.00000             -0.00178              0.00130         *
 * H               2      0.00000              0.00178              0.00130         *
 * H               3      0.00000             -0.00178             -0.00130         *
 * H               4      0.00000              0.00178             -0.00130         *
 * H               5      0.00000             -0.00178              0.00130         *
 * H               6      0.00000              0.00178              0.00130         *
 * H               7      0.00000             -0.00178             -0.00130         *
 * H               8      0.00000              0.00178             -0.00130         *
 *                                                                                  *
 ************************************************************************************

 *********** Symmetrised Stress Tensor ***********
 *                                               *
 *          Cartesian components (GPa)           *
 * --------------------------------------------- *
 *             x             y             z     *
 *                                               *
 *  x   -220.251290      0.000000      0.000000  *
 *  y      0.000000   -219.987512      0.000000  *
 *  z      0.000000      0.000000   -220.260529  *
 *                                               *
 *  Pressure:  220.1664                          *
 *                                               *
 *************************************************
  
 +------------+-------------+-------------+-----------------+ <-- min LBFGS
 |    Step    |   lambda    |   F.delta'  |    enthalpy     | <-- min LBFGS
 +------------+-------------+-------------+-----------------+ <-- min LBFGS
 |  previous  |    0.000000 |    0.008803 |      -97.913548 | <-- min LBFGS
 | trial step |    1.000000 |   -0.000574 |      -97.913759 | <-- min LBFGS
 +------------+-------------+-------------+-----------------+ <-- min LBFGS
  
 LBFGS: finished iteration     3 with enthalpy= -9.79137591E+001 eV
  
 +-----------+-----------------+-----------------+------------+-----+ <-- LBFGS
 | Parameter |      value      |    tolerance    |    units   | OK? | <-- LBFGS
 +-----------+-----------------+-----------------+------------+-----+ <-- LBFGS
 |  dE/ion   |   2.633952E-005 |   1.000000E-009 |         eV | No  | <-- LBFGS
 |  |F|max   |   2.208971E-003 |   1.000000E-005 |       eV/A | No  | <-- LBFGS
 |  |dR|max  |   3.390700E-004 |   1.000000E-005 |          A | No  | <-- LBFGS
 |   Smax    |   2.605289E-001 |   1.000000E-005 |        GPa | No  | <-- LBFGS
 +-----------+-----------------+-----------------+------------+-----+ <-- LBFGS
  

================================================================================
 Starting LBFGS iteration          4 ...
================================================================================
  
 +------------+-------------+-------------+-----------------+ <-- min LBFGS
 |    Step    |   lambda    |   F.delta'  |    enthalpy     | <-- min LBFGS
 +------------+-------------+-------------+-----------------+ <-- min LBFGS
 |  previous  |    0.000000 |    0.001170 |      -97.913759 | <-- min LBFGS
 +------------+-------------+-------------+-----------------+ <-- min LBFGS
  

--------------------------------------------------------------------------------
 LBFGS: starting iteration         4 with trial guess (lambda=  1.000000)
--------------------------------------------------------------------------------

                           -------------------------------
                                      Unit Cell
                           -------------------------------
        Real Lattice(A)              Reciprocal Lattice(1/A)
     1.7137030     0.0000000     0.0000000        3.666437802  -0.000000000   0.000000000
     0.0000000     2.8874569     0.0000000       -0.000000000   2.176027395   0.000000000
     0.0000000     0.0000000     2.6629182        0.000000000   0.000000000   2.359511186

                       Lattice parameters(A)       Cell Angles
                    a =      1.713703          alpha =   90.000000
                    b =      2.887457          beta  =   90.000000
                    c =      2.662918          gamma =   90.000000

                Current cell volume =            13.176768 A**3

                           -------------------------------
                                     Cell Contents
                           -------------------------------

            xxxxxxxxxxxxxxxxxxxxxxxxxxxxxxxxxxxxxxxxxxxxxxxxxxxxxxxxxxxxxxxxx
            x  Element         Atom        Fractional coordinates of atoms  x
            x                 Number           u          v          w      x
            x---------------------------------------------------------------x
            x  H                 1         0.000000   0.376916   0.444416   x
            x  H                 2        -0.000000   0.123084   0.944416   x
            x  H                 3         0.000000   0.876916   0.055584   x
            x  H                 4        -0.000000   0.623084   0.555584   x
            x  H                 5         0.500000   0.876916   0.444416   x
            x  H                 6         0.500000   0.623084   0.944416   x
            x  H                 7         0.500000   0.376916   0.055584   x
            x  H                 8         0.500000   0.123084   0.555584   x
            xxxxxxxxxxxxxxxxxxxxxxxxxxxxxxxxxxxxxxxxxxxxxxxxxxxxxxxxxxxxxxxxx


------------------------------------------------------------------------ <-- SCF
SCF loop      Energy                           Energy gain       Timer   <-- SCF
                                               per atom          (sec)   <-- SCF
------------------------------------------------------------------------ <-- SCF
Initial  -1.16007187E+002                                         63.28  <-- SCF
      1  -1.16007207E+002                    2.49964790E-006      64.15  <-- SCF
      2  -1.16007207E+002                    1.21446016E-008      65.29  <-- SCF
      3  -1.16007207E+002                    1.83537932E-008      66.40  <-- SCF
      4  -1.16007207E+002                    1.17502129E-009      67.51  <-- SCF
      5  -1.16007207E+002                    1.74225149E-011      68.32  <-- SCF
      6  -1.16007207E+002                    9.75805846E-013      69.13  <-- SCF
      7  -1.16007207E+002                    1.48032466E-013      69.94  <-- SCF
------------------------------------------------------------------------ <-- SCF
 
Final energy =  -116.0072067834     eV
(energy not corrected for finite basis set)
 

 ******************************** Symmetrised Forces ********************************
 *                                                                                  *
 *                           Cartesian components (eV/A)                            *
 * -------------------------------------------------------------------------------- *
 *                         x                    y                    z              *
 *                                                                                  *
 * H               1      0.00000             -0.00112              0.00127         *
 * H               2      0.00000              0.00112              0.00127         *
 * H               3      0.00000             -0.00112             -0.00127         *
 * H               4      0.00000              0.00112             -0.00127         *
 * H               5      0.00000             -0.00112              0.00127         *
 * H               6      0.00000              0.00112              0.00127         *
 * H               7      0.00000             -0.00112             -0.00127         *
 * H               8      0.00000              0.00112             -0.00127         *
 *                                                                                  *
 ************************************************************************************

 *********** Symmetrised Stress Tensor ***********
 *                                               *
 *          Cartesian components (GPa)           *
 * --------------------------------------------- *
 *             x             y             z     *
 *                                               *
 *  x   -220.085481      0.000000      0.000000  *
 *  y      0.000000   -219.936399      0.000000  *
 *  z      0.000000      0.000000   -220.070803  *
 *                                               *
 *  Pressure:  220.0309                          *
 *                                               *
 *************************************************
  
 +------------+-------------+-------------+-----------------+ <-- min LBFGS
 |    Step    |   lambda    |   F.delta'  |    enthalpy     | <-- min LBFGS
 +------------+-------------+-------------+-----------------+ <-- min LBFGS
 |  previous  |    0.000000 |    0.001170 |      -97.913759 | <-- min LBFGS
 | trial step |    1.000000 |    0.000579 |      -97.913766 | <-- min LBFGS
 +------------+-------------+-------------+-----------------+ <-- min LBFGS
  

--------------------------------------------------------------------------------
 LBFGS: improving iteration         4 with line minimization (lambda=  1.980218)
--------------------------------------------------------------------------------

                           -------------------------------
                                      Unit Cell
                           -------------------------------
        Real Lattice(A)              Reciprocal Lattice(1/A)
     1.7139480     0.0000000     0.0000000        3.665913686  -0.000000000   0.000000000
     0.0000000     2.8873178     0.0000000       -0.000000000   2.176132235   0.000000000
     0.0000000     0.0000000     2.6633173        0.000000000   0.000000000   2.359157617

                       Lattice parameters(A)       Cell Angles
                    a =      1.713948          alpha =   90.000000
                    b =      2.887318          beta  =   90.000000
                    c =      2.663317          gamma =   90.000000

                Current cell volume =            13.179992 A**3

                           -------------------------------
                                     Cell Contents
                           -------------------------------

            xxxxxxxxxxxxxxxxxxxxxxxxxxxxxxxxxxxxxxxxxxxxxxxxxxxxxxxxxxxxxxxxx
            x  Element         Atom        Fractional coordinates of atoms  x
            x                 Number           u          v          w      x
            x---------------------------------------------------------------x
            x  H                 1         0.000000   0.376887   0.444475   x
            x  H                 2        -0.000000   0.123113   0.944475   x
            x  H                 3         0.000000   0.876887   0.055525   x
            x  H                 4        -0.000000   0.623113   0.555525   x
            x  H                 5         0.500000   0.876887   0.444475   x
            x  H                 6         0.500000   0.623113   0.944475   x
            x  H                 7         0.500000   0.376887   0.055525   x
            x  H                 8         0.500000   0.123113   0.555525   x
            xxxxxxxxxxxxxxxxxxxxxxxxxxxxxxxxxxxxxxxxxxxxxxxxxxxxxxxxxxxxxxxxx


------------------------------------------------------------------------ <-- SCF
SCF loop      Energy                           Energy gain       Timer   <-- SCF
                                               per atom          (sec)   <-- SCF
------------------------------------------------------------------------ <-- SCF
Initial  -1.16011616E+002                                         70.99  <-- SCF
      1  -1.16011636E+002                    2.41387947E-006      71.85  <-- SCF
      2  -1.16011636E+002                    1.16067846E-008      72.99  <-- SCF
      3  -1.16011636E+002                    1.76620828E-008      74.09  <-- SCF
      4  -1.16011636E+002                    1.13236377E-009      75.21  <-- SCF
      5  -1.16011636E+002                    1.61446020E-011      76.02  <-- SCF
      6  -1.16011636E+002                    1.28999720E-012      76.83  <-- SCF
      7  -1.16011636E+002                    6.04214146E-015      77.64  <-- SCF
------------------------------------------------------------------------ <-- SCF
 
Final energy =  -116.0116358964     eV
(energy not corrected for finite basis set)
 

 ******************************** Symmetrised Forces ********************************
 *                                                                                  *
 *                           Cartesian components (eV/A)                            *
 * -------------------------------------------------------------------------------- *
 *                         x                    y                    z              *
 *                                                                                  *
 * H               1      0.00000             -0.00046              0.00123         *
 * H               2      0.00000              0.00046              0.00123         *
 * H               3      0.00000             -0.00046             -0.00123         *
 * H               4      0.00000              0.00046             -0.00123         *
 * H               5      0.00000             -0.00046              0.00123         *
 * H               6      0.00000              0.00046              0.00123         *
 * H               7      0.00000             -0.00046             -0.00123         *
 * H               8      0.00000              0.00046             -0.00123         *
 *                                                                                  *
 ************************************************************************************

 *********** Symmetrised Stress Tensor ***********
 *                                               *
 *          Cartesian components (GPa)           *
 * --------------------------------------------- *
 *             x             y             z     *
 *                                               *
 *  x   -219.922810      0.000000      0.000000  *
 *  y      0.000000   -219.886786      0.000000  *
 *  z      0.000000      0.000000   -219.884791  *
 *                                               *
 *  Pressure:  219.8981                          *
 *                                               *
 *************************************************
  
 +------------+-------------+-------------+-----------------+ <-- min LBFGS
 |    Step    |   lambda    |   F.delta'  |    enthalpy     | <-- min LBFGS
 +------------+-------------+-------------+-----------------+ <-- min LBFGS
 |  previous  |    0.000000 |    0.001170 |      -97.913759 | <-- min LBFGS
 | trial step |    1.000000 |    0.000579 |      -97.913766 | <-- min LBFGS
 |  line step |    1.980218 | -6.896E-007 |      -97.913768 | <-- min LBFGS
 +------------+-------------+-------------+-----------------+ <-- min LBFGS
  
 LBFGS: finished iteration     4 with enthalpy= -9.79137679E+001 eV
  
 +-----------+-----------------+-----------------+------------+-----+ <-- LBFGS
 | Parameter |      value      |    tolerance    |    units   | OK? | <-- LBFGS
 +-----------+-----------------+-----------------+------------+-----+ <-- LBFGS
 |  dE/ion   |   1.097952E-006 |   1.000000E-009 |         eV | No  | <-- LBFGS
 |  |F|max   |   1.311360E-003 |   1.000000E-005 |       eV/A | No  | <-- LBFGS
 |  |dR|max  |   3.635902E-004 |   1.000000E-005 |          A | No  | <-- LBFGS
 |   Smax    |   1.152086E-001 |   1.000000E-005 |        GPa | No  | <-- LBFGS
 +-----------+-----------------+-----------------+------------+-----+ <-- LBFGS
  

================================================================================
 Starting LBFGS iteration          5 ...
================================================================================
  
 +------------+-------------+-------------+-----------------+ <-- min LBFGS
 |    Step    |   lambda    |   F.delta'  |    enthalpy     | <-- min LBFGS
 +------------+-------------+-------------+-----------------+ <-- min LBFGS
 |  previous  |    0.000000 |    0.000493 |      -97.913768 | <-- min LBFGS
 +------------+-------------+-------------+-----------------+ <-- min LBFGS
  

--------------------------------------------------------------------------------
 LBFGS: starting iteration         5 with trial guess (lambda=  1.000000)
--------------------------------------------------------------------------------

                           -------------------------------
                                      Unit Cell
                           -------------------------------
        Real Lattice(A)              Reciprocal Lattice(1/A)
     1.7139534     0.0000000     0.0000000        3.665902169  -0.000000000   0.000000000
     0.0000000     2.8870533     0.0000000       -0.000000000   2.176331578   0.000000000
     0.0000000     0.0000000     2.6632660        0.000000000   0.000000000   2.359203075

                       Lattice parameters(A)       Cell Angles
                    a =      1.713953          alpha =   90.000000
                    b =      2.887053          beta  =   90.000000
                    c =      2.663266          gamma =   90.000000

                Current cell volume =            13.178572 A**3

                           -------------------------------
                                     Cell Contents
                           -------------------------------

            xxxxxxxxxxxxxxxxxxxxxxxxxxxxxxxxxxxxxxxxxxxxxxxxxxxxxxxxxxxxxxxxx
            x  Element         Atom        Fractional coordinates of atoms  x
            x                 Number           u          v          w      x
            x---------------------------------------------------------------x
            x  H                 1         0.000000   0.376849   0.444540   x
            x  H                 2        -0.000000   0.123151   0.944540   x
            x  H                 3         0.000000   0.876849   0.055460   x
            x  H                 4        -0.000000   0.623151   0.555460   x
            x  H                 5         0.500000   0.876849   0.444540   x
            x  H                 6         0.500000   0.623151   0.944540   x
            x  H                 7         0.500000   0.376849   0.055460   x
            x  H                 8         0.500000   0.123151   0.555460   x
            xxxxxxxxxxxxxxxxxxxxxxxxxxxxxxxxxxxxxxxxxxxxxxxxxxxxxxxxxxxxxxxxx


------------------------------------------------------------------------ <-- SCF
SCF loop      Energy                           Energy gain       Timer   <-- SCF
                                               per atom          (sec)   <-- SCF
------------------------------------------------------------------------ <-- SCF
Initial  -1.16009670E+002                                         78.73  <-- SCF
      1  -1.16009688E+002                    2.26824351E-006      79.58  <-- SCF
      2  -1.16009688E+002                    1.03654961E-008      80.72  <-- SCF
      3  -1.16009689E+002                    9.69925634E-009      81.84  <-- SCF
      4  -1.16009689E+002                    7.00217732E-010      83.06  <-- SCF
      5  -1.16009689E+002                    1.16492487E-011      83.90  <-- SCF
      6  -1.16009689E+002                    1.15404902E-012      84.72  <-- SCF
      7  -1.16009689E+002                   -5.52855944E-013      85.53  <-- SCF
------------------------------------------------------------------------ <-- SCF
 
Final energy =  -116.0096885500     eV
(energy not corrected for finite basis set)
 

 ******************************** Symmetrised Forces ********************************
 *                                                                                  *
 *                           Cartesian components (eV/A)                            *
 * -------------------------------------------------------------------------------- *
 *                         x                    y                    z              *
 *                                                                                  *
 * H               1     -0.00000             -0.00023              0.00088         *
 * H               2      0.00000              0.00023              0.00088         *
 * H               3     -0.00000             -0.00023             -0.00088         *
 * H               4      0.00000              0.00023             -0.00088         *
 * H               5     -0.00000             -0.00023              0.00088         *
 * H               6      0.00000              0.00023              0.00088         *
 * H               7     -0.00000             -0.00023             -0.00088         *
 * H               8      0.00000              0.00023             -0.00088         *
 *                                                                                  *
 ************************************************************************************

 *********** Symmetrised Stress Tensor ***********
 *                                               *
 *          Cartesian components (GPa)           *
 * --------------------------------------------- *
 *             x             y             z     *
 *                                               *
 *  x   -219.962667      0.000000      0.000000  *
 *  y      0.000000   -219.993415      0.000000  *
 *  z      0.000000      0.000000   -219.930144  *
 *                                               *
 *  Pressure:  219.9621                          *
 *                                               *
 *************************************************
  
 +------------+-------------+-------------+-----------------+ <-- min LBFGS
 |    Step    |   lambda    |   F.delta'  |    enthalpy     | <-- min LBFGS
 +------------+-------------+-------------+-----------------+ <-- min LBFGS
 |  previous  |    0.000000 |    0.000493 |      -97.913768 | <-- min LBFGS
 | trial step |    1.000000 |    0.000247 |      -97.913770 | <-- min LBFGS
 +------------+-------------+-------------+-----------------+ <-- min LBFGS
  

--------------------------------------------------------------------------------
 LBFGS: improving iteration         5 with line minimization (lambda=  1.999337)
--------------------------------------------------------------------------------

                           -------------------------------
                                      Unit Cell
                           -------------------------------
        Real Lattice(A)              Reciprocal Lattice(1/A)
     1.7139587     0.0000000     0.0000000        3.665890659  -0.000000000   0.000000000
     0.0000000     2.8867890     0.0000000       -0.000000000   2.176530826   0.000000000
     0.0000000     0.0000000     2.6632147        0.000000000   0.000000000   2.359248504

                       Lattice parameters(A)       Cell Angles
                    a =      1.713959          alpha =   90.000000
                    b =      2.886789          beta  =   90.000000
                    c =      2.663215          gamma =   90.000000

                Current cell volume =            13.177153 A**3

                           -------------------------------
                                     Cell Contents
                           -------------------------------

            xxxxxxxxxxxxxxxxxxxxxxxxxxxxxxxxxxxxxxxxxxxxxxxxxxxxxxxxxxxxxxxxx
            x  Element         Atom        Fractional coordinates of atoms  x
            x                 Number           u          v          w      x
            x---------------------------------------------------------------x
            x  H                 1         0.000000   0.376812   0.444604   x
            x  H                 2        -0.000000   0.123188   0.944604   x
            x  H                 3         0.000000   0.876812   0.055396   x
            x  H                 4        -0.000000   0.623188   0.555396   x
            x  H                 5         0.500000   0.876812   0.444604   x
            x  H                 6         0.500000   0.623188   0.944604   x
            x  H                 7         0.500000   0.376812   0.055396   x
            x  H                 8         0.500000   0.123188   0.555396   x
            xxxxxxxxxxxxxxxxxxxxxxxxxxxxxxxxxxxxxxxxxxxxxxxxxxxxxxxxxxxxxxxxx


------------------------------------------------------------------------ <-- SCF
SCF loop      Energy                           Energy gain       Timer   <-- SCF
                                               per atom          (sec)   <-- SCF
------------------------------------------------------------------------ <-- SCF
Initial  -1.16007723E+002                                         86.58  <-- SCF
      1  -1.16007741E+002                    2.26487896E-006      87.46  <-- SCF
      2  -1.16007741E+002                    1.03491974E-008      88.62  <-- SCF
      3  -1.16007741E+002                    9.68183080E-009      89.74  <-- SCF
      4  -1.16007741E+002                    7.00752461E-010      90.87  <-- SCF
      5  -1.16007741E+002                    1.12957835E-011      91.68  <-- SCF
      6  -1.16007741E+002                    9.39552997E-013      92.49  <-- SCF
      7  -1.16007741E+002                    1.23863900E-013      93.31  <-- SCF
------------------------------------------------------------------------ <-- SCF
 
Final energy =  -116.0077411870     eV
(energy not corrected for finite basis set)
 

 ******************************** Symmetrised Forces ********************************
 *                                                                                  *
 *                           Cartesian components (eV/A)                            *
 * -------------------------------------------------------------------------------- *
 *                         x                    y                    z              *
 *                                                                                  *
 * H               1     -0.00000              0.00001              0.00053         *
 * H               2     -0.00000             -0.00001              0.00053         *
 * H               3      0.00000              0.00001             -0.00053         *
 * H               4      0.00000             -0.00001             -0.00053         *
 * H               5     -0.00000              0.00001              0.00053         *
 * H               6     -0.00000             -0.00001              0.00053         *
 * H               7      0.00000              0.00001             -0.00053         *
 * H               8      0.00000             -0.00001             -0.00053         *
 *                                                                                  *
 ************************************************************************************

 *********** Symmetrised Stress Tensor ***********
 *                                               *
 *          Cartesian components (GPa)           *
 * --------------------------------------------- *
 *             x             y             z     *
 *                                               *
 *  x   -220.002485      0.000000      0.000000  *
 *  y      0.000000   -220.100070      0.000000  *
 *  z      0.000000      0.000000   -219.975442  *
 *                                               *
 *  Pressure:  220.0260                          *
 *                                               *
 *************************************************
  
 +------------+-------------+-------------+-----------------+ <-- min LBFGS
 |    Step    |   lambda    |   F.delta'  |    enthalpy     | <-- min LBFGS
 +------------+-------------+-------------+-----------------+ <-- min LBFGS
 |  previous  |    0.000000 |    0.000493 |      -97.913768 | <-- min LBFGS
 | trial step |    1.000000 |    0.000247 |      -97.913770 | <-- min LBFGS
 |  line step |    1.999337 | -9.192E-008 |      -97.913771 | <-- min LBFGS
 +------------+-------------+-------------+-----------------+ <-- min LBFGS
  
 LBFGS: finished iteration     5 with enthalpy= -9.79137709E+001 eV
  
 +-----------+-----------------+-----------------+------------+-----+ <-- LBFGS
 | Parameter |      value      |    tolerance    |    units   | OK? | <-- LBFGS
 +-----------+-----------------+-----------------+------------+-----+ <-- LBFGS
 |  dE/ion   |   3.747494E-007 |   1.000000E-009 |         eV | No  | <-- LBFGS
 |  |F|max   |   5.307817E-004 |   1.000000E-005 |       eV/A | No  | <-- LBFGS
 |  |dR|max  |   4.060416E-004 |   1.000000E-005 |          A | No  | <-- LBFGS
 |   Smax    |   1.000701E-001 |   1.000000E-005 |        GPa | No  | <-- LBFGS
 +-----------+-----------------+-----------------+------------+-----+ <-- LBFGS
  

================================================================================
 Starting LBFGS iteration          6 ...
[...]
            x  H                 1        -0.000000   0.376791   0.444683   x
            x  H                 2        -0.000000   0.123209   0.944683   x
            x  H                 3         0.000000   0.876791   0.055317   x
            x  H                 4        -0.000000   0.623209   0.555317   x
            x  H                 5         0.500000   0.876791   0.444683   x
            x  H                 6         0.500000   0.623209   0.944683   x
            x  H                 7         0.500000   0.376791   0.055317   x
            x  H                 8         0.500000   0.123209   0.555317   x
            xxxxxxxxxxxxxxxxxxxxxxxxxxxxxxxxxxxxxxxxxxxxxxxxxxxxxxxxxxxxxxxxx


------------------------------------------------------------------------ <-- SCF
SCF loop      Energy                           Energy gain       Timer   <-- SCF
                                               per atom          (sec)   <-- SCF
------------------------------------------------------------------------ <-- SCF
Initial  -1.16008603E+002                                        119.08  <-- SCF
      1  -1.16008603E+002                    1.86859267E-010     119.94  <-- SCF
      2  -1.16008603E+002                    6.13277358E-013     120.75  <-- SCF
      3  -1.16008603E+002                   -7.35932830E-012     121.55  <-- SCF
      4  -1.16008603E+002                    1.96369597E-013     122.36  <-- SCF
------------------------------------------------------------------------ <-- SCF
 
Final energy =  -116.0086029849     eV
(energy not corrected for finite basis set)
 

 ******************************** Symmetrised Forces ********************************
 *                                                                                  *
 *                           Cartesian components (eV/A)                            *
 * -------------------------------------------------------------------------------- *
 *                         x                    y                    z              *
 *                                                                                  *
 * H               1      0.00000              0.00000              0.00000         *
 * H               2      0.00000             -0.00000              0.00000         *
 * H               3      0.00000              0.00000             -0.00000         *
 * H               4      0.00000             -0.00000             -0.00000         *
 * H               5      0.00000              0.00000              0.00000         *
 * H               6      0.00000             -0.00000              0.00000         *
 * H               7      0.00000              0.00000             -0.00000         *
 * H               8      0.00000             -0.00000             -0.00000         *
 *                                                                                  *
 ************************************************************************************

 *********** Symmetrised Stress Tensor ***********
 *                                               *
 *          Cartesian components (GPa)           *
 * --------------------------------------------- *
 *             x             y             z     *
 *                                               *
 *  x   -219.999981      0.000000      0.000000  *
 *  y      0.000000   -219.999997      0.000000  *
 *  z      0.000000      0.000000   -219.999994  *
 *                                               *
 *  Pressure:  220.0000                          *
 *                                               *
 *************************************************
  
 +------------+-------------+-------------+-----------------+ <-- min LBFGS
 |    Step    |   lambda    |   F.delta'  |    enthalpy     | <-- min LBFGS
 +------------+-------------+-------------+-----------------+ <-- min LBFGS
 |  previous  |    0.000000 |    0.000010 |      -97.913772 | <-- min LBFGS
 | trial step |    1.000000 |  1.418E-007 |      -97.913772 | <-- min LBFGS
 +------------+-------------+-------------+-----------------+ <-- min LBFGS
  
 LBFGS: finished iteration     8 with enthalpy= -9.79137717E+001 eV
  
 +-----------+-----------------+-----------------+------------+-----+ <-- LBFGS
 | Parameter |      value      |    tolerance    |    units   | OK? | <-- LBFGS
 +-----------+-----------------+-----------------+------------+-----+ <-- LBFGS
 |  dE/ion   |   4.248743E-010 |   1.000000E-009 |         eV | Yes | <-- LBFGS
 |  |F|max   |   6.751046E-007 |   1.000000E-005 |       eV/A | Yes | <-- LBFGS
 |  |dR|max  |   1.509428E-006 |   1.000000E-005 |          A | Yes | <-- LBFGS
 |   Smax    |   1.855607E-005 |   1.000000E-005 |        GPa | No  | <-- LBFGS
 +-----------+-----------------+-----------------+------------+-----+ <-- LBFGS
  

================================================================================
 Starting LBFGS iteration          9 ...
================================================================================
  
 +------------+-------------+-------------+-----------------+ <-- min LBFGS
 |    Step    |   lambda    |   F.delta'  |    enthalpy     | <-- min LBFGS
 +------------+-------------+-------------+-----------------+ <-- min LBFGS
 |  previous  |    0.000000 |  1.069E-007 |      -97.913772 | <-- min LBFGS
 +------------+-------------+-------------+-----------------+ <-- min LBFGS
  

--------------------------------------------------------------------------------
 LBFGS: starting iteration         9 with trial guess (lambda=  1.000000)
--------------------------------------------------------------------------------

                           -------------------------------
                                      Unit Cell
                           -------------------------------
        Real Lattice(A)              Reciprocal Lattice(1/A)
     1.7139308     0.0000000     0.0000000        3.665950359  -0.000000000   0.000000000
     0.0000000     2.8870795     0.0000000       -0.000000000   2.176311852   0.000000000
     0.0000000     0.0000000     2.6631168        0.000000000   0.000000000   2.359335206

                       Lattice parameters(A)       Cell Angles
                    a =      1.713931          alpha =   90.000000
                    b =      2.887079          beta  =   90.000000
                    c =      2.663117          gamma =   90.000000

                Current cell volume =            13.177780 A**3

                           -------------------------------
                                     Cell Contents
                           -------------------------------

            xxxxxxxxxxxxxxxxxxxxxxxxxxxxxxxxxxxxxxxxxxxxxxxxxxxxxxxxxxxxxxxxx
            x  Element         Atom        Fractional coordinates of atoms  x
            x                 Number           u          v          w      x
            x---------------------------------------------------------------x
            x  H                 1        -0.000000   0.376791   0.444683   x
            x  H                 2        -0.000000   0.123209   0.944683   x
            x  H                 3         0.000000   0.876791   0.055317   x
            x  H                 4        -0.000000   0.623209   0.555317   x
            x  H                 5         0.500000   0.876791   0.444683   x
            x  H                 6         0.500000   0.623209   0.944683   x
            x  H                 7         0.500000   0.376791   0.055317   x
            x  H                 8         0.500000   0.123209   0.555317   x
            xxxxxxxxxxxxxxxxxxxxxxxxxxxxxxxxxxxxxxxxxxxxxxxxxxxxxxxxxxxxxxxxx


------------------------------------------------------------------------ <-- SCF
SCF loop      Energy                           Energy gain       Timer   <-- SCF
                                               per atom          (sec)   <-- SCF
------------------------------------------------------------------------ <-- SCF
Initial  -1.16008603E+002                                        123.63  <-- SCF
      1  -1.16008603E+002                    1.90327456E-013     124.19  <-- SCF
      2  -1.16008603E+002                    9.06321219E-015     125.00  <-- SCF
      3  -1.16008603E+002                    7.25056975E-014     125.81  <-- SCF
      4  -1.16008603E+002                   -2.44706729E-013     126.62  <-- SCF
------------------------------------------------------------------------ <-- SCF
 
Final energy =  -116.0086029619     eV
(energy not corrected for finite basis set)
 

 ******************************** Symmetrised Forces ********************************
 *                                                                                  *
 *                           Cartesian components (eV/A)                            *
 * -------------------------------------------------------------------------------- *
 *                         x                    y                    z              *
 *                                                                                  *
 * H               1      0.00000             -0.00000             -0.00000         *
 * H               2      0.00000              0.00000             -0.00000         *
 * H               3      0.00000             -0.00000              0.00000         *
 * H               4      0.00000              0.00000              0.00000         *
 * H               5      0.00000             -0.00000             -0.00000         *
 * H               6      0.00000              0.00000             -0.00000         *
 * H               7      0.00000             -0.00000              0.00000         *
 * H               8      0.00000              0.00000              0.00000         *
 *                                                                                  *
 ************************************************************************************

 *********** Symmetrised Stress Tensor ***********
 *                                               *
 *          Cartesian components (GPa)           *
 * --------------------------------------------- *
 *             x             y             z     *
 *                                               *
 *  x   -219.999998      0.000000      0.000000  *
 *  y      0.000000   -220.000004      0.000000  *
 *  z      0.000000      0.000000   -220.000007  *
 *                                               *
 *  Pressure:  220.0000                          *
 *                                               *
 *************************************************
  
 +------------+-------------+-------------+-----------------+ <-- min LBFGS
 |    Step    |   lambda    |   F.delta'  |    enthalpy     | <-- min LBFGS
 +------------+-------------+-------------+-----------------+ <-- min LBFGS
 |  previous  |    0.000000 |  1.069E-007 |      -97.913772 | <-- min LBFGS
 | trial step |    1.000000 | -6.956E-008 |      -97.913772 | <-- min LBFGS
 +------------+-------------+-------------+-----------------+ <-- min LBFGS
  
 LBFGS: finished iteration     9 with enthalpy= -9.79137717E+001 eV
  
 +-----------+-----------------+-----------------+------------+-----+ <-- LBFGS
 | Parameter |      value      |    tolerance    |    units   | OK? | <-- LBFGS
 +-----------+-----------------+-----------------+------------+-----+ <-- LBFGS
 |  dE/ion   |   4.365447E-013 |   1.000000E-009 |         eV | Yes | <-- LBFGS
 |  |F|max   |   4.128873E-007 |   1.000000E-005 |       eV/A | Yes | <-- LBFGS
 |  |dR|max  |   6.236036E-008 |   1.000000E-005 |          A | Yes | <-- LBFGS
 |   Smax    |   7.419775E-006 |   1.000000E-005 |        GPa | Yes | <-- LBFGS
 +-----------+-----------------+-----------------+------------+-----+ <-- LBFGS
  
 LBFGS: Geometry optimization completed successfully.

================================================================================
 LBFGS: Final Configuration:
================================================================================

                           -------------------------------
                                      Unit Cell
                           -------------------------------
        Real Lattice(A)              Reciprocal Lattice(1/A)
     1.7139308     0.0000000     0.0000000        3.665950359  -0.000000000   0.000000000
     0.0000000     2.8870795     0.0000000       -0.000000000   2.176311852   0.000000000
     0.0000000     0.0000000     2.6631168        0.000000000   0.000000000   2.359335206

                       Lattice parameters(A)       Cell Angles
                    a =      1.713931          alpha =   90.000000
                    b =      2.887079          beta  =   90.000000
                    c =      2.663117          gamma =   90.000000

                Current cell volume =            13.177780 A**3

                           -------------------------------
                                     Cell Contents
                           -------------------------------

            xxxxxxxxxxxxxxxxxxxxxxxxxxxxxxxxxxxxxxxxxxxxxxxxxxxxxxxxxxxxxxxxx
            x  Element         Atom        Fractional coordinates of atoms  x
            x                 Number           u          v          w      x
            x---------------------------------------------------------------x
            x  H                 1        -0.000000   0.376791   0.444683   x
            x  H                 2        -0.000000   0.123209   0.944683   x
            x  H                 3         0.000000   0.876791   0.055317   x
            x  H                 4        -0.000000   0.623209   0.555317   x
            x  H                 5         0.500000   0.876791   0.444683   x
            x  H                 6         0.500000   0.623209   0.944683   x
            x  H                 7         0.500000   0.376791   0.055317   x
            x  H                 8         0.500000   0.123209   0.555317   x
            xxxxxxxxxxxxxxxxxxxxxxxxxxxxxxxxxxxxxxxxxxxxxxxxxxxxxxxxxxxxxxxxx


 LBFGS: Final Enthalpy     = -9.79137717E+001 eV
 LBFGS: Final <frequency>  =     755.26127 cm-1
 LBFGS: Final bulk modulus =     547.56112 GPa

 ******************************** Symmetrised Forces ********************************
 *                                                                                  *
 *                           Cartesian components (eV/A)                            *
 * -------------------------------------------------------------------------------- *
 *                         x                    y                    z              *
 *                                                                                  *
 * H               1      0.00000             -0.00000             -0.00000         *
 * H               2      0.00000              0.00000             -0.00000         *
 * H               3      0.00000             -0.00000              0.00000         *
 * H               4      0.00000              0.00000              0.00000         *
 * H               5      0.00000             -0.00000             -0.00000         *
 * H               6      0.00000              0.00000             -0.00000         *
 * H               7      0.00000             -0.00000              0.00000         *
 * H               8      0.00000              0.00000              0.00000         *
 *                                                                                  *
 ************************************************************************************

 *********** Symmetrised Stress Tensor ***********
 *                                               *
 *          Cartesian components (GPa)           *
 * --------------------------------------------- *
 *             x             y             z     *
 *                                               *
 *  x   -219.999998      0.000000      0.000000  *
 *  y      0.000000   -220.000004      0.000000  *
 *  z      0.000000      0.000000   -220.000007  *
 *                                               *
 *  Pressure:  220.0000                          *
 *                                               *
 *************************************************

 Pseudo atomic calculation performed for H 1s1

 Converged in 24 iterations to a total energy of -12.4855 eV

Charge spilling parameter for spin component 1 = 0.60%

            Orbital Populations       
     Ion    Atom   Orbital             Charge
  -------------------------------------------
      H     1      S                    0.997
      H     2      S                    1.003
      H     3      S                    1.003
      H     4      S                    0.997
      H     5      S                    0.997
      H     6      S                    1.003
      H     7      S                    1.003
      H     8      S                    0.997
  -------------------------------------------
                           Total:       8.000
  -------------------------------------------

     Atomic Populations (Mulliken)
     -----------------------------
Species          Ion     s      p      d      f     Total  Charge (e)
=====================================================================
  H               1     1.00   0.00   0.00   0.00   1.00     0.00
  H               2     1.00   0.00   0.00   0.00   1.00     0.00
  H               3     1.00   0.00   0.00   0.00   1.00     0.00
  H               4     1.00   0.00   0.00   0.00   1.00     0.00
  H               5     1.00   0.00   0.00   0.00   1.00     0.00
  H               6     1.00   0.00   0.00   0.00   1.00     0.00
  H               7     1.00   0.00   0.00   0.00   1.00     0.00
  H               8     1.00   0.00   0.00   0.00   1.00     0.00
=====================================================================

                 Bond                   Population      Length (A)
======================================================================
               H 6 -- H 7                    1.05        0.77002
               H 2 -- H 3                    1.05        0.77002
               H 5 -- H 8                    1.05        0.77002
               H 1 -- H 4                    1.05        0.77002
               H 3 -- H 6                    0.31        1.16498
               H 4 -- H 5                    0.31        1.16498
               H 2 -- H 7                    0.31        1.16498
               H 1 -- H 8                    0.31        1.16498
               H 3 -- H 5                   -0.08        1.34522
               H 1 -- H 7                   -0.08        1.34522
               H 4 -- H 6                   -0.08        1.34522
               H 2 -- H 8                   -0.08        1.34522
               H 5 -- H 6                   -0.24        1.51955
               H 1 -- H 2                   -0.24        1.51955
               H 3 -- H 4                   -0.24        1.51955
               H 7 -- H 8                   -0.24        1.51955
               H 3 -- H 7                   -0.70        1.67875
               H 1 -- H 5                   -0.70        1.67875
               H 4 -- H 8                   -0.70        1.67875
               H 2 -- H 6                   -0.70        1.67875
======================================================================


Writing analysis data to Cmca4.castep_bin

Writing model to Cmca4.check
 
 A BibTeX formatted list of references used in this run has been written to 
 Cmca4.bib
 
Initialisation time =      4.13 s
Calculation time    =    125.59 s
Finalisation time   =      3.58 s
Total time          =    133.31 s
Peak Memory Use     = 535972 kB
  
Overall parallel efficiency rating: Excellent (92%)                             
  
Data was distributed by:-
k-point (32-way); efficiency rating: Excellent (93%)                            
  
Parallel notes:
1) Calculation only took 130.0 s, so efficiency estimates may be inaccurate.    
