 +-------------------------------------------------+
 |                                                 |
 |      CCC   AA    SSS  TTTTT  EEEEE  PPPP        |
 |     C     A  A  S       T    E      P   P       |
 |     C     AAAA   SS     T    EEE    PPPP        |
 |     C     A  A     S    T    E      P           |
 |      CCC  A  A  SSS     T    EEEEE  P           |
 |                                                 |
 +-------------------------------------------------+
 |                                                 |
 | Welcome to Academic Release CASTEP version 18.1 |          
 | Ab Initio Total Energy Program                  |
 |                                                 |
 | Authors:                                        |
 | M. Segall, M. Probert, C. Pickard, P. Hasnip,   |
 | S. Clark, K. Refson, J. R. Yates, M. Payne      |
 |                                                 |
 | Contributors:                                   |
 | P. Lindan, P. Haynes, J. White, V. Milman,      |
 | N. Govind, M. Gibson, P. Tulip, V. Cocula,      |
 | B. Montanari, D. Quigley, M. Glover,            |
 | L. Bernasconi, A. Perlov, M. Plummer,           |
 | E. McNellis, J. Meyer, J. Gale, D. Jochym       |
 | J. Aarons, B. Walker, R. Gillen, D. Jones       |
 | T. Green, I. J. Bush, C. J. Armstrong,          |
 | E. J. Higgins, E. L. Brown, M. S. McFly,        |
 | J. Wilkins, B-C. Shih, P. J. P. Byrne           |
 |                                                 |
 | Copyright (c) 2000 - 2017                       |
 |                                                 |
 |     Distributed under the terms of an           |
 |     Agreement between the United Kingdom        |
 |     Car-Parrinello (UKCP) Consortium,           |
 |     Daresbury Laboratory and Accelrys, Inc.     |
 |                                                 |
 | Please cite                                     |
 |                                                 |
 |     "First principles methods using CASTEP"     |
 |                                                 |
 |         Zeitschrift fuer Kristallographie       |
 |           220(5-6) pp. 567-570 (2005)           |
 |                                                 |
 | S. J. Clark, M. D. Segall, C. J. Pickard,       |
 | P. J. Hasnip, M. J. Probert, K. Refson,         |
 | M. C. Payne                                     |
 |                                                 |
 |       in all publications arising from          |
 |              your use of CASTEP                 |
 |                                                 |
 +-------------------------------------------------+


 Compiled for linux_x86_64_gfortran4.8 on Thu, 19 Jul 2018 15:42:32 +0100
 from code version 70483bd0ad64+  Sun, 10 Dec 2017 12:18:29 +0000
 Compiler: GNU Fortran 4.8.5; Optimisation: fast
 MATHLIBS: Intel MKL(2018.0.0) (LAPACK version 3.7.0)
 FFT Lib : mkl
 Fundamental constants values: CODATA 2014

 Run started: Thu, 16 Jul 2020 20:13:42 +0100
 +-------------------------------------------------+
 |                                                 |
 |  D D D D    F F F F F  P P P P     T T T T T    |
 |  D       D  F          P       P       T        |
 |  D       D  F F F F    P P P P         T        |
 |  D       D  F          P               T        |
 |  D D D D    F          P               T        |
 |                                                 |
 +-------------------------------------------------+
 |                                                 |
 | Welcome to Castep Linear Response (DFPT)        |
 |                                                 |
 | Copyright (c) 2006 - 2017                       |
 |                                                 |
 | Please cite the following publications in all   |
 | work arising from your use of CASTEP LR.        |
 |                                                 |
 | K. Refson, S. J. Clark and P. R. Tulip          |
 | Variational density functional perturbation     |
 | theory for dielectrics and lattice dynamics     |
 | Phys. Rev. B 73(15), 155114 (2006)              |
 +-------------------------------------------------+


 Atomic calculation performed for H: 1s1

 Converged in 41 iterations to an ae energy of -12.488 eV

   ============================================================                
   | Pseudopotential Report - Date of generation 16-07-2020   |                
   ------------------------------------------------------------                
   | Element: H Ionic charge:  1.00 Level of theory: PBE      |                
   | Atomic Solver: Koelling-Harmon                           |                
   |                                                          |                
   |               Reference Electronic Structure             |                
   |         Orbital         Occupation         Energy        |                
   |            1s              1.000           -0.239        |                
   |                                                          |                
   |                 Pseudopotential Definition               |                
   |        Beta     l      e      Rc     scheme   norm       |                
   |         loc     0   -0.239   0.702     qc      1         |                
   |                                                          |                
   | No charge augmentation                                   |                
   | No partial core correction                               |                
   ------------------------------------------------------------                
   | "0|0.7|2|6|8|10L(qc=10)"                                 |                
   ------------------------------------------------------------                
   |      Author: Chris J. Pickard, Cambridge University      |                
   ============================================================                

 Pseudo atomic calculation performed for H 1s1

 Converged in 24 iterations to a total energy of -12.4843 eV

 Calculation parallelised over 8 processes.
 Data is distributed by G-vector(8-way)

 ************************************ Title ************************************
 

 ***************************** General Parameters ******************************
  
 output verbosity                               : normal  (1)
 write checkpoint data to                       : Pca21_30GPa.check
 type of calculation                            : phonon calculation
 stress calculation                             : on
 density difference calculation                 : off
 electron localisation func (ELF) calculation   : off
 Hirshfeld analysis                             : off
 unlimited duration calculation
 timing information                             : on
 memory usage estimate                          : on
 write extra output files                       : on
 write final potential to formatted file        : off
 write final density to formatted file          : off
 write structure in CELL formatted file         : on
 write BibTeX reference list                    : on
 write OTFG pseudopotential files               : on
 write electrostatic potential file             : on
 write bands file                               : on
 checkpoint writing                             : both castep_bin and check files
  
 output         length unit                     : A
 output           mass unit                     : amu
 output           time unit                     : ps
 output         charge unit                     : e
 output           spin unit                     : hbar/2
 output         energy unit                     : eV
 output          force unit                     : eV/A
 output       velocity unit                     : A/ps
 output       pressure unit                     : GPa
 output     inv_length unit                     : 1/A
 output      frequency unit                     : cm-1
 output force constant unit                     : eV/A**2
 output         volume unit                     : A**3
 output   IR intensity unit                     : (D/A)**2/amu
 output         dipole unit                     : D
 output         efield unit                     : eV/A/e
 output        entropy unit                     : J/mol/K
  
 wavefunctions paging                           : none
 random number generator seed                   : randomised (201342148)
 data distribution                              : optimal for this architecture
 optimization strategy                          : maximize speed(+++)

 *********************** Exchange-Correlation Parameters ***********************
  
 using functional                               : Perdew Burke Ernzerhof
 relativistic treatment                         : Koelling-Harmon
 DFT+D: Semi-empirical dispersion correction    : off

 ************************* Pseudopotential Parameters **************************
  
 pseudopotential representation                 : reciprocal space
 <beta|phi> representation                      : reciprocal space
 spin-orbit coupling                            : off

 **************************** Basis Set Parameters *****************************
  
 plane wave basis set cut-off                   :  1200.0000   eV
 size of standard grid                          :     2.0000
 size of   fine   gmax                          :    35.4943   1/A
 finite basis set correction                    : automatic
 number of sample energies                      :          3
           sample  spacing                      :     5.0000   eV

 **************************** Electronic Parameters ****************************
  
 number of  electrons                           :  8.000    
 net charge of system                           :  0.000    
 treating system as non-spin-polarized
 number of bands                                :          4

 ********************* Electronic Minimization Parameters **********************
  
 Method: Treating system as non-metallic,
         and number of  SD  steps               :          1
         and number of  CG  steps               :          4
  
 total energy / atom convergence tol.           : 0.1000E-10   eV
 eigen-energy convergence tolerance             : 0.2000E-10   eV
 max force / atom convergence tol.              : ignored
 convergence tolerance window                   :          3   cycles
 max. number of SCF cycles                      :        100
 periodic dipole correction                     : NONE

 ************************** Density Mixing Parameters **************************
  
 density-mixing scheme                          : Broyden
 max. length of mixing history                  :         20
 charge density mixing amplitude                : 0.8000    
 cut-off energy for mixing                      :  1200.       eV

 *********************** Population Analysis Parameters ************************
  
 Population analysis with cutoff                :  3.000       A
 Population analysis output                     : summary and pdos components

 ****************************** Phonon Parameters ******************************
  
 phonon calculation method                      : linear response
 phonon convergence tolerance                   : 0.1000E-04   eV/A**2
 max. number of phonon cycles                   :         50
 max. number of phonon CG steps                 :          0
 convergence tolerance window                   :          2   cycles
 DFPT solver method                             : AllBands (Gonze variational method)
 preconditioning scheme                         : TPA     
 fine phonon calculation method                 : interpolation
 non-periodic force constant method             : Weighted cumulant sum
 LO/TO splitting term                           : included
 acoustic phonon sum rule                       : correct D(q) in recip-space
 Born effective charges                         : calculated
 Born charge sum rule                           : explicitly enforced
 Raman intensities                              : calculated
 Raman frequency window start                   :  0.000       eV
 Raman frequency window stop                    :  1.000       eV
 Raman tensor calculated using                  : finite displacement method
 phonon k-points                                : use reduced set
 phonon DOS                                     : not calculated
 backups results every                          :      14400   seconds
 band convergence tolerance                     : 0.1000E-08   eV

 *******************************************************************************
  

                           -------------------------------
                                      Unit Cell
                           -------------------------------
        Real Lattice(A)                      Reciprocal Lattice(1/A)
     3.7628645     0.0000000     0.0000000        1.669787823   0.000000000   0.000000000
     0.0000000     2.1853844     0.0000000        0.000000000   2.875093887   0.000000000
     0.0000000     0.0000000     3.5069652        0.000000000   0.000000000   1.791630377

                       Lattice parameters(A)       Cell Angles
                    a =      3.762864          alpha =   90.000000
                    b =      2.185384          beta  =   90.000000
                    c =      3.506965          gamma =   90.000000

                       Current cell volume =            28.838845       A**3
                                   density =             0.279606   AMU/A**3
                                           =             0.464297     g/cm^3

                           -------------------------------
                                     Cell Contents
                           -------------------------------
                         Total number of ions in cell =    8
                      Total number of species in cell =    1
                        Max number of any one species =    8

            xxxxxxxxxxxxxxxxxxxxxxxxxxxxxxxxxxxxxxxxxxxxxxxxxxxxxxxxxxxx
            x  Element    Atom        Fractional coordinates of atoms  x
            x            Number           u          v          w      x
            x----------------------------------------------------------x
            x  H            1         0.360066   0.148931   0.381589   x 
            x  H            2         0.472746   0.354776   0.497311   x 
            x  H            3         0.972746   0.645224   0.497311   x 
            x  H            4         0.860066   0.851069   0.381589   x 
            x  H            5         0.027254   0.354776   0.997311   x 
            x  H            6         0.139934   0.148931   0.881589   x 
            x  H            7         0.527254   0.645224   0.997311   x 
            x  H            8         0.639934   0.851069   0.881589   x 
            xxxxxxxxxxxxxxxxxxxxxxxxxxxxxxxxxxxxxxxxxxxxxxxxxxxxxxxxxxxx


                         No user defined ionic velocities

                           -------------------------------
                                   Details of Species
                           -------------------------------

                               Mass of species in AMU
                                    H    1.0078250

                          Electric Quadrupole Moment (Barn)
                                    H    0.0028600 Isotope  2

                          Files used for pseudopotentials:
                                    H 0|0.7|2|6|8|10L(qc=10)

                           -------------------------------
                              k-Points For BZ Sampling
                           -------------------------------
                       MP grid size for SCF calculation is  2  2  2
                            with an offset of   0.000  0.000  0.000
                       Number of kpoints used =             1

                           -------------------------------
                               Symmetry and Constraints
                           -------------------------------

                      Maximum deviation from symmetry = 0.436728E-14     ANG

                      Number of symmetry operations   =           4
                      Number of ionic constraints     =           3
                      Point group of crystal =     6: C2v, mm2, 2 mm
                      Space group of crystal =    29: Pca2_1, P 2c -2ac

             Set iprint > 1 for details on symmetry rotations/translations

                         Centre of mass is constrained
             Set iprint > 1 for details of linear ionic constraints

                         Number of cell constraints= 3
                         Cell constraints are:  1 2 3 0 0 0

                         External pressure/stress (GPa)
                         30.00000   0.00000   0.00000
                                   30.00000   0.00000
                                             30.00000
  
+---------------- MEMORY AND SCRATCH DISK ESTIMATES PER PROCESS --------------+
|                                                     Memory          Disk    |
| Baseline code, static data and system overhead      382.0 MB         0.0 MB |
| BLAS internal memory storage                          0.0 MB         0.0 MB |
| Model and support data                                7.1 MB         0.0 MB |
| Electronic energy minimisation requirements           1.6 MB         0.0 MB |
| Force calculation requirements                        1.0 MB         0.0 MB |
| Stress calculation requirements                       1.1 MB         0.0 MB |
|                                               ----------------------------- |
| Approx. total storage required per process          390.7 MB         0.0 MB |
|                                                                             |
| Requirements will fluctuate during execution and may exceed these estimates |
+-----------------------------------------------------------------------------+
Calculating finite basis set correction with  3 cut-off energies.
Calculating total energy with cut-off of 1190.000 eV.
------------------------------------------------------------------------ <-- SCF
SCF loop      Energy                           Energy gain       Timer   <-- SCF
                                               per atom          (sec)   <-- SCF
------------------------------------------------------------------------ <-- SCF
Initial   2.15746360E+002                                          2.24  <-- SCF
      1  -9.26703068E+001                    3.85520834E+001       2.27  <-- SCF
      2  -1.26291499E+002                    4.20264906E+000       2.28  <-- SCF
      3  -1.26453299E+002                    2.02250167E-002       2.29  <-- SCF
      4  -1.25535409E+002                   -1.14736353E-001       2.35  <-- SCF
      5  -1.25509488E+002                   -3.24010915E-003       2.41  <-- SCF
      6  -1.25511170E+002                    2.10250727E-004       2.47  <-- SCF
      7  -1.25511376E+002                    2.57523850E-005       2.52  <-- SCF
      8  -1.25511377E+002                    9.68617631E-008       2.58  <-- SCF
      9  -1.25511377E+002                    1.19446188E-008       2.64  <-- SCF
     10  -1.25511377E+002                   -3.91621399E-011       2.70  <-- SCF
     11  -1.25511377E+002                    7.02096838E-012       2.75  <-- SCF
     12  -1.25511377E+002                    5.64940226E-013       2.80  <-- SCF
------------------------------------------------------------------------ <-- SCF
 
Final energy =  -125.5113766214     eV
(energy not corrected for finite basis set)
 
Calculating total energy with cut-off of 1195.000 eV.
------------------------------------------------------------------------ <-- SCF
SCF loop      Energy                           Energy gain       Timer   <-- SCF
                                               per atom          (sec)   <-- SCF
------------------------------------------------------------------------ <-- SCF
Initial  -1.25511377E+002                                          2.89  <-- SCF
      1  -1.25511719E+002                    4.27986499E-005       2.91  <-- SCF
      2  -1.25511719E+002                    3.23526464E-011       2.98  <-- SCF
      3  -1.25511719E+002                    5.44609991E-008       3.03  <-- SCF
      4  -1.25511719E+002                    2.20864439E-009       3.09  <-- SCF
      5  -1.25511719E+002                    4.28720147E-011       3.15  <-- SCF
      6  -1.25511719E+002                    1.71596817E-012       3.20  <-- SCF
      7  -1.25511719E+002                    6.13277358E-013       3.25  <-- SCF
------------------------------------------------------------------------ <-- SCF
 
Final energy =  -125.5117194644     eV
(energy not corrected for finite basis set)
 
Calculating total energy with cut-off of 1200.000 eV.
------------------------------------------------------------------------ <-- SCF
SCF loop      Energy                           Energy gain       Timer   <-- SCF
                                               per atom          (sec)   <-- SCF
------------------------------------------------------------------------ <-- SCF
Initial  -1.25511719E+002                                          3.33  <-- SCF
      1  -1.25512519E+002                    9.98857670E-005       3.35  <-- SCF
      2  -1.25512519E+002                    7.73394107E-011       3.41  <-- SCF
      3  -1.25512520E+002                    2.10506840E-007       3.46  <-- SCF
      4  -1.25512520E+002                    1.27157773E-008       3.52  <-- SCF
      5  -1.25512520E+002                    2.49362199E-010       3.58  <-- SCF
      6  -1.25512520E+002                    9.90609092E-012       3.63  <-- SCF
      7  -1.25512520E+002                    3.66757987E-012       3.68  <-- SCF
      8  -1.25512520E+002                    2.14496022E-013       3.74  <-- SCF
------------------------------------------------------------------------ <-- SCF
 
Final energy =  -125.5125203389     eV
(energy not corrected for finite basis set)
 
 For future reference: finite basis dEtot/dlog(Ecut) =      -0.129180eV
 Total energy corrected for finite basis set =    -125.512462 eV

 ************************** Forces **************************
 *                                                          *
 *               Cartesian components (eV/A)                *
 * -------------------------------------------------------- *
 *                         x            y            z      *
 *                                                          *
 * H               1     -0.17603     -0.37853     -0.14454 *
 * H               2      0.03294      0.38699      0.14454 *
 * H               3      0.03294     -0.38699      0.14454 *
 * H               4     -0.17603      0.37853     -0.14454 *
 * H               5     -0.03294      0.38699      0.14454 *
 * H               6      0.17603     -0.37853     -0.14454 *
 * H               7     -0.03294     -0.38699      0.14454 *
 * H               8      0.17603      0.37853     -0.14454 *
 *                                                          *
 ************************************************************
 ???????????????????????????????????????????????????????????????????????????????? 
 ?                                                                              ? 
 ?     *ERROR* in PHONON calculation:  Prerequisite GEOMETRY OPTIMISATION       ? 
 ?     has not been performed or is not converged to sufficient accuracy.       ? 
 ?                                                                              ? 
 ?        Maximum force |F|max     = 0.4418     eV/A                            ? 
 ?        Parameter GEOM_FORCE_TOL = 0.5000E-01 eV/A                            ? 
 ?                                                                              ? 
 ?   This could be because of any of the following                              ? 
 ?     (a) No geometry optimisation was performed                               ? 
 ?     (b) A geometry optimisation failed to converge                           ? 
 ?     (c) An error was made copying the optimised geometry to this .cell file  ? 
 ?     (d) Cutoff, k-point sampling or other convergence parameter differ       ? 
 ?         from the geometry optimisation run to this one.                      ? 
 ?   Please check your input parameters and if necessary run or re-run a        ? 
 ?   geometry optimisation calculation.                                         ? 
 ?                                                                              ? 
 ?   Alternatively increase value of GEOM_FORCE_TOL to 0.4418     or greater    ? 
 ?   to allow this run to proceed at risk of inaccurate phonon frequencies.     ? 
 ?                                                                              ? 
 ?   Typically a force tolerance convergence of 0.025 eV/A is necessary to      ? 
 ?   obtain well converged phonon frequencies althout a smaller value can be    ? 
 ?   required in the presence of weak forces, e.g. in molecular crystals        ? 
 ?                                                                              ? 
 ???????????????????????????????????????????????????????????????????????????????? 
