 +-------------------------------------------------+
 |                                                 |
 |      CCC   AA    SSS  TTTTT  EEEEE  PPPP        |
 |     C     A  A  S       T    E      P   P       |
 |     C     AAAA   SS     T    EEE    PPPP        |
 |     C     A  A     S    T    E      P           |
 |      CCC  A  A  SSS     T    EEEEE  P           |
 |                                                 |
 +-------------------------------------------------+
 |                                                 |
 | Welcome to Academic Release CASTEP version 18.1 |          
 | Ab Initio Total Energy Program                  |
 |                                                 |
 | Authors:                                        |
 | M. Segall, M. Probert, C. Pickard, P. Hasnip,   |
 | S. Clark, K. Refson, J. R. Yates, M. Payne      |
 |                                                 |
 | Contributors:                                   |
 | P. Lindan, P. Haynes, J. White, V. Milman,      |
 | N. Govind, M. Gibson, P. Tulip, V. Cocula,      |
 | B. Montanari, D. Quigley, M. Glover,            |
 | L. Bernasconi, A. Perlov, M. Plummer,           |
 | E. McNellis, J. Meyer, J. Gale, D. Jochym       |
 | J. Aarons, B. Walker, R. Gillen, D. Jones       |
 | T. Green, I. J. Bush, C. J. Armstrong,          |
 | E. J. Higgins, E. L. Brown, M. S. McFly,        |
 | J. Wilkins, B-C. Shih, P. J. P. Byrne           |
 |                                                 |
 | Copyright (c) 2000 - 2017                       |
 |                                                 |
 |     Distributed under the terms of an           |
 |     Agreement between the United Kingdom        |
 |     Car-Parrinello (UKCP) Consortium,           |
 |     Daresbury Laboratory and Accelrys, Inc.     |
 |                                                 |
 | Please cite                                     |
 |                                                 |
 |     "First principles methods using CASTEP"     |
 |                                                 |
 |         Zeitschrift fuer Kristallographie       |
 |           220(5-6) pp. 567-570 (2005)           |
 |                                                 |
 | S. J. Clark, M. D. Segall, C. J. Pickard,       |
 | P. J. Hasnip, M. J. Probert, K. Refson,         |
 | M. C. Payne                                     |
 |                                                 |
 |       in all publications arising from          |
 |              your use of CASTEP                 |
 |                                                 |
 +-------------------------------------------------+


 Compiled for linux_x86_64_gfortran4.8 on Thu, 19 Jul 2018 15:42:32 +0100
 from code version 70483bd0ad64+  Sun, 10 Dec 2017 12:18:29 +0000
 Compiler: GNU Fortran 4.8.5; Optimisation: fast
 MATHLIBS: Intel MKL(2018.0.0) (LAPACK version 3.7.0)
 FFT Lib : mkl
 Fundamental constants values: CODATA 2014

 Run started: Tue, 11 Aug 2020 19:24:17 +0100

 Atomic calculation performed for H: 1s1

 Converged in 41 iterations to an ae energy of -12.488 eV

   ============================================================                
   | Pseudopotential Report - Date of generation 11-08-2020   |                
   ------------------------------------------------------------                
   | Element: H Ionic charge:  1.00 Level of theory: PBE      |                
   | Atomic Solver: Koelling-Harmon                           |                
   |                                                          |                
   |               Reference Electronic Structure             |                
   |         Orbital         Occupation         Energy        |                
   |            1s              1.000           -0.239        |                
   |                                                          |                
   |                 Pseudopotential Definition               |                
   |        Beta     l      e      Rc     scheme   norm       |                
   |         loc     0   -0.239   0.702     qc      1         |                
   |                                                          |                
   | No charge augmentation                                   |                
   | No partial core correction                               |                
   ------------------------------------------------------------                
   | "0|0.7|2|6|8|10L(qc=10)"                                 |                
   ------------------------------------------------------------                
   |      Author: Chris J. Pickard, Cambridge University      |                
   ============================================================                

 Pseudo atomic calculation performed for H 1s1

 Converged in 24 iterations to a total energy of -12.4843 eV

 Calculation parallelised over 16 processes.
 Data is distributed by k-point(16-way)

 ************************************ Title ************************************
 

 ***************************** General Parameters ******************************
  
 output verbosity                               : normal  (1)
 write checkpoint data to                       : C2c.check
 type of calculation                            : geometry optimization
 stress calculation                             : on
 density difference calculation                 : off
 electron localisation func (ELF) calculation   : off
 Hirshfeld analysis                             : off
 unlimited duration calculation
 timing information                             : on
 memory usage estimate                          : on
 write extra output files                       : on
 write final potential to formatted file        : off
 write final density to formatted file          : off
 write structure in CELL formatted file         : on
 write BibTeX reference list                    : on
 write OTFG pseudopotential files               : on
 write electrostatic potential file             : on
 write bands file                               : on
 checkpoint writing                             : both castep_bin and check files
  
 output         length unit                     : A
 output           mass unit                     : amu
 output           time unit                     : ps
 output         charge unit                     : e
 output           spin unit                     : hbar/2
 output         energy unit                     : eV
 output          force unit                     : eV/A
 output       velocity unit                     : A/ps
 output       pressure unit                     : GPa
 output     inv_length unit                     : 1/A
 output      frequency unit                     : cm-1
 output force constant unit                     : eV/A**2
 output         volume unit                     : A**3
 output   IR intensity unit                     : (D/A)**2/amu
 output         dipole unit                     : D
 output         efield unit                     : eV/A/e
 output        entropy unit                     : J/mol/K
  
 wavefunctions paging                           : none
 random number generator seed                   : randomised (192417774)
 data distribution                              : optimal for this architecture
 optimization strategy                          : maximize speed(+++)

 *********************** Exchange-Correlation Parameters ***********************
  
 using functional                               : Perdew Burke Ernzerhof
 relativistic treatment                         : Koelling-Harmon
 DFT+D: Semi-empirical dispersion correction    : off

 ************************* Pseudopotential Parameters **************************
  
 pseudopotential representation                 : reciprocal space
 <beta|phi> representation                      : reciprocal space
 spin-orbit coupling                            : off

 **************************** Basis Set Parameters *****************************
  
 plane wave basis set cut-off                   :  1200.0000   eV
 size of standard grid                          :     2.0000
 size of   fine   gmax                          :    35.4943   1/A
 finite basis set correction                    : automatic
 number of sample energies                      :          3
           sample  spacing                      :     5.0000   eV

 **************************** Electronic Parameters ****************************
  
 number of  electrons                           :  24.00    
 net charge of system                           :  0.000    
 treating system as non-spin-polarized
 number of bands                                :         12

 ********************* Electronic Minimization Parameters **********************
  
 Method: Treating system as non-metallic,
         and number of  SD  steps               :          1
         and number of  CG  steps               :          4
  
 total energy / atom convergence tol.           : 0.1000E-10   eV
 eigen-energy convergence tolerance             : 0.2000E-10   eV
 max force / atom convergence tol.              : ignored
 convergence tolerance window                   :          3   cycles
 max. number of SCF cycles                      :        100
 periodic dipole correction                     : NONE

 ************************** Density Mixing Parameters **************************
  
 density-mixing scheme                          : Broyden
 max. length of mixing history                  :         20
 charge density mixing amplitude                : 0.8000    
 cut-off energy for mixing                      :  1200.       eV

 *********************** Population Analysis Parameters ************************
  
 Population analysis with cutoff                :  3.000       A
 Population analysis output                     : summary and pdos components

 ********************** Geometry Optimization Parameters ***********************
  
 optimization method                            : LBFGS
 max. no. of LBFGS updates                      : unbounded
 variable cell method                           : fixed basis quality
 max. number of steps                           :         60
 estimated bulk modulus                         :  500.0       GPa
 estimated <frequency>                          :  1668.       cm-1
 geom line minimiser                            : on
 with line minimiser tolerance                  :     0.4000
 total energy convergence tolerance             : 0.1000E-08   eV/atom
        max ionic |force| tolerance             : 0.1000E-04   eV/A
 max ionic |displacement| tolerance             : 0.1000E-04   A
   max |stress component| tolerance             : 0.1000E-04   GPa
 convergence tolerance window                   :          2   steps
 backup results every                           :      14400   seconds
 write geom trajectory file                     : on

 *******************************************************************************
  

                           -------------------------------
                                      Unit Cell
                           -------------------------------
        Real Lattice(A)                      Reciprocal Lattice(1/A)
     5.7702028     0.0000000    -0.0063464        1.090437913   0.000000000   1.396472794
     0.0000000     3.3130971     0.0000000        0.000000000   1.896468795   0.000000000
    -3.8383178     0.0000000     2.9971563        0.002308974   0.000000000   2.099339247

                       Lattice parameters(A)       Cell Angles
                    a =      5.770206          alpha =   90.000000
                    b =      3.313097          beta  =  142.078465
                    c =      4.869870          gamma =   90.000000

                       Current cell volume =            57.216658       A**3
                                   density =             0.422789   AMU/A**3
                                           =             0.702057     g/cm^3

                           -------------------------------
                                     Cell Contents
                           -------------------------------
                         Total number of ions in cell =   24
                      Total number of species in cell =    1
                        Max number of any one species =   24

            xxxxxxxxxxxxxxxxxxxxxxxxxxxxxxxxxxxxxxxxxxxxxxxxxxxxxxxxxxxx
            x  Element    Atom        Fractional coordinates of atoms  x
            x            Number           u          v          w      x
            x----------------------------------------------------------x
            x  H            1         0.252448  -0.095450   0.258204   x 
            x  H            2         0.352862   0.302533   0.228727   x 
            x  H            3         0.500000   0.097276   0.750000   x 
            x  H            4         0.500000   0.319582   0.750000   x 
            x  H            5         0.747552  -0.095450   0.241796   x 
            x  H            6         0.647138   0.302533   0.271273   x 
            x  H            7         0.752448   0.404550   0.258204   x 
            x  H            8         0.852862   0.802533   0.228727   x 
            x  H            9        -0.000000   0.597276   0.750000   x 
            x  H           10        -0.000000   0.819582   0.750000   x 
            x  H           11         0.247552   0.404550   0.241796   x 
            x  H           12         0.147138   0.802533   0.271273   x 
            x  H           13         0.247552   0.595450   0.741796   x 
            x  H           14         0.147138   0.197467   0.771273   x 
            x  H           15         0.000000   0.402724   0.250000   x 
            x  H           16         0.000000   0.180418   0.250000   x 
            x  H           17         0.752448   0.595450   0.758204   x 
            x  H           18         0.852862   0.197467   0.728727   x 
            x  H           19         0.747552   1.095450   0.741796   x 
            x  H           20         0.647138   0.697467   0.771273   x 
            x  H           21         0.500000   0.902724   0.250000   x 
            x  H           22         0.500000   0.680418   0.250000   x 
            x  H           23         0.252448   1.095450   0.758204   x 
            x  H           24         0.352862   0.697467   0.728727   x 
            xxxxxxxxxxxxxxxxxxxxxxxxxxxxxxxxxxxxxxxxxxxxxxxxxxxxxxxxxxxx


                         No user defined ionic velocities

                           -------------------------------
                                   Details of Species
                           -------------------------------

                               Mass of species in AMU
                                    H    1.0079400

                          Electric Quadrupole Moment (Barn)
                                    H    0.0028600 Isotope  2

                          Files used for pseudopotentials:
                                    H 0|0.7|2|6|8|10L(qc=10)

                           -------------------------------
                              k-Points For BZ Sampling
                           -------------------------------
                       MP grid size for SCF calculation is 10 10 10
                            with an offset of   0.000  0.000  0.000
                       Number of kpoints used =           250

                           -------------------------------
                               Symmetry and Constraints
                           -------------------------------

                      Cell is a supercell containing 2 primitive cells
                      Maximum deviation from symmetry = 0.512497E-14     ANG

                      Number of symmetry operations   =           8
                      Number of ionic constraints     =           3
                      Point group of crystal =     5: C2h, 2/m, 2/m
                      Space group of crystal =    15: C2/c, -C 2yc

             Set iprint > 1 for details on symmetry rotations/translations

                         Centre of mass is constrained
             Set iprint > 1 for details of linear ionic constraints

                         Number of cell constraints= 2
                         Cell constraints are:  1 2 3 0 5 0

                         External pressure/stress (GPa)
                         60.00000   0.00000   0.00000
                                   60.00000   0.00000
                                             60.00000
  
+---------------- MEMORY AND SCRATCH DISK ESTIMATES PER PROCESS --------------+
|                                                     Memory          Disk    |
| Baseline code, static data and system overhead      413.0 MB         0.0 MB |
| BLAS internal memory storage                          0.0 MB         0.0 MB |
| Model and support data                               67.2 MB         0.0 MB |
| Electronic energy minimisation requirements          62.9 MB         0.0 MB |
| Force calculation requirements                       19.8 MB         0.0 MB |
| Stress calculation requirements                      25.0 MB         0.0 MB |
|                                               ----------------------------- |
| Approx. total storage required per process          543.2 MB         0.0 MB |
|                                                                             |
| Requirements will fluctuate during execution and may exceed these estimates |
+-----------------------------------------------------------------------------+
Calculating finite basis set correction with  3 cut-off energies.
Calculating total energy with cut-off of 1190.000 eV.
------------------------------------------------------------------------ <-- SCF
SCF loop      Energy                           Energy gain       Timer   <-- SCF
                                               per atom          (sec)   <-- SCF
------------------------------------------------------------------------ <-- SCF
Initial   5.98602568E+002                                          3.07  <-- SCF
      1  -2.97602147E+002                    3.73418631E+001       8.43  <-- SCF
      2  -3.64976772E+002                    2.80727606E+000      12.04  <-- SCF
      3  -3.66058776E+002                    4.50834990E-002      15.16  <-- SCF
      4  -3.64283811E+002                   -7.39568842E-002      20.30  <-- SCF
      5  -3.64221473E+002                   -2.59742124E-003      25.45  <-- SCF
      6  -3.64223113E+002                    6.83134277E-005      30.60  <-- SCF
      7  -3.64223269E+002                    6.50190087E-006      35.77  <-- SCF
      8  -3.64223269E+002                    2.19391647E-008      40.92  <-- SCF
      9  -3.64223269E+002                    1.12536496E-009      46.06  <-- SCF
     10  -3.64223269E+002                    1.63540629E-011      49.66  <-- SCF
     11  -3.64223269E+002                    1.86903576E-012      53.25  <-- SCF
     12  -3.64223269E+002                   -3.56486346E-013      56.86  <-- SCF
------------------------------------------------------------------------ <-- SCF
 
Final energy =  -364.2232691713     eV
(energy not corrected for finite basis set)
 
Calculating total energy with cut-off of 1195.000 eV.
------------------------------------------------------------------------ <-- SCF
SCF loop      Energy                           Energy gain       Timer   <-- SCF
                                               per atom          (sec)   <-- SCF
------------------------------------------------------------------------ <-- SCF
Initial  -3.64223269E+002                                         58.49  <-- SCF
      1  -3.64225004E+002                    7.22981426E-005      62.83  <-- SCF
      2  -3.64225004E+002                    1.01433457E-010      67.86  <-- SCF
      3  -3.64225005E+002                    3.08636050E-008      72.96  <-- SCF
      4  -3.64225005E+002                    1.55991174E-009      78.06  <-- SCF
      5  -3.64225005E+002                    1.69562630E-011      81.75  <-- SCF
      6  -3.64225005E+002                    1.05334666E-012      85.32  <-- SCF
      7  -3.64225005E+002                    1.02716405E-013      88.90  <-- SCF
------------------------------------------------------------------------ <-- SCF
 
Final energy =  -364.2250051077     eV
(energy not corrected for finite basis set)
 
Calculating total energy with cut-off of 1200.000 eV.
------------------------------------------------------------------------ <-- SCF
SCF loop      Energy                           Energy gain       Timer   <-- SCF
                                               per atom          (sec)   <-- SCF
------------------------------------------------------------------------ <-- SCF
Initial  -3.64225005E+002                                         90.51  <-- SCF
      1  -3.64226706E+002                    7.08771314E-005      94.87  <-- SCF
      2  -3.64226706E+002                    9.69864407E-011      99.94  <-- SCF
      3  -3.64226707E+002                    3.05995090E-008     105.07  <-- SCF
      4  -3.64226707E+002                    1.51641437E-009     110.19  <-- SCF
      5  -3.64226707E+002                    1.66883947E-011     113.92  <-- SCF
      6  -3.64226707E+002                    7.12972692E-013     117.51  <-- SCF
      7  -3.64226707E+002                   -2.01404715E-014     121.10  <-- SCF
------------------------------------------------------------------------ <-- SCF
 
Final energy =  -364.2267069324     eV
(energy not corrected for finite basis set)
 
 For future reference: finite basis dEtot/dlog(Ecut) =      -0.410927eV
 Total energy corrected for finite basis set =    -364.226702 eV
 
+---------------- MEMORY AND SCRATCH DISK ESTIMATES PER PROCESS --------------+
|                                                     Memory          Disk    |
| Model and support data                               70.3 MB         0.0 MB |
| Electronic energy minimisation requirements          62.9 MB         0.0 MB |
| Geometry minimisation requirements                   81.8 MB         0.0 MB |
|                                               ----------------------------- |
| Approx. total storage required per process          215.1 MB         0.0 MB |
|                                                                             |
| Requirements will fluctuate during execution and may exceed these estimates |
+-----------------------------------------------------------------------------+
 

 ******************************** Symmetrised Forces ********************************
 *                                                                                  *
 *                           Cartesian components (eV/A)                            *
 * -------------------------------------------------------------------------------- *
 *                         x                    y                    z              *
 *                                                                                  *
 * H               1     -0.00000             -0.00000             -0.00000         *
 * H               2     -0.00000              0.00000              0.00000         *
 * H               3     -0.00000              0.00000             -0.00000         *
 * H               4      0.00000             -0.00000             -0.00000         *
 * H               5      0.00000             -0.00000              0.00000         *
 * H               6      0.00000              0.00000             -0.00000         *
 * H               7     -0.00000             -0.00000             -0.00000         *
 * H               8     -0.00000              0.00000              0.00000         *
 * H               9      0.00000              0.00000              0.00000         *
 * H              10     -0.00000             -0.00000              0.00000         *
 * H              11      0.00000             -0.00000              0.00000         *
 * H              12      0.00000              0.00000             -0.00000         *
 * H              13      0.00000              0.00000              0.00000         *
 * H              14      0.00000             -0.00000             -0.00000         *
 * H              15     -0.00000             -0.00000              0.00000         *
 * H              16      0.00000              0.00000              0.00000         *
 * H              17     -0.00000              0.00000             -0.00000         *
 * H              18     -0.00000             -0.00000              0.00000         *
 * H              19      0.00000              0.00000              0.00000         *
 * H              20      0.00000             -0.00000             -0.00000         *
 * H              21      0.00000             -0.00000              0.00000         *
 * H              22     -0.00000              0.00000              0.00000         *
 * H              23     -0.00000              0.00000             -0.00000         *
 * H              24     -0.00000             -0.00000              0.00000         *
 *                                                                                  *
 ************************************************************************************

 *********** Symmetrised Stress Tensor ***********
 *                                               *
 *          Cartesian components (GPa)           *
 * --------------------------------------------- *
 *             x             y             z     *
 *                                               *
 *  x    -89.958177      0.000000     -0.000003  *
 *  y      0.000000    -89.958172      0.000000  *
 *  z     -0.000003      0.000000    -89.958175  *
 *                                               *
 *  Pressure:   89.9582                          *
 *                                               *
 *************************************************
 LBFGS: finished iteration     0 with enthalpy= -3.42799604E+002 eV
  
 +-----------+-----------------+-----------------+------------+-----+ <-- LBFGS
 | Parameter |      value      |    tolerance    |    units   | OK? | <-- LBFGS
 +-----------+-----------------+-----------------+------------+-----+ <-- LBFGS
 |  dE/ion   |   0.000000E+000 |   1.000000E-009 |         eV | No  | <-- LBFGS
 |  |F|max   |   4.026268E-007 |   1.000000E-005 |       eV/A | Yes | <-- LBFGS
 |  |dR|max  |   0.000000E+000 |   1.000000E-005 |          A | No  | <-- LBFGS
 |   Smax    |   2.995818E+001 |   1.000000E-005 |        GPa | No  | <-- LBFGS
 +-----------+-----------------+-----------------+------------+-----+ <-- LBFGS
  

================================================================================
 Starting LBFGS iteration          1 ...
================================================================================
  
 +------------+-------------+-------------+-----------------+ <-- min LBFGS
 |    Step    |   lambda    |   F.delta'  |    enthalpy     | <-- min LBFGS
 +------------+-------------+-------------+-----------------+ <-- min LBFGS
 |  previous  |    0.000000 |    0.680985 |     -342.799604 | <-- min LBFGS
 +------------+-------------+-------------+-----------------+ <-- min LBFGS
  

--------------------------------------------------------------------------------
 LBFGS: starting iteration         1 with trial guess (lambda=  1.000000)
--------------------------------------------------------------------------------
 
+---------------- MEMORY AND SCRATCH DISK ESTIMATES PER PROCESS --------------+
|                                                     Memory          Disk    |
| Model and support data                               72.1 MB         0.0 MB |
| Electronic energy minimisation requirements          65.8 MB         0.0 MB |
| Geometry minimisation requirements                   85.7 MB         0.0 MB |
|                                               ----------------------------- |
| Approx. total storage required per process          223.6 MB         0.0 MB |
|                                                                             |
| Requirements will fluctuate during execution and may exceed these estimates |
+-----------------------------------------------------------------------------+
 

                           -------------------------------
                                      Unit Cell
                           -------------------------------
        Real Lattice(A)              Reciprocal Lattice(1/A)
     5.8854460     0.0000000    -0.0064731        1.069085999   0.000000000   1.369128400
     0.0000000     3.3792667     0.0000000        0.000000000   1.859333964   0.000000000
    -3.9149771     0.0000000     3.0570159        0.002263758   0.000000000   2.058231996

                       Lattice parameters(A)       Cell Angles
                    a =      5.885450          alpha =   90.000000
                    b =      3.379267          beta  =  142.078465
                    c =      4.967131          gamma =   90.000000

                Current cell volume =            60.713796 A**3

                           -------------------------------
                                     Cell Contents
                           -------------------------------

            xxxxxxxxxxxxxxxxxxxxxxxxxxxxxxxxxxxxxxxxxxxxxxxxxxxxxxxxxxxxxxxxx
            x  Element         Atom        Fractional coordinates of atoms  x
            x                 Number           u          v          w      x
            x---------------------------------------------------------------x
            x  H                 1         0.252448  -0.095450   0.258204   x
            x  H                 2         0.352862   0.302533   0.228727   x
            x  H                 3         0.500000   0.097276   0.750000   x
            x  H                 4         0.500000   0.319582   0.750000   x
            x  H                 5         0.747552  -0.095450   0.241796   x
            x  H                 6         0.647138   0.302533   0.271273   x
            x  H                 7         0.752448   0.404550   0.258204   x
            x  H                 8         0.852862   0.802533   0.228727   x
            x  H                 9         0.000000   0.597276   0.750000   x
            x  H                10         0.000000   0.819582   0.750000   x
            x  H                11         0.247552   0.404550   0.241796   x
            x  H                12         0.147138   0.802533   0.271273   x
            x  H                13         0.247552   0.595450   0.741796   x
            x  H                14         0.147138   0.197467   0.771273   x
            x  H                15         0.000000   0.402724   0.250000   x
            x  H                16         0.000000   0.180418   0.250000   x
            x  H                17         0.752448   0.595450   0.758204   x
            x  H                18         0.852862   0.197467   0.728727   x
            x  H                19         0.747552   1.095450   0.741796   x
            x  H                20         0.647138   0.697467   0.771273   x
            x  H                21         0.500000   0.902724   0.250000   x
            x  H                22         0.500000   0.680418   0.250000   x
            x  H                23         0.252448   1.095450   0.758204   x
            x  H                24         0.352862   0.697467   0.728727   x
            xxxxxxxxxxxxxxxxxxxxxxxxxxxxxxxxxxxxxxxxxxxxxxxxxxxxxxxxxxxxxxxxx


------------------------------------------------------------------------ <-- SCF
SCF loop      Energy                           Energy gain       Timer   <-- SCF
                                               per atom          (sec)   <-- SCF
------------------------------------------------------------------------ <-- SCF
Initial  -3.65918891E+002                                        124.80  <-- SCF
      1  -3.66010635E+002                    3.82264232E-003     129.17  <-- SCF
      2  -3.66010917E+002                    1.17797579E-005     134.32  <-- SCF
      3  -3.66007675E+002                   -1.35104629E-004     139.49  <-- SCF
      4  -3.66007594E+002                   -3.38680152E-006     144.66  <-- SCF
      5  -3.66007597E+002                    1.43530641E-007     149.82  <-- SCF
      6  -3.66007597E+002                    1.37519865E-008     155.00  <-- SCF
      7  -3.66007597E+002                    4.98073861E-011     158.61  <-- SCF
      8  -3.66007597E+002                    2.70285128E-012     162.22  <-- SCF
      9  -3.66007597E+002                    1.67165914E-013     165.82  <-- SCF
------------------------------------------------------------------------ <-- SCF
 
Final energy =  -366.0075974374     eV
(energy not corrected for finite basis set)
 

 ******************************** Symmetrised Forces ********************************
 *                                                                                  *
 *                           Cartesian components (eV/A)                            *
 * -------------------------------------------------------------------------------- *
 *                         x                    y                    z              *
 *                                                                                  *
 * H               1     -0.36939             -0.19219              0.02458         *
 * H               2     -0.36600              0.18810              0.01900         *
 * H               3      0.00000              0.41694             -0.00000         *
 * H               4      0.00000             -0.42252              0.00000         *
 * H               5      0.36939             -0.19219             -0.02458         *
 * H               6      0.36600              0.18810             -0.01900         *
 * H               7     -0.36939             -0.19219              0.02458         *
 * H               8     -0.36600              0.18810              0.01900         *
 * H               9     -0.00000              0.41694              0.00000         *
 * H              10     -0.00000             -0.42252              0.00000         *
 * H              11      0.36939             -0.19219             -0.02458         *
 * H              12      0.36600              0.18810             -0.01900         *
 * H              13      0.36939              0.19219             -0.02458         *
 * H              14      0.36600             -0.18810             -0.01900         *
 * H              15      0.00000             -0.41694              0.00000         *
 * H              16      0.00000              0.42252              0.00000         *
 * H              17     -0.36939              0.19219              0.02458         *
 * H              18     -0.36600             -0.18810              0.01900         *
 * H              19      0.36939              0.19219             -0.02458         *
 * H              20      0.36600             -0.18810             -0.01900         *
 * H              21      0.00000             -0.41694              0.00000         *
 * H              22      0.00000              0.42252             -0.00000         *
 * H              23     -0.36939              0.19219              0.02458         *
 * H              24     -0.36600             -0.18810              0.01900         *
 *                                                                                  *
 ************************************************************************************

 *********** Symmetrised Stress Tensor ***********
 *                                               *
 *          Cartesian components (GPa)           *
 * --------------------------------------------- *
 *             x             y             z     *
 *                                               *
 *  x    -71.675250      0.000000     -0.341669  *
 *  y      0.000000    -72.258597      0.000000  *
 *  z     -0.341669      0.000000    -77.506751  *
 *                                               *
 *  Pressure:   73.8135                          *
 *                                               *
 *************************************************
  
 +------------+-------------+-------------+-----------------+ <-- min LBFGS
 |    Step    |   lambda    |   F.delta'  |    enthalpy     | <-- min LBFGS
 +------------+-------------+-------------+-----------------+ <-- min LBFGS
 |  previous  |    0.000000 |    0.680985 |     -342.799604 | <-- min LBFGS
 | trial step |    1.000000 |    0.326666 |     -343.270848 | <-- min LBFGS
 +------------+-------------+-------------+-----------------+ <-- min LBFGS
  

--------------------------------------------------------------------------------
 LBFGS: improving iteration         1 with line minimization (lambda=  1.921954)
--------------------------------------------------------------------------------
 
+---------------- MEMORY AND SCRATCH DISK ESTIMATES PER PROCESS --------------+
|                                                     Memory          Disk    |
| Model and support data                               73.7 MB         0.0 MB |
| Electronic energy minimisation requirements          68.5 MB         0.0 MB |
| Geometry minimisation requirements                   89.3 MB         0.0 MB |
|                                               ----------------------------- |
| Approx. total storage required per process          231.6 MB         0.0 MB |
|                                                                             |
| Requirements will fluctuate during execution and may exceed these estimates |
+-----------------------------------------------------------------------------+
 

                           -------------------------------
                                      Unit Cell
                           -------------------------------
        Real Lattice(A)              Reciprocal Lattice(1/A)
     5.9916949     0.0000000    -0.0065900        1.050128217   0.000000000   1.344850058
     0.0000000     3.4402720     0.0000000        0.000000000   1.826362960   0.000000000
    -3.9856535     0.0000000     3.1122036        0.002223613   0.000000000   2.021733990

                       Lattice parameters(A)       Cell Angles
                    a =      5.991698          alpha =   90.000000
                    b =      3.440272          beta  =  142.078465
                    c =      5.056802          gamma =   90.000000

                Current cell volume =            64.061680 A**3

                           -------------------------------
                                     Cell Contents
                           -------------------------------

            xxxxxxxxxxxxxxxxxxxxxxxxxxxxxxxxxxxxxxxxxxxxxxxxxxxxxxxxxxxxxxxxx
            x  Element         Atom        Fractional coordinates of atoms  x
            x                 Number           u          v          w      x
            x---------------------------------------------------------------x
            x  H                 1         0.252448  -0.095450   0.258204   x
            x  H                 2         0.352862   0.302533   0.228727   x
            x  H                 3         0.500000   0.097276   0.750000   x
            x  H                 4         0.500000   0.319582   0.750000   x
            x  H                 5         0.747552  -0.095450   0.241796   x
            x  H                 6         0.647138   0.302533   0.271273   x
            x  H                 7         0.752448   0.404550   0.258204   x
            x  H                 8         0.852862   0.802533   0.228727   x
            x  H                 9         0.000000   0.597276   0.750000   x
            x  H                10         0.000000   0.819582   0.750000   x
            x  H                11         0.247552   0.404550   0.241796   x
            x  H                12         0.147138   0.802533   0.271273   x
            x  H                13         0.247552   0.595450   0.741796   x
            x  H                14         0.147138   0.197467   0.771273   x
            x  H                15         0.000000   0.402724   0.250000   x
            x  H                16         0.000000   0.180418   0.250000   x
            x  H                17         0.752448   0.595450   0.758204   x
            x  H                18         0.852862   0.197467   0.728727   x
            x  H                19         0.747552   1.095450   0.741796   x
            x  H                20         0.647138   0.697467   0.771273   x
            x  H                21         0.500000   0.902724   0.250000   x
            x  H                22         0.500000   0.680418   0.250000   x
            x  H                23         0.252448   1.095450   0.758204   x
            x  H                24         0.352862   0.697467   0.728727   x
            xxxxxxxxxxxxxxxxxxxxxxxxxxxxxxxxxxxxxxxxxxxxxxxxxxxxxxxxxxxxxxxxx


------------------------------------------------------------------------ <-- SCF
SCF loop      Energy                           Energy gain       Timer   <-- SCF
                                               per atom          (sec)   <-- SCF
------------------------------------------------------------------------ <-- SCF
Initial  -3.67337773E+002                                        169.55  <-- SCF
      1  -3.67414694E+002                    3.20504266E-003     174.00  <-- SCF
      2  -3.67414936E+002                    1.00828659E-005     179.22  <-- SCF
      3  -3.67412180E+002                   -1.14871721E-004     184.43  <-- SCF
      4  -3.67412110E+002                   -2.87775040E-006     189.66  <-- SCF
      5  -3.67412114E+002                    1.34073516E-007     194.88  <-- SCF
      6  -3.67412114E+002                    1.30837578E-008     200.15  <-- SCF
      7  -3.67412114E+002                    4.85949297E-011     203.79  <-- SCF
      8  -3.67412114E+002                    3.49235776E-012     207.44  <-- SCF
      9  -3.67412114E+002                    2.25573281E-013     211.09  <-- SCF
------------------------------------------------------------------------ <-- SCF
 
Final energy =  -367.4121139683     eV
(energy not corrected for finite basis set)
 

 ******************************** Symmetrised Forces ********************************
 *                                                                                  *
 *                           Cartesian components (eV/A)                            *
 * -------------------------------------------------------------------------------- *
 *                         x                    y                    z              *
 *                                                                                  *
 * H               1     -0.68316             -0.35548              0.04537         *
 * H               2     -0.67662              0.34765              0.03523         *
 * H               3     -0.00000              0.77074              0.00000         *
 * H               4     -0.00000             -0.78133              0.00000         *
 * H               5      0.68316             -0.35548             -0.04537         *
 * H               6      0.67662              0.34765             -0.03523         *
 * H               7     -0.68316             -0.35548              0.04537         *
 * H               8     -0.67662              0.34765              0.03523         *
 * H               9     -0.00000              0.77074              0.00000         *
 * H              10     -0.00000             -0.78133              0.00000         *
 * H              11      0.68316             -0.35548             -0.04537         *
 * H              12      0.67662              0.34765             -0.03523         *
 * H              13      0.68316              0.35548             -0.04537         *
 * H              14      0.67662             -0.34765             -0.03523         *
 * H              15     -0.00000             -0.77074              0.00000         *
 * H              16     -0.00000              0.78133              0.00000         *
 * H              17     -0.68316              0.35548              0.04537         *
 * H              18     -0.67662             -0.34765              0.03523         *
 * H              19      0.68316              0.35548             -0.04537         *
 * H              20      0.67662             -0.34765             -0.03523         *
 * H              21     -0.00000             -0.77074              0.00000         *
 * H              22     -0.00000              0.78133              0.00000         *
 * H              23     -0.68316              0.35548              0.04537         *
 * H              24     -0.67662             -0.34765              0.03523         *
 *                                                                                  *
 ************************************************************************************

 *********** Symmetrised Stress Tensor ***********
 *                                               *
 *          Cartesian components (GPa)           *
 * --------------------------------------------- *
 *             x             y             z     *
 *                                               *
 *  x    -57.257031      0.000000     -0.610509  *
 *  y      0.000000    -58.294707      0.000000  *
 *  z     -0.610509      0.000000    -67.630316  *
 *                                               *
 *  Pressure:   61.0607                          *
 *                                               *
 *************************************************
  
 +------------+-------------+-------------+-----------------+ <-- min LBFGS
 |    Step    |   lambda    |   F.delta'  |    enthalpy     | <-- min LBFGS
 +------------+-------------+-------------+-----------------+ <-- min LBFGS
 |  previous  |    0.000000 |    0.680985 |     -342.799604 | <-- min LBFGS
 | trial step |    1.000000 |    0.326666 |     -343.270848 | <-- min LBFGS
 |  line step |    1.921954 |    0.025998 |     -343.421616 | <-- min LBFGS
 +------------+-------------+-------------+-----------------+ <-- min LBFGS
  
 LBFGS: finished iteration     1 with enthalpy= -3.43421616E+002 eV
  
 +-----------+-----------------+-----------------+------------+-----+ <-- LBFGS
 | Parameter |      value      |    tolerance    |    units   | OK? | <-- LBFGS
 +-----------+-----------------+-----------------+------------+-----+ <-- LBFGS
 |  dE/ion   |   2.591716E-002 |   1.000000E-009 |         eV | No  | <-- LBFGS
 |  |F|max   |   7.813336E-001 |   1.000000E-005 |       eV/A | No  | <-- LBFGS
 |  |dR|max  |   7.793476E-008 |   1.000000E-005 |          A | Yes | <-- LBFGS
 |   Smax    |   7.630316E+000 |   1.000000E-005 |        GPa | No  | <-- LBFGS
 +-----------+-----------------+-----------------+------------+-----+ <-- LBFGS
  

================================================================================
 Starting LBFGS iteration          2 ...
================================================================================
  
 +------------+-------------+-------------+-----------------+ <-- min LBFGS
 |    Step    |   lambda    |   F.delta'  |    enthalpy     | <-- min LBFGS
 +------------+-------------+-------------+-----------------+ <-- min LBFGS
 |  previous  |    0.000000 |    0.457487 |     -343.421616 | <-- min LBFGS
 +------------+-------------+-------------+-----------------+ <-- min LBFGS
  

--------------------------------------------------------------------------------
 LBFGS: starting iteration         2 with trial guess (lambda=  0.928657)
--------------------------------------------------------------------------------
 
+---------------- MEMORY AND SCRATCH DISK ESTIMATES PER PROCESS --------------+
|                                                     Memory          Disk    |
| Model and support data                               81.6 MB         0.0 MB |
| Electronic energy minimisation requirements          78.2 MB         0.0 MB |
| Geometry minimisation requirements                  101.9 MB         0.0 MB |
|                                               ----------------------------- |
| Approx. total storage required per process          261.8 MB         0.0 MB |
|                                                                             |
| Requirements will fluctuate during execution and may exceed these estimates |
+-----------------------------------------------------------------------------+
 

                           -------------------------------
                                      Unit Cell
                           -------------------------------
        Real Lattice(A)              Reciprocal Lattice(1/A)
     6.2562751     0.0000000    -0.0044817        1.005217600   0.000000000   1.279089126
     0.0000000     3.5945745     0.0000000        0.000000000   1.747963588   0.000000000
    -4.1603831     0.0000000     3.2695848        0.001377881   0.000000000   1.923460693

                       Lattice parameters(A)       Cell Angles
                    a =      6.256277          alpha =   90.000000
                    b =      3.594574          beta  =  141.877753
                    c =      5.291406          gamma =   90.000000

                Current cell volume =            73.461514 A**3

                           -------------------------------
                                     Cell Contents
                           -------------------------------

            xxxxxxxxxxxxxxxxxxxxxxxxxxxxxxxxxxxxxxxxxxxxxxxxxxxxxxxxxxxxxxxxx
            x  Element         Atom        Fractional coordinates of atoms  x
            x                 Number           u          v          w      x
            x---------------------------------------------------------------x
            x  H                 1         0.241900  -0.105883   0.259653   x
            x  H                 2         0.342204   0.312737   0.229848   x
            x  H                 3         0.500000   0.119897   0.750000   x
            x  H                 4         0.500000   0.296649   0.750000   x
            x  H                 5         0.758100  -0.105883   0.240347   x
            x  H                 6         0.657796   0.312737   0.270152   x
            x  H                 7         0.741900   0.394117   0.259653   x
            x  H                 8         0.842204   0.812737   0.229848   x
            x  H                 9         0.000000   0.619897   0.750000   x
            x  H                10         0.000000   0.796649   0.750000   x
            x  H                11         0.258100   0.394117   0.240347   x
            x  H                12         0.157796   0.812737   0.270152   x
            x  H                13         0.258100   0.605883   0.740347   x
            x  H                14         0.157796   0.187263   0.770152   x
            x  H                15         0.000000   0.380103   0.250000   x
            x  H                16         0.000000   0.203351   0.250000   x
            x  H                17         0.741900   0.605883   0.759653   x
            x  H                18         0.842204   0.187263   0.729848   x
            x  H                19         0.758100   1.105883   0.740347   x
            x  H                20         0.657796   0.687263   0.770152   x
            x  H                21         0.500000   0.880103   0.250000   x
            x  H                22         0.500000   0.703351   0.250000   x
            x  H                23         0.241900   1.105883   0.759653   x
            x  H                24         0.342204   0.687263   0.729848   x
            xxxxxxxxxxxxxxxxxxxxxxxxxxxxxxxxxxxxxxxxxxxxxxxxxxxxxxxxxxxxxxxxx


------------------------------------------------------------------------ <-- SCF
SCF loop      Energy                           Energy gain       Timer   <-- SCF
                                               per atom          (sec)   <-- SCF
------------------------------------------------------------------------ <-- SCF
Initial  -3.52969933E+002                                        215.08  <-- SCF
      1  -3.70129566E+002                    7.14984708E-001     220.34  <-- SCF
      2  -3.70216152E+002                    3.60775450E-003     226.56  <-- SCF
      3  -3.68313463E+002                   -7.92786927E-002     232.78  <-- SCF
      4  -3.68249894E+002                   -2.64873134E-003     239.02  <-- SCF
      5  -3.68251154E+002                    5.25011326E-005     245.25  <-- SCF
      6  -3.68251310E+002                    6.51256305E-006     251.48  <-- SCF
      7  -3.68251311E+002                    2.12508318E-008     257.70  <-- SCF
      8  -3.68251311E+002                    1.45549105E-008     263.93  <-- SCF
      9  -3.68251311E+002                    3.83234906E-010     269.90  <-- SCF
     10  -3.68251311E+002                    2.05936321E-011     274.26  <-- SCF
     11  -3.68251311E+002                    4.97469647E-013     278.63  <-- SCF
     12  -3.68251311E+002                    1.40983301E-013     282.98  <-- SCF
------------------------------------------------------------------------ <-- SCF
 
Final energy =  -368.2513110521     eV
(energy not corrected for finite basis set)
 

 ******************************** Symmetrised Forces ********************************
 *                                                                                  *
 *                           Cartesian components (eV/A)                            *
 * -------------------------------------------------------------------------------- *
 *                         x                    y                    z              *
 *                                                                                  *
 * H               1      4.04850              2.08517             -0.19570         *
 * H               2      4.32384             -2.21207             -0.31113         *
 * H               3     -0.00000             -5.15066             -0.00000         *
 * H               4     -0.00000              4.90472             -0.00000         *
 * H               5     -4.04850              2.08517              0.19570         *
 * H               6     -4.32384             -2.21207              0.31113         *
 * H               7      4.04850              2.08517             -0.19570         *
 * H               8      4.32384             -2.21207             -0.31113         *
 * H               9     -0.00000             -5.15066             -0.00000         *
 * H              10     -0.00000              4.90472             -0.00000         *
 * H              11     -4.04850              2.08517              0.19570         *
 * H              12     -4.32384             -2.21207              0.31113         *
 * H              13     -4.04850             -2.08517              0.19570         *
 * H              14     -4.32384              2.21207              0.31113         *
 * H              15     -0.00000              5.15066             -0.00000         *
 * H              16     -0.00000             -4.90472             -0.00000         *
 * H              17      4.04850             -2.08517             -0.19570         *
 * H              18      4.32384              2.21207             -0.31113         *
 * H              19     -4.04850             -2.08517              0.19570         *
 * H              20     -4.32384              2.21207              0.31113         *
 * H              21     -0.00000              5.15066             -0.00000         *
 * H              22     -0.00000             -4.90472             -0.00000         *
 * H              23      4.04850             -2.08517             -0.19570         *
 * H              24      4.32384              2.21207             -0.31113         *
 *                                                                                  *
 ************************************************************************************

 *********** Symmetrised Stress Tensor ***********
 *                                               *
 *          Cartesian components (GPa)           *
 * --------------------------------------------- *
 *             x             y             z     *
 *                                               *
 *  x    -86.934597      0.000000      2.852191  *
 *  y      0.000000    -84.013146      0.000000  *
 *  z      2.852191      0.000000    -44.289284  *
 *                                               *
 *  Pressure:   71.7457                          *
 *                                               *
 *************************************************
  
 +------------+-------------+-------------+-----------------+ <-- min LBFGS
 |    Step    |   lambda    |   F.delta'  |    enthalpy     | <-- min LBFGS
 +------------+-------------+-------------+-----------------+ <-- min LBFGS
 |  previous  |    0.000000 |    0.457487 |     -343.421616 | <-- min LBFGS
 | trial step |    0.928657 |   -2.643292 |     -340.740675 | <-- min LBFGS
 +------------+-------------+-------------+-----------------+ <-- min LBFGS
  

--------------------------------------------------------------------------------
 LBFGS: improving iteration         2 with line minimization (lambda=  0.137013)
--------------------------------------------------------------------------------

                           -------------------------------
                                      Unit Cell
                           -------------------------------
        Real Lattice(A)              Reciprocal Lattice(1/A)
     6.0307309     0.0000000    -0.0062789        1.043250991   0.000000000   1.334726047
     0.0000000     3.4630377     0.0000000        0.000000000   1.814356613   0.000000000
    -4.0114330     0.0000000     3.1354235        0.002089194   0.000000000   2.006607997

                       Lattice parameters(A)       Cell Angles
                    a =      6.030734          alpha =   90.000000
                    b =      3.463038          beta  =  142.047695
                    c =      5.091412          gamma =   90.000000

                Current cell volume =            65.394993 A**3

                           -------------------------------
                                     Cell Contents
                           -------------------------------

            xxxxxxxxxxxxxxxxxxxxxxxxxxxxxxxxxxxxxxxxxxxxxxxxxxxxxxxxxxxxxxxxx
            x  Element         Atom        Fractional coordinates of atoms  x
            x                 Number           u          v          w      x
            x---------------------------------------------------------------x
            x  H                 1         0.250892  -0.096989   0.258417   x
            x  H                 2         0.351289   0.304039   0.228893   x
            x  H                 3         0.500000   0.100613   0.750000   x
            x  H                 4         0.500000   0.316198   0.750000   x
            x  H                 5         0.749108  -0.096989   0.241583   x
            x  H                 6         0.648711   0.304039   0.271107   x
            x  H                 7         0.750892   0.403011   0.258417   x
            x  H                 8         0.851289   0.804039   0.228893   x
            x  H                 9         0.000000   0.600613   0.750000   x
            x  H                10         0.000000   0.816198   0.750000   x
            x  H                11         0.249108   0.403011   0.241583   x
            x  H                12         0.148711   0.804039   0.271107   x
            x  H                13         0.249108   0.596989   0.741583   x
            x  H                14         0.148711   0.195961   0.771107   x
            x  H                15         0.000000   0.399387   0.250000   x
            x  H                16         0.000000   0.183802   0.250000   x
            x  H                17         0.750892   0.596989   0.758417   x
            x  H                18         0.851289   0.195961   0.728893   x
            x  H                19         0.749108   1.096989   0.741583   x
            x  H                20         0.648711   0.695961   0.771107   x
            x  H                21         0.500000   0.899387   0.250000   x
            x  H                22         0.500000   0.683802   0.250000   x
            x  H                23         0.250892   1.096989   0.758417   x
            x  H                24         0.351289   0.695961   0.728893   x
            xxxxxxxxxxxxxxxxxxxxxxxxxxxxxxxxxxxxxxxxxxxxxxxxxxxxxxxxxxxxxxxxx


------------------------------------------------------------------------ <-- SCF
SCF loop      Energy                           Energy gain       Timer   <-- SCF
                                               per atom          (sec)   <-- SCF
------------------------------------------------------------------------ <-- SCF
Initial  -3.55060972E+002                                        287.09  <-- SCF
      1  -3.69600172E+002                    6.05799961E-001     291.55  <-- SCF
      2  -3.69660150E+002                    2.49911600E-003     296.80  <-- SCF
      3  -3.68110843E+002                   -6.45544792E-002     302.05  <-- SCF
      4  -3.68070615E+002                   -1.67614156E-003     307.30  <-- SCF
      5  -3.68070587E+002                   -1.18347701E-006     312.55  <-- SCF
      6  -3.68070602E+002                    6.25728036E-007     317.79  <-- SCF
      7  -3.68070603E+002                    2.56803580E-008     323.05  <-- SCF
      8  -3.68070603E+002                    4.46839724E-009     328.30  <-- SCF
      9  -3.68070603E+002                    6.14364944E-011     331.94  <-- SCF
     10  -3.68070603E+002                    2.91231218E-012     335.62  <-- SCF
     11  -3.68070603E+002                    5.07539883E-013     339.28  <-- SCF
------------------------------------------------------------------------ <-- SCF
 
Final energy =  -368.0706027409     eV
(energy not corrected for finite basis set)
 

 ******************************** Symmetrised Forces ********************************
 *                                                                                  *
 *                           Cartesian components (eV/A)                            *
 * -------------------------------------------------------------------------------- *
 *                         x                    y                    z              *
 *                                                                                  *
 * H               1     -0.29251             -0.15292              0.03143         *
 * H               2     -0.22940              0.11866             -0.00186         *
 * H               3      0.00000              0.24493             -0.00000         *
 * H               4      0.00000             -0.30739             -0.00000         *
 * H               5      0.29251             -0.15292             -0.03143         *
 * H               6      0.22940              0.11866              0.00186         *
 * H               7     -0.29251             -0.15292              0.03143         *
 * H               8     -0.22940              0.11866             -0.00186         *
 * H               9     -0.00000              0.24493              0.00000         *
 * H              10      0.00000             -0.30739              0.00000         *
 * H              11      0.29251             -0.15292             -0.03143         *
 * H              12      0.22940              0.11866              0.00186         *
 * H              13      0.29251              0.15292             -0.03143         *
 * H              14      0.22940             -0.11866              0.00186         *
 * H              15      0.00000             -0.24493              0.00000         *
 * H              16      0.00000              0.30739              0.00000         *
 * H              17     -0.29251              0.15292              0.03143         *
 * H              18     -0.22940             -0.11866             -0.00186         *
 * H              19      0.29251              0.15292             -0.03143         *
 * H              20      0.22940             -0.11866              0.00186         *
 * H              21      0.00000             -0.24493              0.00000         *
 * H              22      0.00000              0.30739              0.00000         *
 * H              23     -0.29251              0.15292              0.03143         *
 * H              24     -0.22940             -0.11866             -0.00186         *
 *                                                                                  *
 ************************************************************************************

 *********** Symmetrised Stress Tensor ***********
 *                                               *
 *          Cartesian components (GPa)           *
 * --------------------------------------------- *
 *             x             y             z     *
 *                                               *
 *  x    -59.795659      0.000000     -0.174771  *
 *  y      0.000000    -60.356988      0.000000  *
 *  z     -0.174771      0.000000    -63.780341  *
 *                                               *
 *  Pressure:   61.3110                          *
 *                                               *
 *************************************************
  
 +------------+-------------+-------------+-----------------+ <-- min LBFGS
 |    Step    |   lambda    |   F.delta'  |    enthalpy     | <-- min LBFGS
 +------------+-------------+-------------+-----------------+ <-- min LBFGS
 |  previous  |    0.000000 |    0.457487 |     -343.421616 | <-- min LBFGS
 | trial step |    0.928657 |   -2.643292 |     -340.740675 | <-- min LBFGS
 |  line step |    0.137013 |    0.188425 |     -343.580799 | <-- min LBFGS
 +------------+-------------+-------------+-----------------+ <-- min LBFGS
  

--------------------------------------------------------------------------------
 LBFGS: improving iteration         2 with quad minimization (lambda=  0.205027)
--------------------------------------------------------------------------------

                           -------------------------------
                                      Unit Cell
                           -------------------------------
        Real Lattice(A)              Reciprocal Lattice(1/A)
     6.0501085     0.0000000    -0.0061245        1.039870517   0.000000000   1.329756810
     0.0000000     3.4743386     0.0000000        0.000000000   1.808455061   0.000000000
    -4.0242301     0.0000000     3.1469500        0.002023775   0.000000000   1.999183160

                       Lattice parameters(A)       Cell Angles
                    a =      6.050112          alpha =   90.000000
                    b =      3.474339          beta  =  142.032575
                    c =      5.108593          gamma =   90.000000

                Current cell volume =            66.063654 A**3

                           -------------------------------
                                     Cell Contents
                           -------------------------------

            xxxxxxxxxxxxxxxxxxxxxxxxxxxxxxxxxxxxxxxxxxxxxxxxxxxxxxxxxxxxxxxxx
            x  Element         Atom        Fractional coordinates of atoms  x
            x                 Number           u          v          w      x
            x---------------------------------------------------------------x
            x  H                 1         0.250119  -0.097753   0.258524   x
            x  H                 2         0.350509   0.304786   0.228975   x
            x  H                 3         0.500000   0.102270   0.750000   x
            x  H                 4         0.500000   0.314519   0.750000   x
            x  H                 5         0.749881  -0.097753   0.241476   x
            x  H                 6         0.649491   0.304786   0.271025   x
            x  H                 7         0.750119   0.402247   0.258524   x
            x  H                 8         0.850509   0.804786   0.228975   x
            x  H                 9         0.000000   0.602270   0.750000   x
            x  H                10         0.000000   0.814519   0.750000   x
            x  H                11         0.249881   0.402247   0.241476   x
            x  H                12         0.149491   0.804786   0.271025   x
            x  H                13         0.249881   0.597753   0.741476   x
            x  H                14         0.149491   0.195214   0.771025   x
            x  H                15         0.000000   0.397730   0.250000   x
            x  H                16         0.000000   0.185481   0.250000   x
            x  H                17         0.750119   0.597753   0.758524   x
            x  H                18         0.850509   0.195214   0.728975   x
            x  H                19         0.749881   1.097753   0.741476   x
            x  H                20         0.649491   0.695214   0.771025   x
            x  H                21         0.500000   0.897730   0.250000   x
            x  H                22         0.500000   0.685481   0.250000   x
            x  H                23         0.250119   1.097753   0.758524   x
            x  H                24         0.350509   0.695214   0.728975   x
            xxxxxxxxxxxxxxxxxxxxxxxxxxxxxxxxxxxxxxxxxxxxxxxxxxxxxxxxxxxxxxxxx


------------------------------------------------------------------------ <-- SCF
SCF loop      Energy                           Energy gain       Timer   <-- SCF
                                               per atom          (sec)   <-- SCF
------------------------------------------------------------------------ <-- SCF
Initial  -3.68262664E+002                                        342.99  <-- SCF
      1  -3.68358257E+002                    3.98305609E-003     347.47  <-- SCF
      2  -3.68358714E+002                    1.90515407E-005     352.75  <-- SCF
      3  -3.68348754E+002                   -4.15019432E-004     358.03  <-- SCF
      4  -3.68348446E+002                   -1.28218324E-005     363.30  <-- SCF
      5  -3.68348447E+002                    4.27270960E-008     368.58  <-- SCF
      6  -3.68348447E+002                    8.18151672E-009     373.86  <-- SCF
      7  -3.68348447E+002                    1.68660337E-010     378.94  <-- SCF
      8  -3.68348447E+002                    4.13785988E-011     382.61  <-- SCF
      9  -3.68348447E+002                    6.32410806E-013     386.27  <-- SCF
     10  -3.68348447E+002                   -1.79250197E-013     389.95  <-- SCF
------------------------------------------------------------------------ <-- SCF
 
Final energy =  -368.3484472017     eV
(energy not corrected for finite basis set)
 

 ******************************** Symmetrised Forces ********************************
 *                                                                                  *
 *                           Cartesian components (eV/A)                            *
 * -------------------------------------------------------------------------------- *
 *                         x                    y                    z              *
 *                                                                                  *
 * H               1     -0.06778             -0.03658              0.02227         *
 * H               2      0.02125             -0.00963             -0.02140         *
 * H               3      0.00000             -0.05022              0.00000         *
 * H               4      0.00000             -0.03569              0.00000         *
 * H               5      0.06778             -0.03658             -0.02227         *
 * H               6     -0.02125             -0.00963              0.02140         *
 * H               7     -0.06778             -0.03658              0.02227         *
 * H               8      0.02125             -0.00963             -0.02140         *
 * H               9      0.00000             -0.05022              0.00000         *
 * H              10      0.00000             -0.03569              0.00000         *
 * H              11      0.06778             -0.03658             -0.02227         *
 * H              12     -0.02125             -0.00963              0.02140         *
 * H              13      0.06778              0.03658             -0.02227         *
 * H              14     -0.02125              0.00963              0.02140         *
 * H              15      0.00000              0.05022              0.00000         *
 * H              16      0.00000              0.03569              0.00000         *
 * H              17     -0.06778              0.03658              0.02227         *
 * H              18      0.02125              0.00963             -0.02140         *
 * H              19      0.06778              0.03658             -0.02227         *
 * H              20     -0.02125              0.00963              0.02140         *
 * H              21      0.00000              0.05022              0.00000         *
 * H              22      0.00000              0.03569              0.00000         *
 * H              23     -0.06778              0.03658              0.02227         *
 * H              24      0.02125              0.00963             -0.02140         *
 *                                                                                  *
 ************************************************************************************

 *********** Symmetrised Stress Tensor ***********
 *                                               *
 *          Cartesian components (GPa)           *
 * --------------------------------------------- *
 *             x             y             z     *
 *                                               *
 *  x    -61.280361      0.000000      0.050468  *
 *  y      0.000000    -61.593800      0.000000  *
 *  z      0.050468      0.000000    -61.928378  *
 *                                               *
 *  Pressure:   61.6008                          *
 *                                               *
 *************************************************
  
 +------------+-------------+-------------+-----------------+ <-- min LBFGS
 |    Step    |   lambda    |   F.delta'  |    enthalpy     | <-- min LBFGS
 +------------+-------------+-------------+-----------------+ <-- min LBFGS
 |  previous  |    0.000000 |    0.457487 |     -343.421616 | <-- min LBFGS
 | trial step |    0.928657 |   -2.643292 |     -340.740675 | <-- min LBFGS
 |  line step |    0.137013 |    0.188425 |     -343.580799 | <-- min LBFGS
 |  quad step |    0.205027 |    0.036938 |     -343.608228 | <-- min LBFGS
 +------------+-------------+-------------+-----------------+ <-- min LBFGS
  
 LBFGS: finished iteration     2 with enthalpy= -3.43608228E+002 eV
  
 +-----------+-----------------+-----------------+------------+-----+ <-- LBFGS
 | Parameter |      value      |    tolerance    |    units   | OK? | <-- LBFGS
 +-----------+-----------------+-----------------+------------+-----+ <-- LBFGS
 |  dE/ion   |   7.775516E-003 |   1.000000E-009 |         eV | No  | <-- LBFGS
 |  |F|max   |   8.017656E-002 |   1.000000E-005 |       eV/A | No  | <-- LBFGS
 |  |dR|max  |   1.759044E-002 |   1.000000E-005 |          A | No  | <-- LBFGS
 |   Smax    |   1.928378E+000 |   1.000000E-005 |        GPa | No  | <-- LBFGS
 +-----------+-----------------+-----------------+------------+-----+ <-- LBFGS
  

================================================================================
 Starting LBFGS iteration          3 ...
================================================================================
  
 +------------+-------------+-------------+-----------------+ <-- min LBFGS
 |    Step    |   lambda    |   F.delta'  |    enthalpy     | <-- min LBFGS
 +------------+-------------+-------------+-----------------+ <-- min LBFGS
 |  previous  |    0.000000 |    0.062356 |     -343.608228 | <-- min LBFGS
 +------------+-------------+-------------+-----------------+ <-- min LBFGS
  

--------------------------------------------------------------------------------
 LBFGS: starting iteration         3 with trial guess (lambda=  1.000000)
--------------------------------------------------------------------------------

                           -------------------------------
                                      Unit Cell
                           -------------------------------
        Real Lattice(A)              Reciprocal Lattice(1/A)
     6.0699314     0.0000000    -0.0063765        1.036524539   0.000000000   1.324788693
     0.0000000     3.4865551     0.0000000        0.000000000   1.802118476   0.000000000
    -4.0375338     0.0000000     3.1589965        0.002092246   0.000000000   1.991655514

                       Lattice parameters(A)       Cell Angles
                    a =      6.069935          alpha =   90.000000
                    b =      3.486555          beta  =  142.020299
                    c =      5.126494          gamma =   90.000000

                Current cell volume =            66.764555 A**3

                           -------------------------------
                                     Cell Contents
                           -------------------------------

            xxxxxxxxxxxxxxxxxxxxxxxxxxxxxxxxxxxxxxxxxxxxxxxxxxxxxxxxxxxxxxxxx
            x  Element         Atom        Fractional coordinates of atoms  x
            x                 Number           u          v          w      x
            x---------------------------------------------------------------x
            x  H                 1         0.249339  -0.099002   0.259349   x
            x  H                 2         0.350363   0.304491   0.228186   x
            x  H                 3         0.500000   0.100651   0.750000   x
            x  H                 4         0.500000   0.313268   0.750000   x
            x  H                 5         0.750661  -0.099002   0.240651   x
            x  H                 6         0.649637   0.304491   0.271814   x
            x  H                 7         0.749339   0.400998   0.259349   x
            x  H                 8         0.850363   0.804491   0.228186   x
            x  H                 9         0.000000   0.600651   0.750000   x
            x  H                10         0.000000   0.813268   0.750000   x
            x  H                11         0.250661   0.400998   0.240651   x
            x  H                12         0.149637   0.804491   0.271814   x
            x  H                13         0.250661   0.599002   0.740651   x
            x  H                14         0.149637   0.195509   0.771814   x
            x  H                15         0.000000   0.399349   0.250000   x
            x  H                16         0.000000   0.186732   0.250000   x
            x  H                17         0.749339   0.599002   0.759349   x
            x  H                18         0.850363   0.195509   0.728186   x
            x  H                19         0.750661   1.099002   0.740651   x
            x  H                20         0.649637   0.695509   0.771814   x
            x  H                21         0.500000   0.899349   0.250000   x
            x  H                22         0.500000   0.686732   0.250000   x
            x  H                23         0.249339   1.099002   0.759349   x
[...]
      H    18      S                    1.046
      H    19      S                    0.953
      H    20      S                    1.045
      H    21      S                    1.039
      H    22      S                    0.963
      H    23      S                    0.955
      H    24      S                    1.046
  -------------------------------------------
                           Total:      24.000
  -------------------------------------------

     Atomic Populations (Mulliken)
     -----------------------------
Species          Ion     s      p      d      f     Total  Charge (e)
=====================================================================
  H               1     0.95   0.00   0.00   0.00   0.95     0.05
  H               2     1.05   0.00   0.00   0.00   1.05    -0.05
  H               3     1.04   0.00   0.00   0.00   1.04    -0.04
  H               4     0.96   0.00   0.00   0.00   0.96     0.04
  H               5     0.95   0.00   0.00   0.00   0.95     0.05
  H               6     1.05   0.00   0.00   0.00   1.05    -0.05
  H               7     0.95   0.00   0.00   0.00   0.95     0.05
  H               8     1.05   0.00   0.00   0.00   1.05    -0.05
  H               9     1.04   0.00   0.00   0.00   1.04    -0.04
  H              10     0.96   0.00   0.00   0.00   0.96     0.04
  H              11     0.95   0.00   0.00   0.00   0.95     0.05
  H              12     1.05   0.00   0.00   0.00   1.05    -0.05
  H              13     0.95   0.00   0.00   0.00   0.95     0.05
  H              14     1.05   0.00   0.00   0.00   1.05    -0.05
  H              15     1.04   0.00   0.00   0.00   1.04    -0.04
  H              16     0.96   0.00   0.00   0.00   0.96     0.04
  H              17     0.95   0.00   0.00   0.00   0.95     0.05
  H              18     1.05   0.00   0.00   0.00   1.05    -0.05
  H              19     0.95   0.00   0.00   0.00   0.95     0.05
  H              20     1.05   0.00   0.00   0.00   1.05    -0.05
  H              21     1.04   0.00   0.00   0.00   1.04    -0.04
  H              22     0.96   0.00   0.00   0.00   0.96     0.04
  H              23     0.95   0.00   0.00   0.00   0.95     0.05
  H              24     1.05   0.00   0.00   0.00   1.05    -0.05
=====================================================================

                 Bond                   Population      Length (A)
======================================================================
              H 3  -- H 4                    1.43        0.73587
              H 21 -- H 22                   1.43        0.73587
              H 9  -- H 10                   1.43        0.73587
              H 15 -- H 16                   1.43        0.73587
              H 2  -- H 11                   1.42        0.73902
              H 6  -- H 7                    1.42        0.73902
              H 5  -- H 8                    1.42        0.73902
              H 13 -- H 24                   1.42        0.73902
              H 17 -- H 20                   1.42        0.73902
              H 18 -- H 19                   1.42        0.73902
              H 1  -- H 12                   1.42        0.73902
              H 14 -- H 23                   1.42        0.73902
              H 1  -- H 21                  -0.01        1.57763
              H 3  -- H 23                  -0.01        1.57763
              H 5  -- H 21                  -0.01        1.57763
              H 7  -- H 15                  -0.01        1.57763
              H 9  -- H 17                  -0.01        1.57763
              H 3  -- H 19                  -0.01        1.57763
              H 11 -- H 15                  -0.01        1.57763
              H 9  -- H 13                  -0.01        1.57763
              H 14 -- H 18                  -0.05        1.57866
              H 20 -- H 24                  -0.05        1.57866
              H 8  -- H 12                  -0.05        1.57866
              H 2  -- H 6                   -0.05        1.57866
              H 4  -- H 24                  -0.08        1.58368
              H 4  -- H 20                  -0.08        1.58368
              H 12 -- H 16                  -0.08        1.58368
              H 8  -- H 16                  -0.08        1.58368
              H 10 -- H 14                  -0.08        1.58368
              H 10 -- H 18                  -0.08        1.58368
              H 6  -- H 22                  -0.08        1.58368
              H 2  -- H 22                  -0.08        1.58368
              H 9  -- H 14                  -0.13        1.58971
              H 9  -- H 18                  -0.13        1.58971
              H 6  -- H 21                  -0.13        1.58971
              H 2  -- H 21                  -0.13        1.58971
              H 12 -- H 15                  -0.13        1.58971
              H 8  -- H 15                  -0.13        1.58971
              H 3  -- H 24                  -0.13        1.58971
              H 3  -- H 20                  -0.13        1.58971
              H 1  -- H 2                   -0.12        1.62399
              H 5  -- H 6                   -0.12        1.62399
              H 7  -- H 8                   -0.12        1.62399
              H 11 -- H 12                  -0.12        1.62399
              H 17 -- H 18                  -0.12        1.62399
              H 13 -- H 14                  -0.12        1.62399
              H 23 -- H 24                  -0.12        1.62399
              H 19 -- H 20                  -0.12        1.62399
              H 2  -- H 14                  -0.04        1.63852
              H 6  -- H 18                  -0.04        1.63852
              H 12 -- H 24                  -0.04        1.63852
              H 8  -- H 20                  -0.04        1.63852
              H 4  -- H 23                  -0.07        1.72479
              H 1  -- H 22                  -0.07        1.72479
              H 10 -- H 17                  -0.07        1.72479
              H 4  -- H 19                  -0.07        1.72479
              H 10 -- H 13                  -0.07        1.72479
              H 7  -- H 16                  -0.07        1.72479
              H 11 -- H 16                  -0.07        1.72479
              H 5  -- H 22                  -0.07        1.72479
              H 16 -- H 23                  -0.04        1.73854
              H 1  -- H 10                  -0.04        1.73854
              H 16 -- H 19                  -0.04        1.73854
              H 17 -- H 22                  -0.04        1.73854
              H 4  -- H 7                   -0.04        1.73854
              H 13 -- H 22                  -0.04        1.73854
              H 4  -- H 11                  -0.04        1.73854
              H 5  -- H 10                  -0.04        1.73854
              H 1  -- H 11                  -0.14        1.74972
              H 5  -- H 7                   -0.14        1.74972
              H 13 -- H 23                  -0.14        1.74972
              H 17 -- H 19                  -0.14        1.74972
              H 9  -- H 11                  -0.03        1.76086
              H 7  -- H 9                   -0.03        1.76086
              H 3  -- H 5                   -0.03        1.76086
              H 13 -- H 15                  -0.03        1.76086
              H 15 -- H 17                  -0.03        1.76086
              H 1  -- H 3                   -0.03        1.76086
              H 19 -- H 21                  -0.03        1.76086
              H 21 -- H 23                  -0.03        1.76086
              H 6  -- H 23                  -0.11        1.78225
              H 2  -- H 19                  -0.11        1.78225
              H 12 -- H 17                  -0.11        1.78225
              H 8  -- H 13                  -0.11        1.78225
              H 7  -- H 14                  -0.11        1.78225
              H 11 -- H 18                  -0.11        1.78225
              H 1  -- H 20                  -0.11        1.78225
              H 5  -- H 24                  -0.11        1.78225
              H 5  -- H 16                  -0.10        1.78869
              H 11 -- H 22                  -0.10        1.78869
              H 7  -- H 22                  -0.10        1.78869
              H 4  -- H 13                  -0.10        1.78869
              H 4  -- H 17                  -0.10        1.78869
              H 1  -- H 16                  -0.10        1.78869
              H 10 -- H 19                  -0.10        1.78869
              H 10 -- H 23                  -0.10        1.78869
              H 15 -- H 24                  -0.07        1.85789
              H 15 -- H 20                  -0.07        1.85789
              H 18 -- H 21                  -0.07        1.85789
              H 14 -- H 21                  -0.07        1.85789
              H 6  -- H 9                   -0.07        1.85789
              H 2  -- H 9                   -0.07        1.85789
              H 3  -- H 12                  -0.07        1.85789
              H 3  -- H 8                   -0.07        1.85789
              H 3  -- H 16                  -0.14        1.91395
              H 4  -- H 15                  -0.14        1.91395
              H 10 -- H 21                  -0.14        1.91395
              H 9  -- H 22                  -0.14        1.91395
              H 2  -- H 18                  -0.12        1.91526
              H 6  -- H 14                  -0.12        1.91526
              H 12 -- H 20                  -0.12        1.91526
              H 8  -- H 24                  -0.12        1.91526
              H 10 -- H 22                  -0.12        1.91796
              H 4  -- H 16                  -0.12        1.91796
              H 7  -- H 24                  -0.06        1.97673
              H 5  -- H 14                  -0.06        1.97673
              H 11 -- H 20                  -0.06        1.97673
              H 1  -- H 18                  -0.06        1.97673
              H 12 -- H 19                  -0.06        1.97673
              H 2  -- H 17                  -0.06        1.97673
              H 6  -- H 13                  -0.06        1.97673
              H 8  -- H 23                  -0.06        1.97673
              H 11 -- H 17                  -0.07        1.99829
              H 7  -- H 13                  -0.07        1.99829
              H 5  -- H 23                  -0.07        1.99829
              H 1  -- H 19                  -0.07        1.99829
              H 15 -- H 23                  -0.07        2.00864
              H 15 -- H 19                  -0.07        2.00864
              H 3  -- H 7                   -0.07        2.00864
              H 3  -- H 11                  -0.07        2.00864
              H 17 -- H 21                  -0.07        2.00864
              H 13 -- H 21                  -0.07        2.00864
              H 1  -- H 9                   -0.07        2.00864
              H 5  -- H 9                   -0.07        2.00864
              H 4  -- H 6                   -0.05        2.04312
              H 10 -- H 12                  -0.05        2.04312
              H 8  -- H 10                  -0.05        2.04312
              H 2  -- H 4                   -0.05        2.04312
              H 22 -- H 24                  -0.05        2.04312
              H 20 -- H 22                  -0.05        2.04312
              H 16 -- H 18                  -0.05        2.04312
              H 14 -- H 16                  -0.05        2.04312
              H 11 -- H 14                  -0.07        2.06826
              H 7  -- H 18                  -0.07        2.06826
              H 5  -- H 20                  -0.07        2.06826
              H 6  -- H 19                  -0.07        2.06826
              H 12 -- H 13                  -0.07        2.06826
              H 8  -- H 17                  -0.07        2.06826
              H 1  -- H 24                  -0.07        2.06826
              H 2  -- H 23                  -0.07        2.06826
              H 7  -- H 23                  -0.14        2.13811
              H 11 -- H 19                  -0.14        2.13811
              H 1  -- H 17                  -0.14        2.13811
              H 5  -- H 13                  -0.14        2.13811
              H 4  -- H 5                   -0.07        2.15772
              H 10 -- H 11                  -0.07        2.15772
              H 7  -- H 10                  -0.07        2.15772
              H 1  -- H 4                   -0.07        2.15772
              H 16 -- H 17                  -0.07        2.15772
              H 13 -- H 16                  -0.07        2.15772
              H 19 -- H 22                  -0.07        2.15772
              H 22 -- H 23                  -0.07        2.15772
              H 3  -- H 6                   -0.07        2.16924
              H 2  -- H 3                   -0.07        2.16924
              H 9  -- H 12                  -0.07        2.16924
              H 8  -- H 9                   -0.07        2.16924
              H 15 -- H 18                  -0.07        2.16924
              H 14 -- H 15                  -0.07        2.16924
              H 20 -- H 21                  -0.07        2.16924
              H 21 -- H 24                  -0.07        2.16924
              H 3  -- H 15                  -0.16        2.17505
              H 9  -- H 21                  -0.16        2.17505
              H 12 -- H 18                  -0.05        2.21677
              H 8  -- H 14                  -0.05        2.21677
              H 6  -- H 24                  -0.05        2.21677
              H 2  -- H 20                  -0.05        2.21677
              H 9  -- H 19                  -0.15        2.23996
              H 9  -- H 23                  -0.15        2.23996
              H 11 -- H 21                  -0.15        2.23996
              H 7  -- H 21                  -0.15        2.23996
              H 3  -- H 13                  -0.15        2.23996
              H 3  -- H 17                  -0.15        2.23996
              H 5  -- H 15                  -0.15        2.23996
              H 1  -- H 15                  -0.15        2.23996
              H 14 -- H 19                  -0.05        2.26343
              H 13 -- H 20                  -0.05        2.26343
              H 17 -- H 24                  -0.05        2.26343
              H 5  -- H 12                  -0.05        2.26343
              H 6  -- H 11                  -0.05        2.26343
              H 2  -- H 7                   -0.05        2.26343
              H 18 -- H 23                  -0.05        2.26343
              H 1  -- H 8                   -0.05        2.26343
              H 8  -- H 21                  -0.07        2.26946
              H 6  -- H 15                  -0.07        2.26946
              H 2  -- H 15                  -0.07        2.26946
              H 12 -- H 21                  -0.07        2.26946
              H 9  -- H 24                  -0.07        2.26946
              H 9  -- H 20                  -0.07        2.26946
              H 3  -- H 18                  -0.07        2.26946
              H 3  -- H 14                  -0.07        2.26946
              H 8  -- H 22                  -0.10        2.27059
              H 6  -- H 16                  -0.10        2.27059
              H 2  -- H 16                  -0.10        2.27059
              H 12 -- H 22                  -0.10        2.27059
              H 4  -- H 18                  -0.10        2.27059
              H 10 -- H 24                  -0.10        2.27059
              H 10 -- H 20                  -0.10        2.27059
              H 4  -- H 14                  -0.10        2.27059
              H 6  -- H 8                   -0.15        2.27117
              H 2  -- H 12                  -0.15        2.27117
              H 18 -- H 20                  -0.15        2.27117
              H 14 -- H 24                  -0.15        2.27117
              H 1  -- H 14                  -0.00        2.32325
              H 7  -- H 20                  -0.00        2.32325
              H 5  -- H 18                  -0.00        2.32325
              H 11 -- H 24                  -0.00        2.32325
              H 12 -- H 23                  -0.00        2.32325
              H 8  -- H 19                  -0.00        2.32325
              H 6  -- H 17                  -0.00        2.32325
              H 2  -- H 13                  -0.00        2.32325
              H 18 -- H 22                  -0.09        2.33220
              H 14 -- H 22                  -0.09        2.33220
              H 16 -- H 24                  -0.09        2.33220
              H 16 -- H 20                  -0.09        2.33220
              H 6  -- H 10                  -0.09        2.33220
              H 2  -- H 10                  -0.09        2.33220
              H 4  -- H 12                  -0.09        2.33220
              H 4  -- H 8                   -0.09        2.33220
              H 7  -- H 19                  -0.05        2.63875
              H 5  -- H 17                  -0.05        2.63875
              H 11 -- H 23                  -0.05        2.63875
              H 1  -- H 13                  -0.05        2.63875
              H 9  -- H 15                   0.01        2.64737
              H 3  -- H 21                   0.01        2.64737
              H 5  -- H 19                  -0.00        2.66692
              H 1  -- H 23                  -0.00        2.66692
              H 11 -- H 13                  -0.00        2.66692
              H 7  -- H 17                  -0.00        2.66692
              H 1  -- H 6                    0.00        2.75736
              H 20 -- H 23                   0.00        2.75736
              H 14 -- H 17                   0.00        2.75736
              H 2  -- H 5                    0.00        2.75736
              H 13 -- H 18                   0.00        2.75736
              H 19 -- H 24                   0.00        2.75736
              H 7  -- H 12                   0.00        2.75736
              H 8  -- H 11                   0.00        2.75736
              H 13 -- H 17                  -0.02        2.90161
              H 7  -- H 11                  -0.02        2.90161
              H 19 -- H 23                  -0.02        2.90161
              H 1  -- H 5                   -0.02        2.90161
              H 10 -- H 16                   0.01        2.90700
              H 4  -- H 22                   0.01        2.90700
              H 12 -- H 14                   0.02        2.91357
              H 6  -- H 20                   0.02        2.91357
              H 8  -- H 18                   0.02        2.91357
              H 2  -- H 24                   0.02        2.91357
              H 10 -- H 15                   0.02        2.91687
              H 9  -- H 16                   0.02        2.91687
              H 4  -- H 21                   0.02        2.91687
              H 3  -- H 22                   0.02        2.91687
======================================================================


Writing analysis data to C2c.castep_bin

Writing model to C2c.check
 
 A BibTeX formatted list of references used in this run has been written to 
 C2c.bib
 
Initialisation time =      1.60 s
Calculation time    =   1722.28 s
Finalisation time   =      5.74 s
Total time          =   1729.62 s
Peak Memory Use     = 609920 kB
  
Overall parallel efficiency rating: Excellent (98%)                             
  
Data was distributed by:-
k-point (16-way); efficiency rating: Excellent (98%)                            
