 +-------------------------------------------------+
 |                                                 |
 |      CCC   AA    SSS  TTTTT  EEEEE  PPPP        |
 |     C     A  A  S       T    E      P   P       |
 |     C     AAAA   SS     T    EEE    PPPP        |
 |     C     A  A     S    T    E      P           |
 |      CCC  A  A  SSS     T    EEEEE  P           |
 |                                                 |
 +-------------------------------------------------+
 |                                                 |
 | Welcome to Academic Release CASTEP version 18.1 |          
 | Ab Initio Total Energy Program                  |
 |                                                 |
 | Authors:                                        |
 | M. Segall, M. Probert, C. Pickard, P. Hasnip,   |
 | S. Clark, K. Refson, J. R. Yates, M. Payne      |
 |                                                 |
 | Contributors:                                   |
 | P. Lindan, P. Haynes, J. White, V. Milman,      |
 | N. Govind, M. Gibson, P. Tulip, V. Cocula,      |
 | B. Montanari, D. Quigley, M. Glover,            |
 | L. Bernasconi, A. Perlov, M. Plummer,           |
 | E. McNellis, J. Meyer, J. Gale, D. Jochym       |
 | J. Aarons, B. Walker, R. Gillen, D. Jones       |
 | T. Green, I. J. Bush, C. J. Armstrong,          |
 | E. J. Higgins, E. L. Brown, M. S. McFly,        |
 | J. Wilkins, B-C. Shih, P. J. P. Byrne           |
 |                                                 |
 | Copyright (c) 2000 - 2017                       |
 |                                                 |
 |     Distributed under the terms of an           |
 |     Agreement between the United Kingdom        |
 |     Car-Parrinello (UKCP) Consortium,           |
 |     Daresbury Laboratory and Accelrys, Inc.     |
 |                                                 |
 | Please cite                                     |
 |                                                 |
 |     "First principles methods using CASTEP"     |
 |                                                 |
 |         Zeitschrift fuer Kristallographie       |
 |           220(5-6) pp. 567-570 (2005)           |
 |                                                 |
 | S. J. Clark, M. D. Segall, C. J. Pickard,       |
 | P. J. Hasnip, M. J. Probert, K. Refson,         |
 | M. C. Payne                                     |
 |                                                 |
 |       in all publications arising from          |
 |              your use of CASTEP                 |
 |                                                 |
 +-------------------------------------------------+


 Compiled for linux_x86_64_gfortran4.8 on Thu, 19 Jul 2018 15:42:32 +0100
 from code version 70483bd0ad64+  Sun, 10 Dec 2017 12:18:29 +0000
 Compiler: GNU Fortran 4.8.5; Optimisation: fast
 MATHLIBS: Intel MKL(2018.0.0) (LAPACK version 3.7.0)
 FFT Lib : mkl
 Fundamental constants values: CODATA 2014

 Run started: Tue, 11 Aug 2020 19:53:08 +0100

 Atomic calculation performed for H: 1s1

 Converged in 41 iterations to an ae energy of -12.488 eV

   ============================================================                
   | Pseudopotential Report - Date of generation 11-08-2020   |                
   ------------------------------------------------------------                
   | Element: H Ionic charge:  1.00 Level of theory: PBE      |                
   | Atomic Solver: Koelling-Harmon                           |                
   |                                                          |                
   |               Reference Electronic Structure             |                
   |         Orbital         Occupation         Energy        |                
   |            1s              1.000           -0.239        |                
   |                                                          |                
   |                 Pseudopotential Definition               |                
   |        Beta     l      e      Rc     scheme   norm       |                
   |         loc     0   -0.239   0.702     qc      1         |                
   |                                                          |                
   | No charge augmentation                                   |                
   | No partial core correction                               |                
   ------------------------------------------------------------                
   | "0|0.7|2|6|8|10L(qc=10)"                                 |                
   ------------------------------------------------------------                
   |      Author: Chris J. Pickard, Cambridge University      |                
   ============================================================                

 Pseudo atomic calculation performed for H 1s1

 Converged in 24 iterations to a total energy of -12.4843 eV

 Calculation parallelised over 16 processes.
 Data is distributed by k-point(16-way)

 ************************************ Title ************************************
 

 ***************************** General Parameters ******************************
  
 output verbosity                               : normal  (1)
 write checkpoint data to                       : C2c.check
 type of calculation                            : geometry optimization
 stress calculation                             : on
 density difference calculation                 : off
 electron localisation func (ELF) calculation   : off
 Hirshfeld analysis                             : off
 unlimited duration calculation
 timing information                             : on
 memory usage estimate                          : on
 write extra output files                       : on
 write final potential to formatted file        : off
 write final density to formatted file          : off
 write structure in CELL formatted file         : on
 write BibTeX reference list                    : on
 write OTFG pseudopotential files               : on
 write electrostatic potential file             : on
 write bands file                               : on
 checkpoint writing                             : both castep_bin and check files
  
 output         length unit                     : A
 output           mass unit                     : amu
 output           time unit                     : ps
 output         charge unit                     : e
 output           spin unit                     : hbar/2
 output         energy unit                     : eV
 output          force unit                     : eV/A
 output       velocity unit                     : A/ps
 output       pressure unit                     : GPa
 output     inv_length unit                     : 1/A
 output      frequency unit                     : cm-1
 output force constant unit                     : eV/A**2
 output         volume unit                     : A**3
 output   IR intensity unit                     : (D/A)**2/amu
 output         dipole unit                     : D
 output         efield unit                     : eV/A/e
 output        entropy unit                     : J/mol/K
  
 wavefunctions paging                           : none
 random number generator seed                   : randomised (195308462)
 data distribution                              : optimal for this architecture
 optimization strategy                          : maximize speed(+++)

 *********************** Exchange-Correlation Parameters ***********************
  
 using functional                               : Perdew Burke Ernzerhof
 relativistic treatment                         : Koelling-Harmon
 DFT+D: Semi-empirical dispersion correction    : off

 ************************* Pseudopotential Parameters **************************
  
 pseudopotential representation                 : reciprocal space
 <beta|phi> representation                      : reciprocal space
 spin-orbit coupling                            : off

 **************************** Basis Set Parameters *****************************
  
 plane wave basis set cut-off                   :  1200.0000   eV
 size of standard grid                          :     2.0000
 size of   fine   gmax                          :    35.4943   1/A
 finite basis set correction                    : automatic
 number of sample energies                      :          3
           sample  spacing                      :     5.0000   eV

 **************************** Electronic Parameters ****************************
  
 number of  electrons                           :  24.00    
 net charge of system                           :  0.000    
 treating system as non-spin-polarized
 number of bands                                :         12

 ********************* Electronic Minimization Parameters **********************
  
 Method: Treating system as non-metallic,
         and number of  SD  steps               :          1
         and number of  CG  steps               :          4
  
 total energy / atom convergence tol.           : 0.1000E-10   eV
 eigen-energy convergence tolerance             : 0.2000E-10   eV
 max force / atom convergence tol.              : ignored
 convergence tolerance window                   :          3   cycles
 max. number of SCF cycles                      :        100
 periodic dipole correction                     : NONE

 ************************** Density Mixing Parameters **************************
  
 density-mixing scheme                          : Broyden
 max. length of mixing history                  :         20
 charge density mixing amplitude                : 0.8000    
 cut-off energy for mixing                      :  1200.       eV

 *********************** Population Analysis Parameters ************************
  
 Population analysis with cutoff                :  3.000       A
 Population analysis output                     : summary and pdos components

 ********************** Geometry Optimization Parameters ***********************
  
 optimization method                            : LBFGS
 max. no. of LBFGS updates                      : unbounded
 variable cell method                           : fixed basis quality
 max. number of steps                           :         60
 estimated bulk modulus                         :  500.0       GPa
 estimated <frequency>                          :  1668.       cm-1
 geom line minimiser                            : on
 with line minimiser tolerance                  :     0.4000
 total energy convergence tolerance             : 0.1000E-08   eV/atom
        max ionic |force| tolerance             : 0.1000E-04   eV/A
 max ionic |displacement| tolerance             : 0.1000E-04   A
   max |stress component| tolerance             : 0.1000E-04   GPa
 convergence tolerance window                   :          2   steps
 backup results every                           :      14400   seconds
 write geom trajectory file                     : on

 *******************************************************************************
  

                           -------------------------------
                                      Unit Cell
                           -------------------------------
        Real Lattice(A)                      Reciprocal Lattice(1/A)
     6.0550438     0.0000000    -0.0100031        1.039855820   0.000000000   1.318305659
     0.0000000     3.4887155     0.0000000        0.000000000   1.801002508   0.000000000
    -4.0294930     0.0000000     3.1783917        0.003272665   0.000000000   1.980993243

                       Lattice parameters(A)       Cell Angles
                    a =      6.055052          alpha =   90.000000
                    b =      3.488715          beta  =  141.828912
                    c =      5.132152          gamma =   90.000000

                       Current cell volume =            67.000757       A**3
                                   density =             0.361049   AMU/A**3
                                           =             0.599536     g/cm^3

                           -------------------------------
                                     Cell Contents
                           -------------------------------
                         Total number of ions in cell =   24
                      Total number of species in cell =    1
                        Max number of any one species =   24

            xxxxxxxxxxxxxxxxxxxxxxxxxxxxxxxxxxxxxxxxxxxxxxxxxxxxxxxxxxxx
            x  Element    Atom        Fractional coordinates of atoms  x
            x            Number           u          v          w      x
            x----------------------------------------------------------x
            x  H            1         0.245083  -0.104114   0.258284   x 
            x  H            2         0.360202   0.302233   0.235503   x 
            x  H            3         0.500000   0.093300   0.750000   x 
            x  H            4         0.500000   0.304228   0.750000   x 
            x  H            5         0.754917  -0.104114   0.241716   x 
            x  H            6         0.639798   0.302233   0.264497   x 
            x  H            7         0.745083   0.395886   0.258284   x 
            x  H            8         0.860202   0.802233   0.235503   x 
            x  H            9         0.000000   0.593300   0.750000   x 
            x  H           10         0.000000   0.804228   0.750000   x 
            x  H           11         0.254917   0.395886   0.241716   x 
            x  H           12         0.139798   0.802233   0.264497   x 
            x  H           13         0.254917   0.604114   0.741716   x 
            x  H           14         0.139798   0.197767   0.764497   x 
            x  H           15         0.000000   0.406700   0.250000   x 
            x  H           16         0.000000   0.195772   0.250000   x 
            x  H           17         0.745083   0.604114   0.758284   x 
            x  H           18         0.860202   0.197767   0.735503   x 
            x  H           19         0.754917   1.104114   0.741716   x 
            x  H           20         0.639798   0.697767   0.764497   x 
            x  H           21         0.500000   0.906700   0.250000   x 
            x  H           22         0.500000   0.695772   0.250000   x 
            x  H           23         0.245083   1.104114   0.758284   x 
            x  H           24         0.360202   0.697767   0.735503   x 
            xxxxxxxxxxxxxxxxxxxxxxxxxxxxxxxxxxxxxxxxxxxxxxxxxxxxxxxxxxxx


                         No user defined ionic velocities

                           -------------------------------
                                   Details of Species
                           -------------------------------

                               Mass of species in AMU
                                    H    1.0079400

                          Electric Quadrupole Moment (Barn)
                                    H    0.0028600 Isotope  2

                          Files used for pseudopotentials:
                                    H 0|0.7|2|6|8|10L(qc=10)

                           -------------------------------
                              k-Points For BZ Sampling
                           -------------------------------
                       MP grid size for SCF calculation is 10 10 10
                            with an offset of   0.000  0.000  0.000
                       Number of kpoints used =           250

                           -------------------------------
                               Symmetry and Constraints
                           -------------------------------

                      Cell is a supercell containing 2 primitive cells
                      Maximum deviation from symmetry = 0.101883E-13     ANG

                      Number of symmetry operations   =           8
                      Number of ionic constraints     =           3
                      Point group of crystal =     5: C2h, 2/m, 2/m
                      Space group of crystal =    15: C2/c, -C 2yc

             Set iprint > 1 for details on symmetry rotations/translations

                         Centre of mass is constrained
             Set iprint > 1 for details of linear ionic constraints

                         Number of cell constraints= 2
                         Cell constraints are:  1 2 3 0 5 0

                         External pressure/stress (GPa)
                         30.00000   0.00000   0.00000
                                   30.00000   0.00000
                                             30.00000
  
+---------------- MEMORY AND SCRATCH DISK ESTIMATES PER PROCESS --------------+
|                                                     Memory          Disk    |
| Baseline code, static data and system overhead      413.0 MB         0.0 MB |
| BLAS internal memory storage                          0.0 MB         0.0 MB |
| Model and support data                               72.1 MB         0.0 MB |
| Electronic energy minimisation requirements          71.0 MB         0.0 MB |
| Force calculation requirements                       19.8 MB         0.0 MB |
| Stress calculation requirements                      25.0 MB         0.0 MB |
|                                               ----------------------------- |
| Approx. total storage required per process          556.1 MB         0.0 MB |
|                                                                             |
| Requirements will fluctuate during execution and may exceed these estimates |
+-----------------------------------------------------------------------------+
Calculating finite basis set correction with  3 cut-off energies.
Calculating total energy with cut-off of 1190.000 eV.
------------------------------------------------------------------------ <-- SCF
SCF loop      Energy                           Energy gain       Timer   <-- SCF
                                               per atom          (sec)   <-- SCF
------------------------------------------------------------------------ <-- SCF
Initial   6.16143860E+002                                          3.13  <-- SCF
      1  -2.98305672E+002                    3.81020639E+001       8.76  <-- SCF
      2  -3.69786731E+002                    2.97837743E+000      12.46  <-- SCF
      3  -3.71016005E+002                    5.12197749E-002      15.62  <-- SCF
      4  -3.68790421E+002                   -9.27326832E-002      20.78  <-- SCF
      5  -3.68717033E+002                   -3.05780709E-003      25.91  <-- SCF
      6  -3.68719747E+002                    1.13085895E-004      31.06  <-- SCF
      7  -3.68720030E+002                    1.17828508E-005      36.20  <-- SCF
      8  -3.68720031E+002                    4.72747762E-008      41.34  <-- SCF
      9  -3.68720031E+002                    2.53870039E-009      46.50  <-- SCF
     10  -3.68720031E+002                    4.69031301E-011      50.12  <-- SCF
     11  -3.68720031E+002                    4.40270708E-012      53.74  <-- SCF
     12  -3.68720031E+002                   -3.78640865E-013      57.37  <-- SCF
------------------------------------------------------------------------ <-- SCF
 
Final energy =  -368.7200314142     eV
(energy not corrected for finite basis set)
 
Calculating total energy with cut-off of 1195.000 eV.
------------------------------------------------------------------------ <-- SCF
SCF loop      Energy                           Energy gain       Timer   <-- SCF
                                               per atom          (sec)   <-- SCF
------------------------------------------------------------------------ <-- SCF
Initial  -3.68720031E+002                                         58.99  <-- SCF
      1  -3.68721729E+002                    7.07388926E-005      63.40  <-- SCF
      2  -3.68721729E+002                    8.24148095E-011      68.52  <-- SCF
      3  -3.68721730E+002                    3.23986735E-008      73.73  <-- SCF
      4  -3.68721730E+002                    2.01463727E-009      78.94  <-- SCF
      5  -3.68721730E+002                    1.89602399E-011      82.57  <-- SCF
      6  -3.68721730E+002                    1.33732731E-012      86.18  <-- SCF
      7  -3.68721730E+002                    4.22949902E-013      89.79  <-- SCF
------------------------------------------------------------------------ <-- SCF
 
Final energy =  -368.7217299761     eV
(energy not corrected for finite basis set)
 
Calculating total energy with cut-off of 1200.000 eV.
------------------------------------------------------------------------ <-- SCF
SCF loop      Energy                           Energy gain       Timer   <-- SCF
                                               per atom          (sec)   <-- SCF
------------------------------------------------------------------------ <-- SCF
Initial  -3.68721730E+002                                         91.41  <-- SCF
      1  -3.68723422E+002                    7.04927104E-005      95.84  <-- SCF
      2  -3.68723422E+002                    8.13755612E-011     100.99  <-- SCF
      3  -3.68723423E+002                    3.31734230E-008     106.19  <-- SCF
      4  -3.68723423E+002                    2.04248348E-009     111.36  <-- SCF
      5  -3.68723423E+002                    2.02230475E-011     115.01  <-- SCF
      6  -3.68723423E+002                    8.33815521E-013     118.65  <-- SCF
      7  -3.68723423E+002                   -2.67868271E-013     122.28  <-- SCF
------------------------------------------------------------------------ <-- SCF
 
Final energy =  -368.7234226487     eV
(energy not corrected for finite basis set)
 
 For future reference: finite basis dEtot/dlog(Ecut) =      -0.405680eV
 Total energy corrected for finite basis set =    -368.723421 eV
 
+---------------- MEMORY AND SCRATCH DISK ESTIMATES PER PROCESS --------------+
|                                                     Memory          Disk    |
| Model and support data                               75.2 MB         0.0 MB |
| Electronic energy minimisation requirements          71.0 MB         0.0 MB |
| Geometry minimisation requirements                   92.7 MB         0.0 MB |
|                                               ----------------------------- |
| Approx. total storage required per process          238.9 MB         0.0 MB |
|                                                                             |
| Requirements will fluctuate during execution and may exceed these estimates |
+-----------------------------------------------------------------------------+
 

 ******************************** Symmetrised Forces ********************************
 *                                                                                  *
 *                           Cartesian components (eV/A)                            *
 * -------------------------------------------------------------------------------- *
 *                         x                    y                    z              *
 *                                                                                  *
 * H               1     -0.00000             -0.00000              0.00000         *
 * H               2      0.00000             -0.00000              0.00000         *
 * H               3      0.00000             -0.00000              0.00000         *
 * H               4      0.00000             -0.00000             -0.00000         *
 * H               5      0.00000             -0.00000             -0.00000         *
 * H               6     -0.00000             -0.00000             -0.00000         *
 * H               7     -0.00000             -0.00000              0.00000         *
 * H               8      0.00000             -0.00000              0.00000         *
 * H               9     -0.00000             -0.00000              0.00000         *
 * H              10     -0.00000             -0.00000             -0.00000         *
 * H              11      0.00000             -0.00000             -0.00000         *
 * H              12     -0.00000             -0.00000             -0.00000         *
 * H              13      0.00000              0.00000             -0.00000         *
 * H              14     -0.00000              0.00000             -0.00000         *
 * H              15      0.00000              0.00000              0.00000         *
 * H              16      0.00000              0.00000              0.00000         *
 * H              17     -0.00000              0.00000              0.00000         *
 * H              18      0.00000              0.00000              0.00000         *
 * H              19      0.00000              0.00000             -0.00000         *
 * H              20     -0.00000              0.00000             -0.00000         *
 * H              21     -0.00000              0.00000              0.00000         *
 * H              22      0.00000              0.00000              0.00000         *
 * H              23     -0.00000              0.00000              0.00000         *
 * H              24      0.00000              0.00000              0.00000         *
 *                                                                                  *
 ************************************************************************************

 *********** Symmetrised Stress Tensor ***********
 *                                               *
 *          Cartesian components (GPa)           *
 * --------------------------------------------- *
 *             x             y             z     *
 *                                               *
 *  x    -59.991636      0.000000      0.000001  *
 *  y      0.000000    -59.991636      0.000000  *
 *  z      0.000001      0.000000    -59.991635  *
 *                                               *
 *  Pressure:   59.9916                          *
 *                                               *
 *************************************************
 LBFGS: finished iteration     0 with enthalpy= -3.56177846E+002 eV
  
 +-----------+-----------------+-----------------+------------+-----+ <-- LBFGS
 | Parameter |      value      |    tolerance    |    units   | OK? | <-- LBFGS
 +-----------+-----------------+-----------------+------------+-----+ <-- LBFGS
 |  dE/ion   |   0.000000E+000 |   1.000000E-009 |         eV | No  | <-- LBFGS
 |  |F|max   |   2.515611E-007 |   1.000000E-005 |       eV/A | Yes | <-- LBFGS
 |  |dR|max  |   0.000000E+000 |   1.000000E-005 |          A | No  | <-- LBFGS
 |   Smax    |   2.999164E+001 |   1.000000E-005 |        GPa | No  | <-- LBFGS
 +-----------+-----------------+-----------------+------------+-----+ <-- LBFGS
  

================================================================================
 Starting LBFGS iteration          1 ...
================================================================================
  
 +------------+-------------+-------------+-----------------+ <-- min LBFGS
 |    Step    |   lambda    |   F.delta'  |    enthalpy     | <-- min LBFGS
 +------------+-------------+-------------+-----------------+ <-- min LBFGS
 |  previous  |    0.000000 |    0.798324 |     -356.177846 | <-- min LBFGS
 +------------+-------------+-------------+-----------------+ <-- min LBFGS
  

--------------------------------------------------------------------------------
 LBFGS: starting iteration         1 with trial guess (lambda=  1.000000)
--------------------------------------------------------------------------------
 
+---------------- MEMORY AND SCRATCH DISK ESTIMATES PER PROCESS --------------+
|                                                     Memory          Disk    |
| Model and support data                               80.5 MB         0.0 MB |
| Electronic energy minimisation requirements          76.3 MB         0.0 MB |
| Geometry minimisation requirements                   99.4 MB         0.0 MB |
|                                               ----------------------------- |
| Approx. total storage required per process          256.2 MB         0.0 MB |
|                                                                             |
| Requirements will fluctuate during execution and may exceed these estimates |
+-----------------------------------------------------------------------------+
 

                           -------------------------------
                                      Unit Cell
                           -------------------------------
        Real Lattice(A)              Reciprocal Lattice(1/A)
     6.1761109     0.0000000    -0.0102031        1.019472064   0.000000000   1.292463595
     0.0000000     3.5584703     0.0000000        0.000000000   1.765698387   0.000000000
    -4.1100604     0.0000000     3.2419418        0.003208514   0.000000000   1.942160856

                       Lattice parameters(A)       Cell Angles
                    a =      6.176119          alpha =   90.000000
                    b =      3.558470          beta  =  141.828912
                    c =      5.234767          gamma =   90.000000

                Current cell volume =            71.100573 A**3

                           -------------------------------
                                     Cell Contents
                           -------------------------------

            xxxxxxxxxxxxxxxxxxxxxxxxxxxxxxxxxxxxxxxxxxxxxxxxxxxxxxxxxxxxxxxxx
            x  Element         Atom        Fractional coordinates of atoms  x
            x                 Number           u          v          w      x
            x---------------------------------------------------------------x
            x  H                 1         0.245083  -0.104114   0.258284   x
            x  H                 2         0.360202   0.302233   0.235503   x
            x  H                 3         0.500000   0.093300   0.750000   x
            x  H                 4         0.500000   0.304228   0.750000   x
            x  H                 5         0.754917  -0.104114   0.241716   x
            x  H                 6         0.639798   0.302233   0.264497   x
            x  H                 7         0.745083   0.395886   0.258284   x
            x  H                 8         0.860202   0.802233   0.235503   x
            x  H                 9        -0.000000   0.593300   0.750000   x
            x  H                10         0.000000   0.804228   0.750000   x
            x  H                11         0.254917   0.395886   0.241716   x
            x  H                12         0.139798   0.802233   0.264497   x
            x  H                13         0.254917   0.604114   0.741716   x
            x  H                14         0.139798   0.197767   0.764497   x
            x  H                15         0.000000   0.406700   0.250000   x
            x  H                16         0.000000   0.195772   0.250000   x
            x  H                17         0.745083   0.604114   0.758284   x
            x  H                18         0.860202   0.197767   0.735503   x
            x  H                19         0.754917   1.104114   0.741716   x
            x  H                20         0.639798   0.697767   0.764497   x
            x  H                21         0.500000   0.906700   0.250000   x
            x  H                22         0.500000   0.695772   0.250000   x
            x  H                23         0.245083   1.104114   0.758284   x
            x  H                24         0.360202   0.697767   0.735503   x
            xxxxxxxxxxxxxxxxxxxxxxxxxxxxxxxxxxxxxxxxxxxxxxxxxxxxxxxxxxxxxxxxx


------------------------------------------------------------------------ <-- SCF
SCF loop      Energy                           Energy gain       Timer   <-- SCF
                                               per atom          (sec)   <-- SCF
------------------------------------------------------------------------ <-- SCF
Initial  -3.70009888E+002                                        126.26  <-- SCF
      1  -3.70107862E+002                    4.08221634E-003     131.37  <-- SCF
      2  -3.70108158E+002                    1.23533451E-005     137.44  <-- SCF
      3  -3.70103481E+002                   -1.94883494E-004     143.56  <-- SCF
      4  -3.70103364E+002                   -4.86952154E-006     149.62  <-- SCF
      5  -3.70103370E+002                    2.48911616E-007     155.69  <-- SCF
      6  -3.70103371E+002                    2.57266770E-008     161.75  <-- SCF
      7  -3.70103371E+002                    1.00065919E-010     166.02  <-- SCF
      8  -3.70103371E+002                    8.59595325E-012     170.28  <-- SCF
      9  -3.70103371E+002                   -2.35643517E-013     174.54  <-- SCF
------------------------------------------------------------------------ <-- SCF
 
Final energy =  -370.1033705768     eV
(energy not corrected for finite basis set)
 

 ******************************** Symmetrised Forces ********************************
 *                                                                                  *
 *                           Cartesian components (eV/A)                            *
 * -------------------------------------------------------------------------------- *
 *                         x                    y                    z              *
 *                                                                                  *
 * H               1     -0.39101             -0.19500              0.01432         *
 * H               2     -0.38424              0.18923              0.00950         *
 * H               3      0.00000              0.43199              0.00000         *
 * H               4     -0.00000             -0.44055             -0.00000         *
 * H               5      0.39101             -0.19500             -0.01432         *
 * H               6      0.38424              0.18923             -0.00950         *
 * H               7     -0.39101             -0.19500              0.01432         *
 * H               8     -0.38424              0.18923              0.00950         *
 * H               9      0.00000              0.43199             -0.00000         *
 * H              10     -0.00000             -0.44055              0.00000         *
 * H              11      0.39101             -0.19500             -0.01432         *
 * H              12      0.38424              0.18923             -0.00950         *
 * H              13      0.39101              0.19500             -0.01432         *
 * H              14      0.38424             -0.18923             -0.00950         *
 * H              15      0.00000             -0.43199              0.00000         *
 * H              16      0.00000              0.44055              0.00000         *
 * H              17     -0.39101              0.19500              0.01432         *
 * H              18     -0.38424             -0.18923              0.00950         *
 * H              19      0.39101              0.19500             -0.01432         *
 * H              20      0.38424             -0.18923             -0.00950         *
 * H              21      0.00000             -0.43199              0.00000         *
 * H              22      0.00000              0.44055              0.00000         *
 * H              23     -0.39101              0.19500              0.01432         *
 * H              24     -0.38424             -0.18923              0.00950         *
 *                                                                                  *
 ************************************************************************************

 *********** Symmetrised Stress Tensor ***********
 *                                               *
 *          Cartesian components (GPa)           *
 * --------------------------------------------- *
 *             x             y             z     *
 *                                               *
 *  x    -46.338757      0.000000     -0.164232  *
 *  y      0.000000    -47.028424      0.000000  *
 *  z     -0.164232      0.000000    -51.514862  *
 *                                               *
 *  Pressure:   48.2940                          *
 *                                               *
 *************************************************
  
 +------------+-------------+-------------+-----------------+ <-- min LBFGS
 |    Step    |   lambda    |   F.delta'  |    enthalpy     | <-- min LBFGS
 +------------+-------------+-------------+-----------------+ <-- min LBFGS
 |  previous  |    0.000000 |    0.798324 |     -356.177846 | <-- min LBFGS
 | trial step |    1.000000 |    0.506622 |     -356.790124 | <-- min LBFGS
 +------------+-------------+-------------+-----------------+ <-- min LBFGS
  

--------------------------------------------------------------------------------
 LBFGS: improving iteration         1 with line minimization (lambda=  2.185468)
--------------------------------------------------------------------------------
 
+---------------- MEMORY AND SCRATCH DISK ESTIMATES PER PROCESS --------------+
|                                                     Memory          Disk    |
| Model and support data                               85.0 MB         0.0 MB |
| Electronic energy minimisation requirements          81.6 MB         0.0 MB |
| Geometry minimisation requirements                  106.3 MB         0.0 MB |
|                                               ----------------------------- |
| Approx. total storage required per process          273.0 MB         0.0 MB |
|                                                                             |
| Requirements will fluctuate during execution and may exceed these estimates |
+-----------------------------------------------------------------------------+
 

                           -------------------------------
                                      Unit Cell
                           -------------------------------
        Real Lattice(A)              Reciprocal Lattice(1/A)
     6.3196320     0.0000000    -0.0104402        0.996319486   0.000000000   1.263111280
     0.0000000     3.6411624     0.0000000        0.000000000   1.725598737   0.000000000
    -4.2055704     0.0000000     3.3172784        0.003135650   0.000000000   1.898053680

                       Lattice parameters(A)       Cell Angles
                    a =      6.319641          alpha =   90.000000
                    b =      3.641162          beta  =  141.828912
                    c =      5.356413          gamma =   90.000000

                Current cell volume =            76.173379 A**3

                           -------------------------------
                                     Cell Contents
                           -------------------------------

            xxxxxxxxxxxxxxxxxxxxxxxxxxxxxxxxxxxxxxxxxxxxxxxxxxxxxxxxxxxxxxxxx
            x  Element         Atom        Fractional coordinates of atoms  x
            x                 Number           u          v          w      x
            x---------------------------------------------------------------x
            x  H                 1         0.245083  -0.104114   0.258284   x
            x  H                 2         0.360202   0.302233   0.235503   x
            x  H                 3         0.500000   0.093300   0.750000   x
            x  H                 4         0.500000   0.304228   0.750000   x
            x  H                 5         0.754917  -0.104114   0.241716   x
            x  H                 6         0.639798   0.302233   0.264497   x
            x  H                 7         0.745083   0.395886   0.258284   x
            x  H                 8         0.860202   0.802233   0.235503   x
            x  H                 9        -0.000000   0.593300   0.750000   x
            x  H                10         0.000000   0.804228   0.750000   x
            x  H                11         0.254917   0.395886   0.241716   x
            x  H                12         0.139798   0.802233   0.264497   x
            x  H                13         0.254917   0.604114   0.741716   x
            x  H                14         0.139798   0.197767   0.764497   x
            x  H                15         0.000000   0.406700   0.250000   x
            x  H                16         0.000000   0.195772   0.250000   x
            x  H                17         0.745083   0.604114   0.758284   x
            x  H                18         0.860202   0.197767   0.735503   x
            x  H                19         0.754917   1.104114   0.741716   x
            x  H                20         0.639798   0.697767   0.764497   x
            x  H                21         0.500000   0.906700   0.250000   x
            x  H                22         0.500000   0.695772   0.250000   x
            x  H                23         0.245083   1.104114   0.758284   x
            x  H                24         0.360202   0.697767   0.735503   x
            xxxxxxxxxxxxxxxxxxxxxxxxxxxxxxxxxxxxxxxxxxxxxxxxxxxxxxxxxxxxxxxxx


------------------------------------------------------------------------ <-- SCF
SCF loop      Energy                           Energy gain       Timer   <-- SCF
                                               per atom          (sec)   <-- SCF
------------------------------------------------------------------------ <-- SCF
Initial  -3.71318064E+002                                        178.99  <-- SCF
      1  -3.71447163E+002                    5.37910600E-003     184.40  <-- SCF
      2  -3.71447578E+002                    1.72749029E-005     190.82  <-- SCF
      3  -3.71441069E+002                   -2.71188067E-004     197.27  <-- SCF
      4  -3.71440907E+002                   -6.73715625E-006     203.69  <-- SCF
      5  -3.71440917E+002                    3.94244163E-007     210.11  <-- SCF
      6  -3.71440918E+002                    4.21008260E-008     216.54  <-- SCF
      7  -3.71440918E+002                    1.71997613E-010     221.32  <-- SCF
      8  -3.71440918E+002                    1.45293362E-011     225.83  <-- SCF
      9  -3.71440918E+002                    3.14191356E-013     230.32  <-- SCF
     10  -3.71440918E+002                    2.75924460E-013     234.86  <-- SCF
------------------------------------------------------------------------ <-- SCF
 
Final energy =  -371.4409178333     eV
(energy not corrected for finite basis set)
 

 ******************************** Symmetrised Forces ********************************
 *                                                                                  *
 *                           Cartesian components (eV/A)                            *
 * -------------------------------------------------------------------------------- *
 *                         x                    y                    z              *
 *                                                                                  *
 * H               1     -0.81254             -0.40490              0.02954         *
 * H               2     -0.79853              0.39334              0.01967         *
 * H               3     -0.00000              0.89771              0.00000         *
 * H               4     -0.00000             -0.91514             -0.00000         *
 * H               5      0.81254             -0.40490             -0.02954         *
 * H               6      0.79853              0.39334             -0.01967         *
 * H               7     -0.81254             -0.40490              0.02954         *
 * H               8     -0.79853              0.39334              0.01967         *
 * H               9     -0.00000              0.89771             -0.00000         *
 * H              10     -0.00000             -0.91514             -0.00000         *
 * H              11      0.81254             -0.40490             -0.02954         *
 * H              12      0.79853              0.39334             -0.01967         *
 * H              13      0.81254              0.40490             -0.02954         *
 * H              14      0.79853             -0.39334             -0.01967         *
 * H              15     -0.00000             -0.89771              0.00000         *
 * H              16     -0.00000              0.91514              0.00000         *
 * H              17     -0.81254              0.40490              0.02954         *
 * H              18     -0.79853             -0.39334              0.01967         *
 * H              19      0.81254              0.40490             -0.02954         *
 * H              20      0.79853             -0.39334             -0.01967         *
 * H              21     -0.00000             -0.89771             -0.00000         *
 * H              22     -0.00000              0.91514              0.00000         *
 * H              23     -0.81254              0.40490              0.02954         *
 * H              24     -0.79853             -0.39334              0.01967         *
 *                                                                                  *
 ************************************************************************************

 *********** Symmetrised Stress Tensor ***********
 *                                               *
 *          Cartesian components (GPa)           *
 * --------------------------------------------- *
 *             x             y             z     *
 *                                               *
 *  x    -32.831767      0.000000     -0.325585  *
 *  y      0.000000    -34.198134      0.000000  *
 *  z     -0.325585      0.000000    -43.067880  *
 *                                               *
 *  Pressure:   36.6993                          *
 *                                               *
 *************************************************
  
 +------------+-------------+-------------+-----------------+ <-- min LBFGS
 |    Step    |   lambda    |   F.delta'  |    enthalpy     | <-- min LBFGS
 +------------+-------------+-------------+-----------------+ <-- min LBFGS
 |  previous  |    0.000000 |    0.798324 |     -356.177846 | <-- min LBFGS
 | trial step |    1.000000 |    0.506622 |     -356.790124 | <-- min LBFGS
 |  line step |    2.185468 |    0.194247 |     -357.177815 | <-- min LBFGS
 +------------+-------------+-------------+-----------------+ <-- min LBFGS
  
 LBFGS: finished iteration     1 with enthalpy= -3.57177815E+002 eV
  
 +-----------+-----------------+-----------------+------------+-----+ <-- LBFGS
 | Parameter |      value      |    tolerance    |    units   | OK? | <-- LBFGS
 +-----------+-----------------+-----------------+------------+-----+ <-- LBFGS
 |  dE/ion   |   4.166538E-002 |   1.000000E-009 |         eV | No  | <-- LBFGS
 |  |F|max   |   9.151397E-001 |   1.000000E-005 |       eV/A | No  | <-- LBFGS
 |  |dR|max  |   5.565308E-008 |   1.000000E-005 |          A | Yes | <-- LBFGS
 |   Smax    |   1.306788E+001 |   1.000000E-005 |        GPa | No  | <-- LBFGS
 +-----------+-----------------+-----------------+------------+-----+ <-- LBFGS
  

================================================================================
 Starting LBFGS iteration          2 ...
================================================================================
  
 +------------+-------------+-------------+-----------------+ <-- min LBFGS
 |    Step    |   lambda    |   F.delta'  |    enthalpy     | <-- min LBFGS
 +------------+-------------+-------------+-----------------+ <-- min LBFGS
 |  previous  |    0.000000 |    0.590274 |     -357.177815 | <-- min LBFGS
 +------------+-------------+-------------+-----------------+ <-- min LBFGS
  

--------------------------------------------------------------------------------
 LBFGS: starting iteration         2 with trial guess (lambda=  0.408391)
--------------------------------------------------------------------------------
 
+---------------- MEMORY AND SCRATCH DISK ESTIMATES PER PROCESS --------------+
|                                                     Memory          Disk    |
| Model and support data                               91.4 MB         0.0 MB |
| Electronic energy minimisation requirements          91.0 MB         0.0 MB |
| Geometry minimisation requirements                  118.7 MB         0.0 MB |
|                                               ----------------------------- |
| Approx. total storage required per process          301.0 MB         0.0 MB |
|                                                                             |
| Requirements will fluctuate during execution and may exceed these estimates |
+-----------------------------------------------------------------------------+
 

                           -------------------------------
                                      Unit Cell
                           -------------------------------
        Real Lattice(A)              Reciprocal Lattice(1/A)
     6.5842204     0.0000000    -0.0101448        0.956140232   0.000000000   1.207784285
     0.0000000     3.7954786     0.0000000        0.000000000   1.655439533   0.000000000
    -4.3812433     0.0000000     3.4684033        0.002796638   0.000000000   1.815082503

                       Lattice parameters(A)       Cell Angles
                    a =      6.584228          alpha =   90.000000
                    b =      3.795479          beta  =  141.721446
                    c =      5.587944          gamma =   90.000000

                Current cell volume =            86.507629 A**3

                           -------------------------------
                                     Cell Contents
                           -------------------------------

            xxxxxxxxxxxxxxxxxxxxxxxxxxxxxxxxxxxxxxxxxxxxxxxxxxxxxxxxxxxxxxxxx
            x  Element         Atom        Fractional coordinates of atoms  x
            x                 Number           u          v          w      x
            x---------------------------------------------------------------x
            x  H                 1         0.238075  -0.110455   0.258770   x
            x  H                 2         0.353208   0.308392   0.235819   x
            x  H                 3         0.500000   0.107358   0.750000   x
            x  H                 4         0.500000   0.289897   0.750000   x
            x  H                 5         0.761925  -0.110455   0.241230   x
            x  H                 6         0.646792   0.308392   0.264181   x
            x  H                 7         0.738075   0.389545   0.258770   x
            x  H                 8         0.853208   0.808392   0.235819   x
            x  H                 9        -0.000000   0.607358   0.750000   x
            x  H                10         0.000000   0.789897   0.750000   x
            x  H                11         0.261925   0.389545   0.241230   x
            x  H                12         0.146792   0.808392   0.264181   x
            x  H                13         0.261925   0.610455   0.741230   x
            x  H                14         0.146792   0.191608   0.764181   x
            x  H                15         0.000000   0.392642   0.250000   x
            x  H                16         0.000000   0.210103   0.250000   x
            x  H                17         0.738075   0.610455   0.758770   x
            x  H                18         0.853208   0.191608   0.735819   x
            x  H                19         0.761925   1.110455   0.741230   x
            x  H                20         0.646792   0.691608   0.764181   x
            x  H                21         0.500000   0.892642   0.250000   x
            x  H                22         0.500000   0.710103   0.250000   x
            x  H                23         0.238075   1.110455   0.758770   x
            x  H                24         0.353208   0.691608   0.735819   x
            xxxxxxxxxxxxxxxxxxxxxxxxxxxxxxxxxxxxxxxxxxxxxxxxxxxxxxxxxxxxxxxxx


------------------------------------------------------------------------ <-- SCF
SCF loop      Energy                           Energy gain       Timer   <-- SCF
                                               per atom          (sec)   <-- SCF
------------------------------------------------------------------------ <-- SCF
Initial  -3.66471982E+002                                        239.59  <-- SCF
      1  -3.74337126E+002                    3.27714331E-001     245.30  <-- SCF
      2  -3.74374367E+002                    1.55171683E-003     252.11  <-- SCF
      3  -3.73481509E+002                   -3.72024420E-002     258.89  <-- SCF
      4  -3.73452457E+002                   -1.21046554E-003     265.72  <-- SCF
      5  -3.73453177E+002                    2.99985353E-005     272.51  <-- SCF
      6  -3.73453271E+002                    3.88545871E-006     279.33  <-- SCF
      7  -3.73453271E+002                    1.05120009E-008     286.12  <-- SCF
      8  -3.73453271E+002                    1.15146258E-008     292.90  <-- SCF
      9  -3.73453271E+002                    4.05784178E-010     299.51  <-- SCF
     10  -3.73453271E+002                    2.11495092E-011     304.26  <-- SCF
     11  -3.73453271E+002                    9.34517879E-013     309.03  <-- SCF
     12  -3.73453271E+002                    2.88008743E-013     313.81  <-- SCF
------------------------------------------------------------------------ <-- SCF
 
Final energy =  -373.4532712341     eV
(energy not corrected for finite basis set)
 

 ******************************** Symmetrised Forces ********************************
 *                                                                                  *
 *                           Cartesian components (eV/A)                            *
 * -------------------------------------------------------------------------------- *
 *                         x                    y                    z              *
 *                                                                                  *
 * H               1      1.49177              0.73551             -0.02206         *
 * H               2      1.63598             -0.80607             -0.07503         *
 * H               3      0.00000             -1.92067              0.00000         *
 * H               4      0.00000              1.78367              0.00000         *
 * H               5     -1.49177              0.73551              0.02206         *
 * H               6     -1.63598             -0.80607              0.07503         *
 * H               7      1.49177              0.73551             -0.02206         *
 * H               8      1.63598             -0.80607             -0.07503         *
 * H               9      0.00000             -1.92067              0.00000         *
 * H              10      0.00000              1.78367              0.00000         *
 * H              11     -1.49177              0.73551              0.02206         *
 * H              12     -1.63598             -0.80607              0.07503         *
 * H              13     -1.49177             -0.73551              0.02206         *
 * H              14     -1.63598              0.80607              0.07503         *
 * H              15      0.00000              1.92067              0.00000         *
 * H              16      0.00000             -1.78367              0.00000         *
 * H              17      1.49177             -0.73551             -0.02206         *
 * H              18      1.63598              0.80607             -0.07503         *
 * H              19     -1.49177             -0.73551              0.02206         *
 * H              20     -1.63598              0.80607              0.07503         *
 * H              21      0.00000              1.92067              0.00000         *
 * H              22      0.00000             -1.78367              0.00000         *
 * H              23      1.49177             -0.73551             -0.02206         *
 * H              24      1.63598              0.80607             -0.07503         *
 *                                                                                  *
 ************************************************************************************

 *********** Symmetrised Stress Tensor ***********
 *                                               *
 *          Cartesian components (GPa)           *
 * --------------------------------------------- *
 *             x             y             z     *
 *                                               *
 *  x    -43.741304      0.000000      0.543031  *
 *  y      0.000000    -42.222926      0.000000  *
 *  z      0.543031      0.000000    -29.319923  *
 *                                               *
 *  Pressure:   38.4281                          *
 *                                               *
 *************************************************
  
 +------------+-------------+-------------+-----------------+ <-- min LBFGS
 |    Step    |   lambda    |   F.delta'  |    enthalpy     | <-- min LBFGS
 +------------+-------------+-------------+-----------------+ <-- min LBFGS
 |  previous  |    0.000000 |    0.590274 |     -357.177815 | <-- min LBFGS
 | trial step |    0.408391 |   -0.667113 |     -357.255115 | <-- min LBFGS
 +------------+-------------+-------------+-----------------+ <-- min LBFGS
  

--------------------------------------------------------------------------------
 LBFGS: improving iteration         2 with line minimization (lambda=  0.191717)
--------------------------------------------------------------------------------

                           -------------------------------
                                      Unit Cell
                           -------------------------------
        Real Lattice(A)              Reciprocal Lattice(1/A)
     6.4438417     0.0000000    -0.0103016        0.977045016   0.000000000   1.236520452
     0.0000000     3.7136054     0.0000000        0.000000000   1.691936729   0.000000000
    -4.2880391     0.0000000     3.3882232        0.002970609   0.000000000   1.858178473

                       Lattice parameters(A)       Cell Angles
                    a =      6.443850          alpha =   90.000000
                    b =      3.713605          beta  =  141.777331
                    c =      5.465102          gamma =   90.000000

                Current cell volume =            80.915748 A**3

                           -------------------------------
                                     Cell Contents
                           -------------------------------

            xxxxxxxxxxxxxxxxxxxxxxxxxxxxxxxxxxxxxxxxxxxxxxxxxxxxxxxxxxxxxxxxx
            x  Element         Atom        Fractional coordinates of atoms  x
            x                 Number           u          v          w      x
            x---------------------------------------------------------------x
            x  H                 1         0.241793  -0.107090   0.258512   x
            x  H                 2         0.356919   0.305124   0.235652   x
            x  H                 3         0.500000   0.099900   0.750000   x
            x  H                 4         0.500000   0.297500   0.750000   x
            x  H                 5         0.758207  -0.107090   0.241488   x
            x  H                 6         0.643081   0.305124   0.264348   x
            x  H                 7         0.741793   0.392910   0.258512   x
            x  H                 8         0.856919   0.805124   0.235652   x
            x  H                 9        -0.000000   0.599900   0.750000   x
            x  H                10         0.000000   0.797500   0.750000   x
            x  H                11         0.258207   0.392910   0.241488   x
            x  H                12         0.143081   0.805124   0.264348   x
            x  H                13         0.258207   0.607090   0.741488   x
            x  H                14         0.143081   0.194876   0.764348   x
            x  H                15         0.000000   0.400100   0.250000   x
            x  H                16         0.000000   0.202500   0.250000   x
            x  H                17         0.741793   0.607090   0.758512   x
            x  H                18         0.856919   0.194876   0.735652   x
            x  H                19         0.758207   1.107090   0.741488   x
            x  H                20         0.643081   0.694876   0.764348   x
            x  H                21         0.500000   0.900100   0.250000   x
            x  H                22         0.500000   0.702500   0.250000   x
            x  H                23         0.241793   1.107090   0.758512   x
            x  H                24         0.356919   0.694876   0.735652   x
            xxxxxxxxxxxxxxxxxxxxxxxxxxxxxxxxxxxxxxxxxxxxxxxxxxxxxxxxxxxxxxxxx


------------------------------------------------------------------------ <-- SCF
SCF loop      Energy                           Energy gain       Timer   <-- SCF
                                               per atom          (sec)   <-- SCF
------------------------------------------------------------------------ <-- SCF
Initial  -3.70528281E+002                                        318.68  <-- SCF
      1  -3.73044889E+002                    1.04858689E-001     324.30  <-- SCF
      2  -3.73054244E+002                    3.89788569E-004     331.00  <-- SCF
      3  -3.72774030E+002                   -1.16756014E-002     337.70  <-- SCF
      4  -3.72766225E+002                   -3.25187797E-004     344.39  <-- SCF
      5  -3.72766311E+002                    3.58375658E-006     351.07  <-- SCF
      6  -3.72766323E+002                    4.76997478E-007     357.75  <-- SCF
      7  -3.72766323E+002                    6.49133440E-009     364.42  <-- SCF
      8  -3.72766323E+002                    2.54089168E-009     371.11  <-- SCF
      9  -3.72766323E+002                    7.26607791E-011     375.81  <-- SCF
     10  -3.72766323E+002                    3.67563605E-012     380.49  <-- SCF
     11  -3.72766323E+002                    1.34941159E-013     385.19  <-- SCF
------------------------------------------------------------------------ <-- SCF
 
Final energy =  -372.7663228746     eV
(energy not corrected for finite basis set)
 

 ******************************** Symmetrised Forces ********************************
 *                                                                                  *
 *                           Cartesian components (eV/A)                            *
 * -------------------------------------------------------------------------------- *
 *                         x                    y                    z              *
 *                                                                                  *
 * H               1      0.05606              0.02553              0.01412         *
 * H               2      0.14506             -0.07200             -0.02081         *
 * H               3      0.00000             -0.19346              0.00000         *
 * H               4      0.00000              0.10590              0.00000         *
 * H               5     -0.05606              0.02553             -0.01412         *
 * H               6     -0.14506             -0.07200              0.02081         *
 * H               7      0.05606              0.02553              0.01412         *
 * H               8      0.14506             -0.07200             -0.02081         *
 * H               9      0.00000             -0.19346              0.00000         *
 * H              10      0.00000              0.10590              0.00000         *
 * H              11     -0.05606              0.02553             -0.01412         *
 * H              12     -0.14506             -0.07200              0.02081         *
 * H              13     -0.05606             -0.02553             -0.01412         *
 * H              14     -0.14506              0.07200              0.02081         *
 * H              15      0.00000              0.19346              0.00000         *
 * H              16      0.00000             -0.10590              0.00000         *
 * H              17      0.05606             -0.02553              0.01412         *
 * H              18      0.14506              0.07200             -0.02081         *
 * H              19     -0.05606             -0.02553             -0.01412         *
 * H              20     -0.14506              0.07200              0.02081         *
 * H              21      0.00000              0.19346              0.00000         *
 * H              22      0.00000             -0.10590              0.00000         *
 * H              23      0.05606             -0.02553              0.01412         *
 * H              24      0.14506              0.07200             -0.02081         *
 *                                                                                  *
 ************************************************************************************

 *********** Symmetrised Stress Tensor ***********
 *                                               *
 *          Cartesian components (GPa)           *
 * --------------------------------------------- *
 *             x             y             z     *
 *                                               *
 *  x    -36.737339      0.000000      0.072238  *
 *  y      0.000000    -36.827986      0.000000  *
 *  z      0.072238      0.000000    -36.108265  *
 *                                               *
 *  Pressure:   36.5579                          *
 *                                               *
 *************************************************
  
 +------------+-------------+-------------+-----------------+ <-- min LBFGS
 |    Step    |   lambda    |   F.delta'  |    enthalpy     | <-- min LBFGS
 +------------+-------------+-------------+-----------------+ <-- min LBFGS
 |  previous  |    0.000000 |    0.590274 |     -357.177815 | <-- min LBFGS
 | trial step |    0.408391 |   -0.667113 |     -357.255115 | <-- min LBFGS
 |  line step |    0.191717 |    0.101740 |     -357.615232 | <-- min LBFGS
 +------------+-------------+-------------+-----------------+ <-- min LBFGS
  
 LBFGS: finished iteration     2 with enthalpy= -3.57615232E+002 eV
  
 +-----------+-----------------+-----------------+------------+-----+ <-- LBFGS
 | Parameter |      value      |    tolerance    |    units   | OK? | <-- LBFGS
 +-----------+-----------------+-----------------+------------+-----+ <-- LBFGS
 |  dE/ion   |   1.822571E-002 |   1.000000E-009 |         eV | No  | <-- LBFGS
 |  |F|max   |   1.934558E-001 |   1.000000E-005 |       eV/A | No  | <-- LBFGS
 |  |dR|max  |   2.498427E-002 |   1.000000E-005 |          A | No  | <-- LBFGS
 |   Smax    |   6.827986E+000 |   1.000000E-005 |        GPa | No  | <-- LBFGS
 +-----------+-----------------+-----------------+------------+-----+ <-- LBFGS
  

================================================================================
 Starting LBFGS iteration          3 ...
================================================================================
  
 +------------+-------------+-------------+-----------------+ <-- min LBFGS
 |    Step    |   lambda    |   F.delta'  |    enthalpy     | <-- min LBFGS
 +------------+-------------+-------------+-----------------+ <-- min LBFGS
 |  previous  |    0.000000 |    0.184303 |     -357.615232 | <-- min LBFGS
 +------------+-------------+-------------+-----------------+ <-- min LBFGS
  

--------------------------------------------------------------------------------
 LBFGS: starting iteration         3 with trial guess (lambda=  1.000000)
--------------------------------------------------------------------------------

                           -------------------------------
                                      Unit Cell
                           -------------------------------
        Real Lattice(A)              Reciprocal Lattice(1/A)
     6.5605165     0.0000000    -0.0105825        0.959684445   0.000000000   1.213351797
     0.0000000     3.7818974     0.0000000        0.000000000   1.661384381   0.000000000
    -4.3657240     0.0000000     3.4530113        0.002941165   0.000000000   1.823343498

                       Lattice parameters(A)       Cell Angles
                    a =      6.560525          alpha =   90.000000
                    b =      3.781897          beta  =  141.750656
                    c =      5.566222          gamma =   90.000000

                Current cell volume =            85.498629 A**3

                           -------------------------------
                                     Cell Contents
                           -------------------------------

            xxxxxxxxxxxxxxxxxxxxxxxxxxxxxxxxxxxxxxxxxxxxxxxxxxxxxxxxxxxxxxxxx
            x  Element         Atom        Fractional coordinates of atoms  x
            x                 Number           u          v          w      x
            x---------------------------------------------------------------x
            x  H                 1         0.240380  -0.108838   0.259276   x
            x  H                 2         0.356432   0.305135   0.234975   x
            x  H                 3         0.500000   0.098882   0.750000   x
            x  H                 4         0.500000   0.295273   0.750000   x
            x  H                 5         0.759620  -0.108838   0.240724   x
            x  H                 6         0.643568   0.305135   0.265025   x
            x  H                 7         0.740380   0.391162   0.259276   x
            x  H                 8         0.856432   0.805135   0.234975   x
            x  H                 9        -0.000000   0.598882   0.750000   x
            x  H                10         0.000000   0.795273   0.750000   x
            x  H                11         0.259620   0.391162   0.240724   x
            x  H                12         0.143568   0.805135   0.265025   x
            x  H                13         0.259620   0.608838   0.740724   x
            x  H                14         0.143568   0.194865   0.765025   x
            x  H                15         0.000000   0.401118   0.250000   x
            x  H                16         0.000000   0.204727   0.250000   x
            x  H                17         0.740380   0.608838   0.759276   x
            x  H                18         0.856432   0.194865   0.734975   x
            x  H                19         0.759620   1.108838   0.740724   x
            x  H                20         0.643568   0.694865   0.765025   x
            x  H                21         0.500000   0.901118   0.250000   x
            x  H                22         0.500000   0.704727   0.250000   x
            x  H                23         0.240380   1.108838   0.759276   x
            x  H                24         0.356432   0.694865   0.734975   x
            xxxxxxxxxxxxxxxxxxxxxxxxxxxxxxxxxxxxxxxxxxxxxxxxxxxxxxxxxxxxxxxxx


------------------------------------------------------------------------ <-- SCF
SCF loop      Energy                           Energy gain       Timer   <-- SCF
                                               per atom          (sec)   <-- SCF
------------------------------------------------------------------------ <-- SCF
Initial  -3.73456987E+002                                        390.08  <-- SCF
      1  -3.73753078E+002                    1.23371227E-002     395.73  <-- SCF
      2  -3.73754567E+002                    6.20204952E-005     402.47  <-- SCF
      3  -3.73723124E+002                   -1.31010985E-003     409.19  <-- SCF
      4  -3.73722405E+002                   -2.99447432E-005     415.91  <-- SCF
      5  -3.73722431E+002                    1.05969041E-006     422.66  <-- SCF
      6  -3.73722434E+002                    1.20402816E-007     429.39  <-- SCF
      7  -3.73722434E+002                    6.43524318E-010     436.12  <-- SCF
      8  -3.73722434E+002                    5.29638008E-010     442.85  <-- SCF
      9  -3.73722434E+002                    2.12401413E-011     447.56  <-- SCF
     10  -3.73722434E+002                    7.69366012E-013     452.27  <-- SCF
     11  -3.73722434E+002                    1.77236149E-013     456.97  <-- SCF
------------------------------------------------------------------------ <-- SCF
 
Final energy =  -373.7224335711     eV
(energy not corrected for finite basis set)
 

 ******************************** Symmetrised Forces ********************************
 *                                                                                  *
 *                           Cartesian components (eV/A)                            *
 * -------------------------------------------------------------------------------- *
 *                         x                    y                    z              *
 *                                                                                  *
 * H               1      0.11216              0.04923              0.00408         *
 * H               2      0.19026             -0.09491             -0.01275         *
 * H               3     -0.00000              0.11435             -0.00000         *
 * H               4     -0.00000             -0.19514             -0.00000         *
 * H               5     -0.11216              0.04923             -0.00408         *
 * H               6     -0.19026             -0.09491              0.01275         *
 * H               7      0.11216              0.04923              0.00408         *
 * H               8      0.19026             -0.09491             -0.01275         *
 * H               9     -0.00000              0.11435             -0.00000         *
 * H              10     -0.00000             -0.19514             -0.00000         *
 * H              11     -0.11216              0.04923             -0.00408         *
 * H              12     -0.19026             -0.09491              0.01275         *
 * H              13     -0.11216             -0.04923             -0.00408         *
 * H              14     -0.19026              0.09491              0.01275         *
 * H              15     -0.00000             -0.11435             -0.00000         *
 * H              16     -0.00000              0.19514             -0.00000         *
 * H              17      0.11216             -0.04923              0.00408         *
 * H              18      0.19026              0.09491             -0.01275         *
 * H              19     -0.11216             -0.04923             -0.00408         *
 * H              20     -0.19026              0.09491              0.01275         *
 * H              21     -0.00000             -0.11435             -0.00000         *
 * H              22     -0.00000              0.19514             -0.00000         *
 * H              23      0.11216             -0.04923              0.00408         *
 * H              24      0.19026              0.09491             -0.01275         *
 *                                                                                  *
 ************************************************************************************

 *********** Symmetrised Stress Tensor ***********
 *                                               *
 *          Cartesian components (GPa)           *
 * --------------------------------------------- *
 *             x             y             z     *
 *                                               *
 *  x    -32.061472      0.000000      0.079282  *
 *  y      0.000000    -30.112114      0.000000  *
 *  z      0.079282      0.000000    -31.131684  *
 *                                               *
 *  Pressure:   31.1018                          *
 *                                               *
 *************************************************
  
 +------------+-------------+-------------+-----------------+ <-- min LBFGS
 |    Step    |   lambda    |   F.delta'  |    enthalpy     | <-- min LBFGS
 +------------+-------------+-------------+-----------------+ <-- min LBFGS
 |  previous  |    0.000000 |    0.184303 |     -357.615232 | <-- min LBFGS
 | trial step |    1.000000 |    0.023757 |     -357.713212 | <-- min LBFGS
 +------------+-------------+-------------+-----------------+ <-- min LBFGS
  
 LBFGS: finished iteration     3 with enthalpy= -3.57713212E+002 eV
  
 +-----------+-----------------+-----------------+------------+-----+ <-- LBFGS
 | Parameter |      value      |    tolerance    |    units   | OK? | <-- LBFGS
 +-----------+-----------------+-----------------+------------+-----+ <-- LBFGS
 |  dE/ion   |   4.082475E-003 |   1.000000E-009 |         eV | No  | <-- LBFGS
 |  |F|max   |   2.130000E-001 |   1.000000E-005 |       eV/A | No  | <-- LBFGS
 |  |dR|max  |   1.448224E-002 |   1.000000E-005 |          A | No  | <-- LBFGS
 |   Smax    |   2.061472E+000 |   1.000000E-005 |        GPa | No  | <-- LBFGS
 +-----------+-----------------+-----------------+------------+-----+ <-- LBFGS
  

================================================================================
 Starting LBFGS iteration          4 ...
================================================================================
  
 +------------+-------------+-------------+-----------------+ <-- min LBFGS
 |    Step    |   lambda    |   F.delta'  |    enthalpy     | <-- min LBFGS
 +------------+-------------+-------------+-----------------+ <-- min LBFGS
 |  previous  |    0.000000 |    0.105045 |     -357.713212 | <-- min LBFGS
 +------------+-------------+-------------+-----------------+ <-- min LBFGS
  

--------------------------------------------------------------------------------
 LBFGS: starting iteration         4 with trial guess (lambda=  1.000000)
--------------------------------------------------------------------------------
 
+---------------- MEMORY AND SCRATCH DISK ESTIMATES PER PROCESS --------------+
|                                                     Memory          Disk    |
| Model and support data                               94.7 MB         0.0 MB |
| Electronic energy minimisation requirements          94.1 MB         0.0 MB |
| Geometry minimisation requirements                  122.6 MB         0.0 MB |
|                                               ----------------------------- |
| Approx. total storage required per process          311.4 MB         0.0 MB |
|                                                                             |
| Requirements will fluctuate during execution and may exceed these estimates |
+-----------------------------------------------------------------------------+
 

                           -------------------------------
                                      Unit Cell
                           -------------------------------
        Real Lattice(A)              Reciprocal Lattice(1/A)
     6.6436112     0.0000000    -0.0110860        0.947747455   0.000000000   1.197933577
     0.0000000     3.8244712     0.0000000        0.000000000   1.642889963   0.000000000
    -4.4212118     0.0000000     3.4978503        0.003003767   0.000000000   1.800095813

                       Lattice parameters(A)       Cell Angles
                    a =      6.643620          alpha =   90.000000
                    b =      3.824471          beta  =  141.746257
                    c =      5.637559          gamma =   90.000000

                Current cell volume =            88.686976 A**3

                           -------------------------------
                                     Cell Contents
                           -------------------------------

[...]
 *  x    -29.999999      0.000000      0.000007  *
 *  y      0.000000    -30.000000      0.000000  *
 *  z      0.000007      0.000000    -29.999994  *
 *                                               *
 *  Pressure:   30.0000                          *
 *                                               *
 *************************************************

 Pseudo atomic calculation performed for H 1s1

 Converged in 24 iterations to a total energy of -12.4843 eV

Charge spilling parameter for spin component 1 = 0.76%

            Orbital Populations       
     Ion    Atom   Orbital             Charge
  -------------------------------------------
      H     1      S                    0.952
      H     2      S                    1.047
      H     3      S                    1.036
      H     4      S                    0.964
      H     5      S                    0.953
      H     6      S                    1.048
      H     7      S                    0.952
      H     8      S                    1.047
      H     9      S                    1.036
      H    10      S                    0.964
      H    11      S                    0.953
      H    12      S                    1.048
      H    13      S                    0.952
      H    14      S                    1.047
      H    15      S                    1.036
      H    16      S                    0.964
      H    17      S                    0.953
      H    18      S                    1.048
      H    19      S                    0.952
      H    20      S                    1.047
      H    21      S                    1.036
      H    22      S                    0.964
      H    23      S                    0.953
      H    24      S                    1.048
  -------------------------------------------
                           Total:      24.000
  -------------------------------------------

     Atomic Populations (Mulliken)
     -----------------------------
Species          Ion     s      p      d      f     Total  Charge (e)
=====================================================================
  H               1     0.95   0.00   0.00   0.00   0.95     0.05
  H               2     1.05   0.00   0.00   0.00   1.05    -0.05
  H               3     1.04   0.00   0.00   0.00   1.04    -0.04
  H               4     0.96   0.00   0.00   0.00   0.96     0.04
  H               5     0.95   0.00   0.00   0.00   0.95     0.05
  H               6     1.05   0.00   0.00   0.00   1.05    -0.05
  H               7     0.95   0.00   0.00   0.00   0.95     0.05
  H               8     1.05   0.00   0.00   0.00   1.05    -0.05
  H               9     1.04   0.00   0.00   0.00   1.04    -0.04
  H              10     0.96   0.00   0.00   0.00   0.96     0.04
  H              11     0.95   0.00   0.00   0.00   0.95     0.05
  H              12     1.05   0.00   0.00   0.00   1.05    -0.05
  H              13     0.95   0.00   0.00   0.00   0.95     0.05
  H              14     1.05   0.00   0.00   0.00   1.05    -0.05
  H              15     1.04   0.00   0.00   0.00   1.04    -0.04
  H              16     0.96   0.00   0.00   0.00   0.96     0.04
  H              17     0.95   0.00   0.00   0.00   0.95     0.05
  H              18     1.05   0.00   0.00   0.00   1.05    -0.05
  H              19     0.95   0.00   0.00   0.00   0.95     0.05
  H              20     1.05   0.00   0.00   0.00   1.05    -0.05
  H              21     1.04   0.00   0.00   0.00   1.04    -0.04
  H              22     0.96   0.00   0.00   0.00   0.96     0.04
  H              23     0.95   0.00   0.00   0.00   0.95     0.05
  H              24     1.05   0.00   0.00   0.00   1.05    -0.05
=====================================================================

                 Bond                   Population      Length (A)
======================================================================
              H 3  -- H 4                    1.30        0.73810
              H 15 -- H 16                   1.30        0.73810
              H 21 -- H 22                   1.30        0.73810
              H 9  -- H 10                   1.30        0.73810
              H 6  -- H 7                    1.30        0.73992
              H 5  -- H 8                    1.30        0.73992
              H 18 -- H 19                   1.30        0.73992
              H 17 -- H 20                   1.30        0.73992
              H 2  -- H 11                   1.30        0.73992
              H 13 -- H 24                   1.30        0.73992
              H 1  -- H 12                   1.30        0.73992
              H 14 -- H 23                   1.30        0.73992
              H 14 -- H 18                  -0.05        1.66517
              H 20 -- H 24                  -0.05        1.66517
              H 8  -- H 12                  -0.05        1.66517
              H 2  -- H 6                   -0.05        1.66517
              H 9  -- H 14                  -0.10        1.71445
              H 9  -- H 18                  -0.10        1.71445
              H 2  -- H 21                  -0.10        1.71445
              H 12 -- H 15                  -0.10        1.71445
              H 6  -- H 21                  -0.10        1.71445
              H 3  -- H 24                  -0.10        1.71445
              H 8  -- H 15                  -0.10        1.71445
              H 3  -- H 20                  -0.10        1.71445
              H 12 -- H 16                  -0.08        1.76423
              H 10 -- H 14                  -0.08        1.76423
              H 4  -- H 24                  -0.08        1.76423
              H 4  -- H 20                  -0.08        1.76423
              H 8  -- H 16                  -0.08        1.76423
              H 10 -- H 18                  -0.08        1.76423
              H 2  -- H 22                  -0.08        1.76423
              H 6  -- H 22                  -0.08        1.76423
              H 3  -- H 23                  -0.04        1.76682
              H 1  -- H 21                  -0.04        1.76682
              H 11 -- H 15                  -0.04        1.76682
              H 5  -- H 21                  -0.04        1.76682
              H 9  -- H 17                  -0.04        1.76682
              H 9  -- H 13                  -0.04        1.76682
              H 3  -- H 19                  -0.04        1.76682
              H 7  -- H 15                  -0.04        1.76682
              H 2  -- H 14                  -0.04        1.83946
              H 12 -- H 24                  -0.04        1.83946
              H 6  -- H 18                  -0.04        1.83946
              H 8  -- H 20                  -0.04        1.83946
              H 1  -- H 2                   -0.10        1.86275
              H 5  -- H 6                   -0.10        1.86275
              H 7  -- H 8                   -0.10        1.86275
              H 17 -- H 18                  -0.10        1.86275
              H 11 -- H 12                  -0.10        1.86275
              H 13 -- H 14                  -0.10        1.86275
              H 23 -- H 24                  -0.10        1.86275
              H 19 -- H 20                  -0.10        1.86275
              H 4  -- H 23                  -0.05        1.87030
              H 1  -- H 22                  -0.05        1.87030
              H 4  -- H 19                  -0.05        1.87030
              H 10 -- H 17                  -0.05        1.87030
              H 10 -- H 13                  -0.05        1.87030
              H 11 -- H 16                  -0.05        1.87030
              H 7  -- H 16                  -0.05        1.87030
              H 5  -- H 22                  -0.05        1.87030
              H 13 -- H 23                  -0.10        1.91308
              H 17 -- H 19                  -0.10        1.91308
              H 1  -- H 11                  -0.10        1.91308
              H 5  -- H 7                   -0.10        1.91308
              H 6  -- H 23                  -0.08        1.91598
              H 2  -- H 19                  -0.08        1.91598
              H 12 -- H 17                  -0.08        1.91598
              H 8  -- H 13                  -0.08        1.91598
              H 7  -- H 14                  -0.08        1.91598
              H 11 -- H 18                  -0.08        1.91598
              H 1  -- H 20                  -0.08        1.91598
              H 5  -- H 24                  -0.08        1.91598
              H 16 -- H 23                  -0.04        1.92805
              H 16 -- H 19                  -0.04        1.92805
              H 17 -- H 22                  -0.04        1.92805
              H 13 -- H 22                  -0.04        1.92805
              H 1  -- H 10                  -0.04        1.92805
              H 4  -- H 11                  -0.04        1.92805
              H 5  -- H 10                  -0.04        1.92805
              H 4  -- H 7                   -0.04        1.92805
              H 7  -- H 9                   -0.03        1.93134
              H 9  -- H 11                  -0.03        1.93134
              H 3  -- H 5                   -0.03        1.93134
              H 1  -- H 3                   -0.03        1.93134
              H 15 -- H 17                  -0.03        1.93134
              H 13 -- H 15                  -0.03        1.93134
              H 19 -- H 21                  -0.03        1.93134
              H 21 -- H 23                  -0.03        1.93134
              H 5  -- H 16                  -0.08        1.97907
              H 7  -- H 22                  -0.08        1.97907
              H 11 -- H 22                  -0.08        1.97907
              H 1  -- H 16                  -0.08        1.97907
              H 4  -- H 13                  -0.08        1.97907
              H 4  -- H 17                  -0.08        1.97907
              H 10 -- H 19                  -0.08        1.97907
              H 10 -- H 23                  -0.08        1.97907
              H 15 -- H 20                  -0.05        2.04311
              H 15 -- H 24                  -0.05        2.04311
              H 18 -- H 21                  -0.05        2.04311
              H 14 -- H 21                  -0.05        2.04311
              H 6  -- H 9                   -0.05        2.04311
              H 3  -- H 8                   -0.05        2.04311
              H 2  -- H 9                   -0.05        2.04311
              H 3  -- H 12                  -0.05        2.04311
              H 10 -- H 22                  -0.08        2.07119
              H 4  -- H 16                  -0.08        2.07119
              H 12 -- H 20                  -0.09        2.09858
              H 6  -- H 14                  -0.09        2.09858
              H 2  -- H 18                  -0.09        2.09858
              H 8  -- H 24                  -0.09        2.09858
              H 3  -- H 16                  -0.10        2.11078
              H 10 -- H 21                  -0.10        2.11078
              H 9  -- H 22                  -0.10        2.11078
              H 4  -- H 15                  -0.10        2.11078
              H 5  -- H 14                  -0.04        2.15669
              H 11 -- H 20                  -0.04        2.15669
              H 7  -- H 24                  -0.04        2.15669
              H 6  -- H 13                  -0.04        2.15669
              H 2  -- H 17                  -0.04        2.15669
              H 12 -- H 19                  -0.04        2.15669
              H 1  -- H 18                  -0.04        2.15669
              H 8  -- H 23                  -0.04        2.15669
              H 11 -- H 17                  -0.05        2.18525
              H 7  -- H 13                  -0.05        2.18525
              H 5  -- H 23                  -0.05        2.18525
              H 1  -- H 19                  -0.05        2.18525
              H 15 -- H 23                  -0.04        2.19184
              H 15 -- H 19                  -0.04        2.19184
              H 17 -- H 21                  -0.04        2.19184
              H 13 -- H 21                  -0.04        2.19184
              H 3  -- H 11                  -0.04        2.19184
              H 3  -- H 7                   -0.04        2.19184
              H 1  -- H 9                   -0.04        2.19184
              H 5  -- H 9                   -0.04        2.19184
              H 11 -- H 14                  -0.05        2.21961
              H 7  -- H 18                  -0.05        2.21961
              H 12 -- H 13                  -0.05        2.21961
              H 5  -- H 20                  -0.05        2.21961
              H 1  -- H 24                  -0.05        2.21961
              H 6  -- H 19                  -0.05        2.21961
              H 8  -- H 17                  -0.05        2.21961
              H 2  -- H 23                  -0.05        2.21961
              H 4  -- H 6                   -0.04        2.22375
              H 8  -- H 10                  -0.04        2.22375
              H 2  -- H 4                   -0.04        2.22375
              H 10 -- H 12                  -0.04        2.22375
              H 16 -- H 18                  -0.04        2.22375
              H 20 -- H 22                  -0.04        2.22375
              H 22 -- H 24                  -0.04        2.22375
              H 14 -- H 16                  -0.04        2.22375
              H 7  -- H 23                  -0.09        2.28171
              H 11 -- H 19                  -0.09        2.28171
              H 1  -- H 17                  -0.09        2.28171
              H 5  -- H 13                  -0.09        2.28171
              H 4  -- H 5                   -0.04        2.33289
              H 1  -- H 4                   -0.04        2.33289
              H 7  -- H 10                  -0.04        2.33289
              H 10 -- H 11                  -0.04        2.33289
              H 16 -- H 17                  -0.04        2.33289
              H 13 -- H 16                  -0.04        2.33289
              H 19 -- H 22                  -0.04        2.33289
              H 22 -- H 23                  -0.04        2.33289
              H 9  -- H 19                  -0.09        2.33968
              H 9  -- H 23                  -0.09        2.33968
              H 7  -- H 21                  -0.09        2.33968
              H 11 -- H 21                  -0.09        2.33968
              H 3  -- H 13                  -0.09        2.33968
              H 3  -- H 17                  -0.09        2.33968
              H 5  -- H 15                  -0.09        2.33968
              H 1  -- H 15                  -0.09        2.33968
              H 14 -- H 19                  -0.04        2.36567
              H 17 -- H 24                  -0.04        2.36567
              H 5  -- H 12                  -0.04        2.36567
              H 13 -- H 20                  -0.04        2.36567
              H 2  -- H 7                   -0.04        2.36567
              H 6  -- H 11                  -0.04        2.36567
              H 18 -- H 23                  -0.04        2.36567
              H 1  -- H 8                   -0.04        2.36567
              H 3  -- H 6                   -0.04        2.36931
              H 2  -- H 3                   -0.04        2.36931
              H 8  -- H 9                   -0.04        2.36931
              H 15 -- H 18                  -0.04        2.36931
              H 9  -- H 12                  -0.04        2.36931
              H 20 -- H 21                  -0.04        2.36931
              H 21 -- H 24                  -0.04        2.36931
              H 14 -- H 15                  -0.04        2.36931
              H 6  -- H 24                  -0.03        2.37113
              H 2  -- H 20                  -0.03        2.37113
              H 12 -- H 18                  -0.03        2.37113
              H 8  -- H 14                  -0.03        2.37113
              H 3  -- H 15                  -0.09        2.38968
              H 9  -- H 21                  -0.09        2.38968
              H 6  -- H 16                  -0.06        2.47008
              H 8  -- H 22                  -0.06        2.47008
              H 2  -- H 16                  -0.06        2.47008
              H 4  -- H 18                  -0.06        2.47008
              H 10 -- H 20                  -0.06        2.47008
              H 10 -- H 24                  -0.06        2.47008
              H 12 -- H 22                  -0.06        2.47008
              H 4  -- H 14                  -0.06        2.47008
              H 8  -- H 21                  -0.04        2.47853
              H 6  -- H 15                  -0.04        2.47853
              H 2  -- H 15                  -0.04        2.47853
              H 9  -- H 20                  -0.04        2.47853
              H 3  -- H 18                  -0.04        2.47853
              H 9  -- H 24                  -0.04        2.47853
              H 12 -- H 21                  -0.04        2.47853
              H 3  -- H 14                  -0.04        2.47853
              H 6  -- H 8                   -0.09        2.49047
              H 18 -- H 20                  -0.09        2.49047
              H 2  -- H 12                  -0.09        2.49047
              H 14 -- H 24                  -0.09        2.49047
              H 16 -- H 20                  -0.05        2.51094
              H 16 -- H 24                  -0.05        2.51094
              H 18 -- H 22                  -0.05        2.51094
              H 4  -- H 8                   -0.05        2.51094
              H 14 -- H 22                  -0.05        2.51094
              H 4  -- H 12                  -0.05        2.51094
              H 6  -- H 10                  -0.05        2.51094
              H 2  -- H 10                  -0.05        2.51094
              H 1  -- H 14                   0.00        2.59313
              H 11 -- H 24                   0.00        2.59313
              H 5  -- H 18                   0.00        2.59313
              H 7  -- H 20                   0.00        2.59313
              H 12 -- H 23                   0.00        2.59313
              H 2  -- H 13                   0.00        2.59313
              H 8  -- H 19                   0.00        2.59313
              H 6  -- H 17                   0.00        2.59313
              H 7  -- H 19                  -0.03        2.75039
              H 5  -- H 17                  -0.03        2.75039
              H 11 -- H 23                  -0.03        2.75039
              H 1  -- H 13                  -0.03        2.75039
              H 9  -- H 15                   0.01        2.87470
              H 3  -- H 21                   0.01        2.87470
              H 7  -- H 17                   0.00        2.93680
              H 1  -- H 23                   0.00        2.93680
              H 11 -- H 13                   0.00        2.93680
              H 5  -- H 19                   0.00        2.93680
======================================================================


Writing analysis data to C2c.castep_bin

Writing model to C2c.check
 
 A BibTeX formatted list of references used in this run has been written to 
 C2c.bib
 
Initialisation time =      1.67 s
Calculation time    =   3011.19 s
Finalisation time   =      6.67 s
Total time          =   3019.53 s
Peak Memory Use     = 685576 kB
  
Overall parallel efficiency rating: Excellent (99%)                             
  
Data was distributed by:-
k-point (16-way); efficiency rating: Excellent (99%)                            
