 +-------------------------------------------------+
 |                                                 |
 |      CCC   AA    SSS  TTTTT  EEEEE  PPPP        |
 |     C     A  A  S       T    E      P   P       |
 |     C     AAAA   SS     T    EEE    PPPP        |
 |     C     A  A     S    T    E      P           |
 |      CCC  A  A  SSS     T    EEEEE  P           |
 |                                                 |
 +-------------------------------------------------+
 |                                                 |
 | Welcome to Academic Release CASTEP version 18.1 |          
 | Ab Initio Total Energy Program                  |
 |                                                 |
 | Authors:                                        |
 | M. Segall, M. Probert, C. Pickard, P. Hasnip,   |
 | S. Clark, K. Refson, J. R. Yates, M. Payne      |
 |                                                 |
 | Contributors:                                   |
 | P. Lindan, P. Haynes, J. White, V. Milman,      |
 | N. Govind, M. Gibson, P. Tulip, V. Cocula,      |
 | B. Montanari, D. Quigley, M. Glover,            |
 | L. Bernasconi, A. Perlov, M. Plummer,           |
 | E. McNellis, J. Meyer, J. Gale, D. Jochym       |
 | J. Aarons, B. Walker, R. Gillen, D. Jones       |
 | T. Green, I. J. Bush, C. J. Armstrong,          |
 | E. J. Higgins, E. L. Brown, M. S. McFly,        |
 | J. Wilkins, B-C. Shih, P. J. P. Byrne           |
 |                                                 |
 | Copyright (c) 2000 - 2017                       |
 |                                                 |
 |     Distributed under the terms of an           |
 |     Agreement between the United Kingdom        |
 |     Car-Parrinello (UKCP) Consortium,           |
 |     Daresbury Laboratory and Accelrys, Inc.     |
 |                                                 |
 | Please cite                                     |
 |                                                 |
 |     "First principles methods using CASTEP"     |
 |                                                 |
 |         Zeitschrift fuer Kristallographie       |
 |           220(5-6) pp. 567-570 (2005)           |
 |                                                 |
 | S. J. Clark, M. D. Segall, C. J. Pickard,       |
 | P. J. Hasnip, M. J. Probert, K. Refson,         |
 | M. C. Payne                                     |
 |                                                 |
 |       in all publications arising from          |
 |              your use of CASTEP                 |
 |                                                 |
 +-------------------------------------------------+


 Compiled for linux_x86_64_gfortran4.8 on Thu, 19 Jul 2018 15:42:32 +0100
 from code version 70483bd0ad64+  Sun, 10 Dec 2017 12:18:29 +0000
 Compiler: GNU Fortran 4.8.5; Optimisation: fast
 MATHLIBS: Intel MKL(2018.0.0) (LAPACK version 3.7.0)
 FFT Lib : mkl
 Fundamental constants values: CODATA 2014

 Run started: Tue, 11 Aug 2020 18:13:50 +0100

 Atomic calculation performed for H: 1s1

 Converged in 41 iterations to an ae energy of -12.488 eV

   ============================================================                
   | Pseudopotential Report - Date of generation 11-08-2020   |                
   ------------------------------------------------------------                
   | Element: H Ionic charge:  1.00 Level of theory: PBE      |                
   | Atomic Solver: Koelling-Harmon                           |                
   |                                                          |                
   |               Reference Electronic Structure             |                
   |         Orbital         Occupation         Energy        |                
   |            1s              1.000           -0.239        |                
   |                                                          |                
   |                 Pseudopotential Definition               |                
   |        Beta     l      e      Rc     scheme   norm       |                
   |         loc     0   -0.239   0.702     qc      1         |                
   |                                                          |                
   | No charge augmentation                                   |                
   | No partial core correction                               |                
   ------------------------------------------------------------                
   | "0|0.7|2|6|8|10L(qc=10)"                                 |                
   ------------------------------------------------------------                
   |      Author: Chris J. Pickard, Cambridge University      |                
   ============================================================                

 Pseudo atomic calculation performed for H 1s1

 Converged in 24 iterations to a total energy of -12.4843 eV

 Calculation parallelised over 16 processes.
 Data is distributed by k-point(16-way)

 ************************************ Title ************************************
 

 ***************************** General Parameters ******************************
  
 output verbosity                               : normal  (1)
 write checkpoint data to                       : C2c.check
 type of calculation                            : geometry optimization
 stress calculation                             : on
 density difference calculation                 : off
 electron localisation func (ELF) calculation   : off
 Hirshfeld analysis                             : off
 unlimited duration calculation
 timing information                             : on
 memory usage estimate                          : on
 write extra output files                       : on
 write final potential to formatted file        : off
 write final density to formatted file          : off
 write structure in CELL formatted file         : on
 write BibTeX reference list                    : on
 write OTFG pseudopotential files               : on
 write electrostatic potential file             : on
 write bands file                               : on
 checkpoint writing                             : both castep_bin and check files
  
 output         length unit                     : A
 output           mass unit                     : amu
 output           time unit                     : ps
 output         charge unit                     : e
 output           spin unit                     : hbar/2
 output         energy unit                     : eV
 output          force unit                     : eV/A
 output       velocity unit                     : A/ps
 output       pressure unit                     : GPa
 output     inv_length unit                     : 1/A
 output      frequency unit                     : cm-1
 output force constant unit                     : eV/A**2
 output         volume unit                     : A**3
 output   IR intensity unit                     : (D/A)**2/amu
 output         dipole unit                     : D
 output         efield unit                     : eV/A/e
 output        entropy unit                     : J/mol/K
  
 wavefunctions paging                           : none
 random number generator seed                   : randomised (181350113)
 data distribution                              : optimal for this architecture
 optimization strategy                          : maximize speed(+++)

 *********************** Exchange-Correlation Parameters ***********************
  
 using functional                               : Perdew Burke Ernzerhof
 relativistic treatment                         : Koelling-Harmon
 DFT+D: Semi-empirical dispersion correction    : off

 ************************* Pseudopotential Parameters **************************
  
 pseudopotential representation                 : reciprocal space
 <beta|phi> representation                      : reciprocal space
 spin-orbit coupling                            : off

 **************************** Basis Set Parameters *****************************
  
 plane wave basis set cut-off                   :  1200.0000   eV
 size of standard grid                          :     2.0000
 size of   fine   gmax                          :    35.4943   1/A
 finite basis set correction                    : automatic
 number of sample energies                      :          3
           sample  spacing                      :     5.0000   eV

 **************************** Electronic Parameters ****************************
  
 number of  electrons                           :  24.00    
 net charge of system                           :  0.000    
 treating system as non-spin-polarized
 number of bands                                :         12

 ********************* Electronic Minimization Parameters **********************
  
 Method: Treating system as non-metallic,
         and number of  SD  steps               :          1
         and number of  CG  steps               :          4
  
 total energy / atom convergence tol.           : 0.1000E-10   eV
 eigen-energy convergence tolerance             : 0.2000E-10   eV
 max force / atom convergence tol.              : ignored
 convergence tolerance window                   :          3   cycles
 max. number of SCF cycles                      :        100
 periodic dipole correction                     : NONE

 ************************** Density Mixing Parameters **************************
  
 density-mixing scheme                          : Broyden
 max. length of mixing history                  :         20
 charge density mixing amplitude                : 0.8000    
 cut-off energy for mixing                      :  1200.       eV

 *********************** Population Analysis Parameters ************************
  
 Population analysis with cutoff                :  3.000       A
 Population analysis output                     : summary and pdos components

 ********************** Geometry Optimization Parameters ***********************
  
 optimization method                            : LBFGS
 max. no. of LBFGS updates                      : unbounded
 variable cell method                           : fixed basis quality
 max. number of steps                           :         60
 estimated bulk modulus                         :  500.0       GPa
 estimated <frequency>                          :  1668.       cm-1
 geom line minimiser                            : on
 with line minimiser tolerance                  :     0.4000
 total energy convergence tolerance             : 0.1000E-08   eV/atom
        max ionic |force| tolerance             : 0.1000E-04   eV/A
 max ionic |displacement| tolerance             : 0.1000E-04   A
   max |stress component| tolerance             : 0.1000E-04   GPa
 convergence tolerance window                   :          2   steps
 backup results every                           :      14400   seconds
 write geom trajectory file                     : on

 *******************************************************************************
  

                           -------------------------------
                                      Unit Cell
                           -------------------------------
        Real Lattice(A)                      Reciprocal Lattice(1/A)
     5.1879391     0.0000000     0.0001273        1.211075269   0.000000000   1.575342278
     0.0000000     2.9556383     0.0000000        0.000000000   2.125830227   0.000000000
    -3.4480153     0.0000000     2.6507294       -0.000058174   0.000000000   2.370285212

                       Lattice parameters(A)       Cell Angles
                    a =      5.187939          alpha =   90.000000
                    b =      2.955638          beta  =  142.446605
                    c =      4.349158          gamma =   90.000000

                       Current cell volume =            40.646712       A**3
                                   density =             0.595142   AMU/A**3
                                           =             0.988256     g/cm^3

                           -------------------------------
                                     Cell Contents
                           -------------------------------
                         Total number of ions in cell =   24
                      Total number of species in cell =    1
                        Max number of any one species =   24

            xxxxxxxxxxxxxxxxxxxxxxxxxxxxxxxxxxxxxxxxxxxxxxxxxxxxxxxxxxxx
            x  Element    Atom        Fractional coordinates of atoms  x
            x            Number           u          v          w      x
            x----------------------------------------------------------x
            x  H            1         0.267856  -0.076267   0.255532   x 
            x  H            2         0.342949   0.304119   0.220579   x 
            x  H            3         0.500000   0.101955   0.750000   x 
            x  H            4         0.500000   0.353453   0.750000   x 
            x  H            5         0.732144  -0.076267   0.244468   x 
            x  H            6         0.657051   0.304119   0.279421   x 
            x  H            7         0.767856   0.423733   0.255532   x 
            x  H            8         0.842949   0.804119   0.220579   x 
            x  H            9         0.000000   0.601955   0.750000   x 
            x  H           10         0.000000   0.853453   0.750000   x 
            x  H           11         0.232144   0.423733   0.244468   x 
            x  H           12         0.157051   0.804119   0.279421   x 
            x  H           13         0.232144   0.576267   0.744468   x 
            x  H           14         0.157051   0.195881   0.779421   x 
            x  H           15         0.000000   0.398045   0.250000   x 
            x  H           16         0.000000   0.146547   0.250000   x 
            x  H           17         0.767856   0.576267   0.755532   x 
            x  H           18         0.842949   0.195881   0.720579   x 
            x  H           19         0.732144   1.076267   0.744468   x 
            x  H           20         0.657051   0.695881   0.779421   x 
            x  H           21         0.500000   0.898045   0.250000   x 
            x  H           22         0.500000   0.646547   0.250000   x 
            x  H           23         0.267856   1.076267   0.755532   x 
            x  H           24         0.342949   0.695881   0.720579   x 
            xxxxxxxxxxxxxxxxxxxxxxxxxxxxxxxxxxxxxxxxxxxxxxxxxxxxxxxxxxxx


                         No user defined ionic velocities

                           -------------------------------
                                   Details of Species
                           -------------------------------

                               Mass of species in AMU
                                    H    1.0079400

                          Electric Quadrupole Moment (Barn)
                                    H    0.0028600 Isotope  2

                          Files used for pseudopotentials:
                                    H 0|0.7|2|6|8|10L(qc=10)

                           -------------------------------
                              k-Points For BZ Sampling
                           -------------------------------
                       MP grid size for SCF calculation is 10 10 10
                            with an offset of   0.000  0.000  0.000
                       Number of kpoints used =           250

                           -------------------------------
                               Symmetry and Constraints
                           -------------------------------

                      Cell is a supercell containing 2 primitive cells
                      Maximum deviation from symmetry = 0.328142E-14     ANG

                      Number of symmetry operations   =           8
                      Number of ionic constraints     =           3
                      Point group of crystal =     5: C2h, 2/m, 2/m
                      Space group of crystal =    15: C2/c, -C 2yc

             Set iprint > 1 for details on symmetry rotations/translations

                         Centre of mass is constrained
             Set iprint > 1 for details of linear ionic constraints

                         Number of cell constraints= 2
                         Cell constraints are:  1 2 3 0 5 0

                         External pressure/stress (GPa)
                        180.00000   0.00000   0.00000
                                  180.00000   0.00000
                                            180.00000
  
+---------------- MEMORY AND SCRATCH DISK ESTIMATES PER PROCESS --------------+
|                                                     Memory          Disk    |
| Baseline code, static data and system overhead      413.0 MB         0.0 MB |
| BLAS internal memory storage                          0.0 MB         0.0 MB |
| Model and support data                               46.3 MB         0.0 MB |
| Electronic energy minimisation requirements          43.4 MB         0.0 MB |
| Force calculation requirements                       12.4 MB         0.0 MB |
| Stress calculation requirements                      15.7 MB         0.0 MB |
|                                               ----------------------------- |
| Approx. total storage required per process          502.7 MB         0.0 MB |
|                                                                             |
| Requirements will fluctuate during execution and may exceed these estimates |
+-----------------------------------------------------------------------------+
Calculating finite basis set correction with  3 cut-off energies.
Calculating total energy with cut-off of 1190.000 eV.
------------------------------------------------------------------------ <-- SCF
SCF loop      Energy                           Energy gain       Timer   <-- SCF
                                               per atom          (sec)   <-- SCF
------------------------------------------------------------------------ <-- SCF
Initial   5.52065001E+002                                          2.95  <-- SCF
      1  -2.93535748E+002                    3.52333645E+001       6.38  <-- SCF
      2  -3.50142063E+002                    2.35859644E+000       8.81  <-- SCF
      3  -3.49917954E+002                   -9.33786347E-003      12.09  <-- SCF
      4  -3.49893087E+002                   -1.03612890E-003      15.50  <-- SCF
      5  -3.49893622E+002                    2.23087137E-005      18.94  <-- SCF
      6  -3.49893662E+002                    1.66078740E-006      22.19  <-- SCF
      7  -3.49893662E+002                    4.40409476E-009      25.68  <-- SCF
      8  -3.49893662E+002                    4.50127454E-010      29.13  <-- SCF
      9  -3.49893662E+002                    6.40869804E-012      31.59  <-- SCF
     10  -3.49893662E+002                    5.96157957E-013      33.90  <-- SCF
------------------------------------------------------------------------ <-- SCF
 
Final energy =  -349.8936624637     eV
(energy not corrected for finite basis set)
 
Calculating total energy with cut-off of 1195.000 eV.
------------------------------------------------------------------------ <-- SCF
SCF loop      Energy                           Energy gain       Timer   <-- SCF
                                               per atom          (sec)   <-- SCF
------------------------------------------------------------------------ <-- SCF
Initial  -3.49893662E+002                                         35.12  <-- SCF
      1  -3.49895551E+002                    7.86726433E-005      38.09  <-- SCF
      2  -3.49895551E+002                    1.45448443E-010      41.52  <-- SCF
      3  -3.49895551E+002                    2.72251261E-008      44.96  <-- SCF
      4  -3.49895551E+002                    1.21809370E-009      48.43  <-- SCF
      5  -3.49895551E+002                    4.80108560E-011      50.84  <-- SCF
      6  -3.49895551E+002                    2.54172751E-012      53.33  <-- SCF
      7  -3.49895551E+002                   -3.28289686E-013      55.74  <-- SCF
------------------------------------------------------------------------ <-- SCF
 
Final energy =  -349.8955512945     eV
(energy not corrected for finite basis set)
 
Calculating total energy with cut-off of 1200.000 eV.
------------------------------------------------------------------------ <-- SCF
SCF loop      Energy                           Energy gain       Timer   <-- SCF
                                               per atom          (sec)   <-- SCF
------------------------------------------------------------------------ <-- SCF
Initial  -3.49895551E+002                                         56.93  <-- SCF
      1  -3.49897346E+002                    7.47812873E-005      59.79  <-- SCF
      2  -3.49897346E+002                    1.35406404E-010      63.21  <-- SCF
      3  -3.49897347E+002                    2.52076188E-008      66.57  <-- SCF
      4  -3.49897347E+002                    1.10629999E-009      69.87  <-- SCF
      5  -3.49897347E+002                    4.27723194E-011      72.29  <-- SCF
      6  -3.49897347E+002                    2.91835432E-012      74.88  <-- SCF
      7  -3.49897347E+002                   -5.47820826E-013      77.61  <-- SCF
------------------------------------------------------------------------ <-- SCF
 
Final energy =  -349.8973466813     eV
(energy not corrected for finite basis set)
 
 For future reference: finite basis dEtot/dlog(Ecut) =      -0.443166eV
 Total energy corrected for finite basis set =    -349.897371 eV
 
+---------------- MEMORY AND SCRATCH DISK ESTIMATES PER PROCESS --------------+
|                                                     Memory          Disk    |
| Model and support data                               52.4 MB         0.0 MB |
| Electronic energy minimisation requirements          43.4 MB         0.0 MB |
| Geometry minimisation requirements                   56.7 MB         0.0 MB |
|                                               ----------------------------- |
| Approx. total storage required per process          152.6 MB         0.0 MB |
|                                                                             |
| Requirements will fluctuate during execution and may exceed these estimates |
+-----------------------------------------------------------------------------+
 

 ******************************** Symmetrised Forces ********************************
 *                                                                                  *
 *                           Cartesian components (eV/A)                            *
 * -------------------------------------------------------------------------------- *
 *                         x                    y                    z              *
 *                                                                                  *
 * H               1      0.00000             -0.00000              0.00000         *
 * H               2      0.00000              0.00000              0.00000         *
 * H               3     -0.00000              0.00000              0.00000         *
 * H               4      0.00000             -0.00000              0.00000         *
 * H               5     -0.00000             -0.00000             -0.00000         *
 * H               6     -0.00000              0.00000             -0.00000         *
 * H               7      0.00000             -0.00000              0.00000         *
 * H               8      0.00000              0.00000              0.00000         *
 * H               9      0.00000              0.00000              0.00000         *
 * H              10      0.00000             -0.00000             -0.00000         *
 * H              11     -0.00000             -0.00000             -0.00000         *
 * H              12     -0.00000              0.00000             -0.00000         *
 * H              13     -0.00000              0.00000             -0.00000         *
 * H              14     -0.00000             -0.00000             -0.00000         *
 * H              15      0.00000             -0.00000             -0.00000         *
 * H              16      0.00000              0.00000              0.00000         *
 * H              17      0.00000              0.00000              0.00000         *
 * H              18      0.00000             -0.00000              0.00000         *
 * H              19     -0.00000              0.00000             -0.00000         *
 * H              20     -0.00000             -0.00000             -0.00000         *
 * H              21      0.00000             -0.00000              0.00000         *
 * H              22      0.00000              0.00000             -0.00000         *
 * H              23      0.00000              0.00000              0.00000         *
 * H              24      0.00000             -0.00000              0.00000         *
 *                                                                                  *
 ************************************************************************************

 *********** Symmetrised Stress Tensor ***********
 *                                               *
 *          Cartesian components (GPa)           *
 * --------------------------------------------- *
 *             x             y             z     *
 *                                               *
 *  x   -210.004909      0.000000      0.000003  *
 *  y      0.000000   -210.004907      0.000000  *
 *  z      0.000003      0.000000   -210.004896  *
 *                                               *
 *  Pressure:  210.0049                          *
 *                                               *
 *************************************************
 LBFGS: finished iteration     0 with enthalpy= -3.04231943E+002 eV
  
 +-----------+-----------------+-----------------+------------+-----+ <-- LBFGS
 | Parameter |      value      |    tolerance    |    units   | OK? | <-- LBFGS
 +-----------+-----------------+-----------------+------------+-----+ <-- LBFGS
 |  dE/ion   |   0.000000E+000 |   1.000000E-009 |         eV | No  | <-- LBFGS
 |  |F|max   |   6.689420E-007 |   1.000000E-005 |       eV/A | Yes | <-- LBFGS
 |  |dR|max  |   0.000000E+000 |   1.000000E-005 |          A | No  | <-- LBFGS
 |   Smax    |   3.000491E+001 |   1.000000E-005 |        GPa | No  | <-- LBFGS
 +-----------+-----------------+-----------------+------------+-----+ <-- LBFGS
  

================================================================================
 Starting LBFGS iteration          1 ...
================================================================================
  
 +------------+-------------+-------------+-----------------+ <-- min LBFGS
 |    Step    |   lambda    |   F.delta'  |    enthalpy     | <-- min LBFGS
 +------------+-------------+-------------+-----------------+ <-- min LBFGS
 |  previous  |    0.000000 |    0.484526 |     -304.231943 | <-- min LBFGS
 +------------+-------------+-------------+-----------------+ <-- min LBFGS
  

--------------------------------------------------------------------------------
 LBFGS: starting iteration         1 with trial guess (lambda=  1.000000)
--------------------------------------------------------------------------------
 
+---------------- MEMORY AND SCRATCH DISK ESTIMATES PER PROCESS --------------+
|                                                     Memory          Disk    |
| Model and support data                               55.0 MB         0.0 MB |
| Electronic energy minimisation requirements          46.3 MB         0.0 MB |
| Geometry minimisation requirements                   60.5 MB         0.0 MB |
|                                               ----------------------------- |
| Approx. total storage required per process          161.7 MB         0.0 MB |
|                                                                             |
| Requirements will fluctuate during execution and may exceed these estimates |
+-----------------------------------------------------------------------------+
 

                           -------------------------------
                                      Unit Cell
                           -------------------------------
        Real Lattice(A)              Reciprocal Lattice(1/A)
     5.2917148     0.0000000     0.0001299        1.187324889   0.000000000   1.544448274
     0.0000000     3.0147608     0.0000000        0.000000000   2.084140597   0.000000000
    -3.5169869     0.0000000     2.7037527       -0.000057028   0.000000000   2.323801595

                       Lattice parameters(A)       Cell Angles
                    a =      5.291715          alpha =   90.000000
                    b =      3.014761          beta  =  142.446606
                    c =      4.436155          gamma =   90.000000

                Current cell volume =            43.135031 A**3

                           -------------------------------
                                     Cell Contents
                           -------------------------------

            xxxxxxxxxxxxxxxxxxxxxxxxxxxxxxxxxxxxxxxxxxxxxxxxxxxxxxxxxxxxxxxxx
            x  Element         Atom        Fractional coordinates of atoms  x
            x                 Number           u          v          w      x
            x---------------------------------------------------------------x
            x  H                 1         0.267856  -0.076267   0.255532   x
            x  H                 2         0.342949   0.304119   0.220579   x
            x  H                 3         0.500000   0.101955   0.750000   x
            x  H                 4         0.500000   0.353453   0.750000   x
            x  H                 5         0.732144  -0.076267   0.244468   x
            x  H                 6         0.657051   0.304119   0.279421   x
            x  H                 7         0.767856   0.423733   0.255532   x
            x  H                 8         0.842949   0.804119   0.220579   x
            x  H                 9         0.000000   0.601955   0.750000   x
            x  H                10         0.000000   0.853453   0.750000   x
            x  H                11         0.232144   0.423733   0.244468   x
            x  H                12         0.157051   0.804119   0.279421   x
            x  H                13         0.232144   0.576267   0.744468   x
            x  H                14         0.157051   0.195881   0.779421   x
            x  H                15         0.000000   0.398045   0.250000   x
            x  H                16        -0.000000   0.146547   0.250000   x
            x  H                17         0.767856   0.576267   0.755532   x
            x  H                18         0.842949   0.195881   0.720579   x
            x  H                19         0.732144   1.076267   0.744468   x
            x  H                20         0.657051   0.695881   0.779421   x
            x  H                21         0.500000   0.898045   0.250000   x
            x  H                22         0.500000   0.646547   0.250000   x
            x  H                23         0.267856   1.076267   0.755532   x
            x  H                24         0.342949   0.695881   0.720579   x
            xxxxxxxxxxxxxxxxxxxxxxxxxxxxxxxxxxxxxxxxxxxxxxxxxxxxxxxxxxxxxxxxx


------------------------------------------------------------------------ <-- SCF
SCF loop      Energy                           Energy gain       Timer   <-- SCF
                                               per atom          (sec)   <-- SCF
------------------------------------------------------------------------ <-- SCF
Initial  -3.52816169E+002                                         80.78  <-- SCF
      1  -3.52896363E+002                    3.34143880E-003      83.83  <-- SCF
      2  -3.52896625E+002                    1.08891307E-005      87.56  <-- SCF
      3  -3.52895839E+002                   -3.27275340E-005      91.47  <-- SCF
      4  -3.52895837E+002                   -8.85636975E-008      95.14  <-- SCF
      5  -3.52895838E+002                    3.58119074E-008      98.85  <-- SCF
      6  -3.52895838E+002                    3.33630335E-009     102.46  <-- SCF
      7  -3.52895838E+002                    1.26341178E-011     105.02  <-- SCF
      8  -3.52895838E+002                    2.07446857E-013     107.59  <-- SCF
      9  -3.52895838E+002                    6.84776032E-014     110.22  <-- SCF
------------------------------------------------------------------------ <-- SCF
 
Final energy =  -352.8958380013     eV
(energy not corrected for finite basis set)
 

 ******************************** Symmetrised Forces ********************************
 *                                                                                  *
 *                           Cartesian components (eV/A)                            *
 * -------------------------------------------------------------------------------- *
 *                         x                    y                    z              *
 *                                                                                  *
 * H               1     -0.29371             -0.16039              0.02833         *
 * H               2     -0.30739              0.16376              0.02518         *
 * H               3     -0.00000              0.35873              0.00000         *
 * H               4      0.00000             -0.34933              0.00000         *
 * H               5      0.29371             -0.16039             -0.02833         *
 * H               6      0.30739              0.16376             -0.02518         *
 * H               7     -0.29371             -0.16039              0.02833         *
 * H               8     -0.30739              0.16376              0.02518         *
 * H               9     -0.00000              0.35873             -0.00000         *
 * H              10      0.00000             -0.34933             -0.00000         *
 * H              11      0.29371             -0.16039             -0.02833         *
 * H              12      0.30739              0.16376             -0.02518         *
 * H              13      0.29371              0.16039             -0.02833         *
 * H              14      0.30739             -0.16376             -0.02518         *
 * H              15      0.00000             -0.35873              0.00000         *
 * H              16      0.00000              0.34933              0.00000         *
 * H              17     -0.29371              0.16039              0.02833         *
 * H              18     -0.30739             -0.16376              0.02518         *
 * H              19      0.29371              0.16039             -0.02833         *
 * H              20      0.30739             -0.16376             -0.02518         *
 * H              21      0.00000             -0.35873              0.00000         *
 * H              22      0.00000              0.34933             -0.00000         *
 * H              23     -0.29371              0.16039              0.02833         *
 * H              24     -0.30739             -0.16376              0.02518         *
 *                                                                                  *
 ************************************************************************************

 *********** Symmetrised Stress Tensor ***********
 *                                               *
 *          Cartesian components (GPa)           *
 * --------------------------------------------- *
 *             x             y             z     *
 *                                               *
 *  x   -174.595802      0.000000     -0.648942  *
 *  y      0.000000   -174.964939      0.000000  *
 *  z     -0.648942      0.000000   -182.100596  *
 *                                               *
 *  Pressure:  177.2204                          *
 *                                               *
 *************************************************
  
 +------------+-------------+-------------+-----------------+ <-- min LBFGS
 |    Step    |   lambda    |   F.delta'  |    enthalpy     | <-- min LBFGS
 +------------+-------------+-------------+-----------------+ <-- min LBFGS
 |  previous  |    0.000000 |    0.484526 |     -304.231943 | <-- min LBFGS
 | trial step |    1.000000 |   -0.046698 |     -304.434860 | <-- min LBFGS
 +------------+-------------+-------------+-----------------+ <-- min LBFGS
  
 LBFGS: finished iteration     1 with enthalpy= -3.04434860E+002 eV
  
 +-----------+-----------------+-----------------+------------+-----+ <-- LBFGS
 | Parameter |      value      |    tolerance    |    units   | OK? | <-- LBFGS
 +-----------+-----------------+-----------------+------------+-----+ <-- LBFGS
 |  dE/ion   |   8.454893E-003 |   1.000000E-009 |         eV | No  | <-- LBFGS
 |  |F|max   |   3.587277E-001 |   1.000000E-005 |       eV/A | No  | <-- LBFGS
 |  |dR|max  |   6.617849E-008 |   1.000000E-005 |          A | Yes | <-- LBFGS
 |   Smax    |   5.404198E+000 |   1.000000E-005 |        GPa | No  | <-- LBFGS
 +-----------+-----------------+-----------------+------------+-----+ <-- LBFGS
  

================================================================================
 Starting LBFGS iteration          2 ...
================================================================================
  
 +------------+-------------+-------------+-----------------+ <-- min LBFGS
 |    Step    |   lambda    |   F.delta'  |    enthalpy     | <-- min LBFGS
 +------------+-------------+-------------+-----------------+ <-- min LBFGS
 |  previous  |    0.000000 |    0.209453 |     -304.434860 | <-- min LBFGS
 +------------+-------------+-------------+-----------------+ <-- min LBFGS
  

--------------------------------------------------------------------------------
 LBFGS: starting iteration         2 with trial guess (lambda=  1.000000)
--------------------------------------------------------------------------------
 
+---------------- MEMORY AND SCRATCH DISK ESTIMATES PER PROCESS --------------+
|                                                     Memory          Disk    |
| Model and support data                               56.8 MB         0.0 MB |
| Electronic energy minimisation requirements          48.0 MB         0.0 MB |
| Geometry minimisation requirements                   62.6 MB         0.0 MB |
|                                               ----------------------------- |
| Approx. total storage required per process          167.4 MB         0.0 MB |
|                                                                             |
| Requirements will fluctuate during execution and may exceed these estimates |
+-----------------------------------------------------------------------------+
 

                           -------------------------------
                                      Unit Cell
                           -------------------------------
        Real Lattice(A)              Reciprocal Lattice(1/A)
     5.3301845     0.0000000     0.0022613        1.178145910   0.000000000   1.525780006
     0.0000000     3.0373677     0.0000000        0.000000000   2.068628504   0.000000000
    -3.5414664     0.0000000     2.7345779       -0.000974229   0.000000000   2.296418477

                       Lattice parameters(A)       Cell Angles
                    a =      5.330185          alpha =   90.000000
                    b =      3.037368          beta  =  142.301818
                    c =      4.474360          gamma =   90.000000

                Current cell volume =            44.296401 A**3

                           -------------------------------
                                     Cell Contents
                           -------------------------------

            xxxxxxxxxxxxxxxxxxxxxxxxxxxxxxxxxxxxxxxxxxxxxxxxxxxxxxxxxxxxxxxxx
            x  Element         Atom        Fractional coordinates of atoms  x
            x                 Number           u          v          w      x
            x---------------------------------------------------------------x
            x  H                 1         0.263388  -0.081164   0.256496   x
            x  H                 2         0.338173   0.309119   0.221437   x
            x  H                 3         0.500000   0.112907   0.750000   x
            x  H                 4         0.500000   0.342788   0.750000   x
            x  H                 5         0.736612  -0.081164   0.243504   x
            x  H                 6         0.661827   0.309119   0.278563   x
            x  H                 7         0.763388   0.418836   0.256496   x
            x  H                 8         0.838173   0.809119   0.221437   x
            x  H                 9        -0.000000   0.612907   0.750000   x
            x  H                10         0.000000   0.842788   0.750000   x
            x  H                11         0.236612   0.418836   0.243504   x
            x  H                12         0.161827   0.809119   0.278563   x
            x  H                13         0.236612   0.581164   0.743504   x
            x  H                14         0.161827   0.190881   0.778563   x
            x  H                15         0.000000   0.387093   0.250000   x
            x  H                16        -0.000000   0.157212   0.250000   x
            x  H                17         0.763388   0.581164   0.756496   x
            x  H                18         0.838173   0.190881   0.721437   x
            x  H                19         0.736612   1.081164   0.743504   x
            x  H                20         0.661827   0.690881   0.778563   x
            x  H                21         0.500000   0.887093   0.250000   x
            x  H                22         0.500000   0.657212   0.250000   x
            x  H                23         0.263388   1.081164   0.756496   x
            x  H                24         0.338173   0.690881   0.721437   x
            xxxxxxxxxxxxxxxxxxxxxxxxxxxxxxxxxxxxxxxxxxxxxxxxxxxxxxxxxxxxxxxxx


------------------------------------------------------------------------ <-- SCF
SCF loop      Energy                           Energy gain       Timer   <-- SCF
                                               per atom          (sec)   <-- SCF
------------------------------------------------------------------------ <-- SCF
Initial  -3.51269213E+002                                        113.34  <-- SCF
      1  -3.54196469E+002                    1.21968975E-001     116.49  <-- SCF
      2  -3.54211583E+002                    6.29752407E-004     120.32  <-- SCF
      3  -3.53868253E+002                   -1.43053914E-002     124.21  <-- SCF
      4  -3.53859558E+002                   -3.62308286E-004     128.06  <-- SCF
      5  -3.53859513E+002                   -1.86186066E-006     131.84  <-- SCF
      6  -3.53859514E+002                    2.77157339E-008     135.68  <-- SCF
      7  -3.53859514E+002                    1.77277035E-009     139.62  <-- SCF
      8  -3.53859514E+002                    2.07307888E-010     142.63  <-- SCF
      9  -3.53859514E+002                    1.30308851E-012     145.42  <-- SCF
     10  -3.53859514E+002                    3.42388016E-014     148.31  <-- SCF
------------------------------------------------------------------------ <-- SCF
 
Final energy =  -353.8595138253     eV
(energy not corrected for finite basis set)
 

 ******************************** Symmetrised Forces ********************************
 *                                                                                  *
 *                           Cartesian components (eV/A)                            *
 * -------------------------------------------------------------------------------- *
 *                         x                    y                    z              *
 *                                                                                  *
 * H               1      1.01640              0.55674             -0.03768         *
 * H               2      1.27785             -0.67691             -0.22225         *
 * H               3      0.00000             -1.58008              0.00000         *
 * H               4     -0.00000              1.35638              0.00000         *
 * H               5     -1.01640              0.55674              0.03768         *
 * H               6     -1.27785             -0.67691              0.22225         *
 * H               7      1.01640              0.55674             -0.03768         *
 * H               8      1.27785             -0.67691             -0.22225         *
 * H               9     -0.00000             -1.58008              0.00000         *
 * H              10      0.00000              1.35638              0.00000         *
 * H              11     -1.01640              0.55674              0.03768         *
 * H              12     -1.27785             -0.67691              0.22225         *
 * H              13     -1.01640             -0.55674              0.03768         *
 * H              14     -1.27785              0.67691              0.22225         *
 * H              15      0.00000              1.58008              0.00000         *
 * H              16      0.00000             -1.35638              0.00000         *
 * H              17      1.01640             -0.55674             -0.03768         *
 * H              18      1.27785              0.67691             -0.22225         *
 * H              19     -1.01640             -0.55674              0.03768         *
 * H              20     -1.27785              0.67691              0.22225         *
 * H              21      0.00000              1.58008              0.00000         *
 * H              22      0.00000             -1.35638              0.00000         *
 * H              23      1.01640             -0.55674             -0.03768         *
 * H              24      1.27785              0.67691             -0.22225         *
 *                                                                                  *
 ************************************************************************************

 *********** Symmetrised Stress Tensor ***********
 *                                               *
 *          Cartesian components (GPa)           *
 * --------------------------------------------- *
 *             x             y             z     *
 *                                               *
 *  x   -191.485381      0.000000      2.352391  *
 *  y      0.000000   -191.499550      0.000000  *
 *  z      2.352391      0.000000   -166.362088  *
 *                                               *
 *  Pressure:  183.1157                          *
 *                                               *
 *************************************************
  
 +------------+-------------+-------------+-----------------+ <-- min LBFGS
 |    Step    |   lambda    |   F.delta'  |    enthalpy     | <-- min LBFGS
 +------------+-------------+-------------+-----------------+ <-- min LBFGS
 |  previous  |    0.000000 |    0.209453 |     -304.434860 | <-- min LBFGS
 | trial step |    1.000000 |   -0.875619 |     -304.093751 | <-- min LBFGS
 +------------+-------------+-------------+-----------------+ <-- min LBFGS
  

--------------------------------------------------------------------------------
 LBFGS: improving iteration         2 with line minimization (lambda=  0.193032)
--------------------------------------------------------------------------------

                           -------------------------------
                                      Unit Cell
                           -------------------------------
        Real Lattice(A)              Reciprocal Lattice(1/A)
     5.2991407     0.0000000     0.0005413        1.185541509   0.000000000   1.540809537
     0.0000000     3.0191246     0.0000000        0.000000000   2.081128178   0.000000000
    -3.5217123     0.0000000     2.7097029       -0.000236825   0.000000000   2.318464981

                       Lattice parameters(A)       Cell Angles
                    a =      5.299141          alpha =   90.000000
                    b =      3.019125          beta  =  142.418468
                    c =      4.443529          gamma =   90.000000

                Current cell volume =            43.357658 A**3

                           -------------------------------
                                     Cell Contents
                           -------------------------------

            xxxxxxxxxxxxxxxxxxxxxxxxxxxxxxxxxxxxxxxxxxxxxxxxxxxxxxxxxxxxxxxxx
            x  Element         Atom        Fractional coordinates of atoms  x
            x                 Number           u          v          w      x
            x---------------------------------------------------------------x
            x  H                 1         0.266993  -0.077213   0.255718   x
            x  H                 2         0.342027   0.305084   0.220745   x
            x  H                 3         0.500000   0.104069   0.750000   x
            x  H                 4         0.500000   0.351395   0.750000   x
            x  H                 5         0.733007  -0.077213   0.244282   x
            x  H                 6         0.657973   0.305084   0.279255   x
            x  H                 7         0.766993   0.422787   0.255718   x
            x  H                 8         0.842027   0.805084   0.220745   x
            x  H                 9        -0.000000   0.604069   0.750000   x
            x  H                10         0.000000   0.851395   0.750000   x
            x  H                11         0.233007   0.422787   0.244282   x
            x  H                12         0.157973   0.805084   0.279255   x
            x  H                13         0.233007   0.577213   0.744282   x
            x  H                14         0.157973   0.194916   0.779255   x
            x  H                15         0.000000   0.395931   0.250000   x
            x  H                16        -0.000000   0.148605   0.250000   x
            x  H                17         0.766993   0.577213   0.755718   x
            x  H                18         0.842027   0.194916   0.720745   x
            x  H                19         0.733007   1.077213   0.744282   x
            x  H                20         0.657973   0.694916   0.779255   x
            x  H                21         0.500000   0.895931   0.250000   x
            x  H                22         0.500000   0.648605   0.250000   x
            x  H                23         0.266993   1.077213   0.755718   x
            x  H                24         0.342027   0.694916   0.720745   x
            xxxxxxxxxxxxxxxxxxxxxxxxxxxxxxxxxxxxxxxxxxxxxxxxxxxxxxxxxxxxxxxxx


------------------------------------------------------------------------ <-- SCF
SCF loop      Energy                           Energy gain       Timer   <-- SCF
                                               per atom          (sec)   <-- SCF
------------------------------------------------------------------------ <-- SCF
Initial  -3.51425684E+002                                        151.55  <-- SCF
      1  -3.53401518E+002                    8.23263890E-002     154.68  <-- SCF
      2  -3.53411392E+002                    4.11423832E-004     158.37  <-- SCF
      3  -3.53180877E+002                   -9.60480400E-003     161.93  <-- SCF
      4  -3.53175664E+002                   -2.17193740E-004     165.42  <-- SCF
      5  -3.53175617E+002                   -1.94418820E-006     169.06  <-- SCF
      6  -3.53175618E+002                    1.07465407E-008     172.74  <-- SCF
      7  -3.53175618E+002                    9.74438308E-010     176.39  <-- SCF
      8  -3.53175618E+002                    6.23548999E-011     178.86  <-- SCF
      9  -3.53175618E+002                    1.73208055E-013     181.74  <-- SCF
     10  -3.53175618E+002                    2.96064932E-013     184.24  <-- SCF
------------------------------------------------------------------------ <-- SCF
 
Final energy =  -353.1756176258     eV
(energy not corrected for finite basis set)
 

 ******************************** Symmetrised Forces ********************************
 *                                                                                  *
 *                           Cartesian components (eV/A)                            *
 * -------------------------------------------------------------------------------- *
 *                         x                    y                    z              *
 *                                                                                  *
 * H               1     -0.10119             -0.05457              0.02170         *
 * H               2     -0.05939              0.03240             -0.01923         *
 * H               3     -0.00000              0.05824              0.00000         *
 * H               4     -0.00000             -0.09734              0.00000         *
 * H               5      0.10119             -0.05457             -0.02170         *
 * H               6      0.05939              0.03240              0.01923         *
 * H               7     -0.10119             -0.05457              0.02170         *
 * H               8     -0.05939              0.03240             -0.01923         *
 * H               9     -0.00000              0.05824              0.00000         *
 * H              10     -0.00000             -0.09734              0.00000         *
 * H              11      0.10119             -0.05457             -0.02170         *
 * H              12      0.05939              0.03240              0.01923         *
 * H              13      0.10119              0.05457             -0.02170         *
 * H              14      0.05939             -0.03240              0.01923         *
 * H              15     -0.00000             -0.05824              0.00000         *
 * H              16     -0.00000              0.09734              0.00000         *
 * H              17     -0.10119              0.05457              0.02170         *
 * H              18     -0.05939             -0.03240             -0.01923         *
 * H              19      0.10119              0.05457             -0.02170         *
 * H              20      0.05939             -0.03240              0.01923         *
 * H              21     -0.00000             -0.05824             -0.00000         *
 * H              22     -0.00000              0.09734              0.00000         *
 * H              23     -0.10119              0.05457              0.02170         *
 * H              24     -0.05939             -0.03240             -0.01923         *
 *                                                                                  *
 ************************************************************************************

 *********** Symmetrised Stress Tensor ***********
 *                                               *
 *          Cartesian components (GPa)           *
 * --------------------------------------------- *
 *             x             y             z     *
 *                                               *
 *  x   -177.240500      0.000000     -0.149167  *
 *  y      0.000000   -177.490526      0.000000  *
 *  z     -0.149167      0.000000   -178.992304  *
 *                                               *
 *  Pressure:  177.9078                          *
 *                                               *
 *************************************************
  
 +------------+-------------+-------------+-----------------+ <-- min LBFGS
 |    Step    |   lambda    |   F.delta'  |    enthalpy     | <-- min LBFGS
 +------------+-------------+-------------+-----------------+ <-- min LBFGS
 |  previous  |    0.000000 |    0.209453 |     -304.434860 | <-- min LBFGS
 | trial step |    1.000000 |   -0.875619 |     -304.093751 | <-- min LBFGS
 |  line step |    0.193032 |    0.043643 |     -304.464503 | <-- min LBFGS
 +------------+-------------+-------------+-----------------+ <-- min LBFGS
  
 LBFGS: finished iteration     2 with enthalpy= -3.04464503E+002 eV
  
 +-----------+-----------------+-----------------+------------+-----+ <-- LBFGS
 | Parameter |      value      |    tolerance    |    units   | OK? | <-- LBFGS
 +-----------+-----------------+-----------------+------------+-----+ <-- LBFGS
 |  dE/ion   |   1.235138E-003 |   1.000000E-009 |         eV | No  | <-- LBFGS
 |  |F|max   |   1.170001E-001 |   1.000000E-005 |       eV/A | No  | <-- LBFGS
 |  |dR|max  |   6.382501E-003 |   1.000000E-005 |          A | No  | <-- LBFGS
 |   Smax    |   2.759500E+000 |   1.000000E-005 |        GPa | No  | <-- LBFGS
 +-----------+-----------------+-----------------+------------+-----+ <-- LBFGS
  

================================================================================
 Starting LBFGS iteration          3 ...
================================================================================
  
 +------------+-------------+-------------+-----------------+ <-- min LBFGS
 |    Step    |   lambda    |   F.delta'  |    enthalpy     | <-- min LBFGS
 +------------+-------------+-------------+-----------------+ <-- min LBFGS
 |  previous  |    0.000000 |    0.050017 |     -304.464503 | <-- min LBFGS
 +------------+-------------+-------------+-----------------+ <-- min LBFGS
  

--------------------------------------------------------------------------------
 LBFGS: starting iteration         3 with trial guess (lambda=  1.000000)
--------------------------------------------------------------------------------

                           -------------------------------
                                      Unit Cell
                           -------------------------------
        Real Lattice(A)              Reciprocal Lattice(1/A)
     5.2950336     0.0000000     0.0006202        1.186438022   0.000000000   1.541684679
     0.0000000     3.0172399     0.0000000        0.000000000   2.082428176   0.000000000
    -3.5189422     0.0000000     2.7080809       -0.000271716   0.000000000   2.319808525

                       Lattice parameters(A)       Cell Angles
                    a =      5.295034          alpha =   90.000000
                    b =      3.017240          beta  =  142.412401
                    c =      4.440344          gamma =   90.000000

                Current cell volume =            43.271932 A**3

                           -------------------------------
                                     Cell Contents
                           -------------------------------

            xxxxxxxxxxxxxxxxxxxxxxxxxxxxxxxxxxxxxxxxxxxxxxxxxxxxxxxxxxxxxxxxx
            x  Element         Atom        Fractional coordinates of atoms  x
            x                 Number           u          v          w      x
            x---------------------------------------------------------------x
            x  H                 1         0.266496  -0.078139   0.256471   x
            x  H                 2         0.341341   0.305043   0.219594   x
            x  H                 3         0.500000   0.103440   0.750000   x
            x  H                 4         0.500000   0.350287   0.750000   x
            x  H                 5         0.733504  -0.078139   0.243529   x
            x  H                 6         0.658659   0.305043   0.280406   x
            x  H                 7         0.766496   0.421861   0.256471   x
            x  H                 8         0.841341   0.805043   0.219594   x
            x  H                 9        -0.000000   0.603440   0.750000   x
            x  H                10         0.000000   0.850287   0.750000   x
            x  H                11         0.233504   0.421861   0.243529   x
            x  H                12         0.158659   0.805043   0.280406   x
            x  H                13         0.233504   0.578139   0.743529   x
            x  H                14         0.158659   0.194957   0.780406   x
            x  H                15         0.000000   0.396560   0.250000   x
            x  H                16        -0.000000   0.149713   0.250000   x
            x  H                17         0.766496   0.578139   0.756471   x
            x  H                18         0.841341   0.194957   0.719594   x
            x  H                19         0.733504   1.078139   0.743529   x
            x  H                20         0.658659   0.694957   0.780406   x
            x  H                21         0.500000   0.896560   0.250000   x
            x  H                22         0.500000   0.649713   0.250000   x
            x  H                23         0.266496   1.078139   0.756471   x
            x  H                24         0.341341   0.694957   0.719594   x
            xxxxxxxxxxxxxxxxxxxxxxxxxxxxxxxxxxxxxxxxxxxxxxxxxxxxxxxxxxxxxxxxx


------------------------------------------------------------------------ <-- SCF
SCF loop      Energy                           Energy gain       Timer   <-- SCF
                                               per atom          (sec)   <-- SCF
------------------------------------------------------------------------ <-- SCF
Initial  -3.53056285E+002                                        187.30  <-- SCF
      1  -3.53084914E+002                    1.19284764E-003     190.20  <-- SCF
      2  -3.53085027E+002                    4.73537158E-006     193.99  <-- SCF
      3  -3.53083261E+002                   -7.35779344E-005     197.71  <-- SCF
      4  -3.53083243E+002                   -7.79943895E-007     201.51  <-- SCF
      5  -3.53083243E+002                   -1.90944761E-009     205.16  <-- SCF
      6  -3.53083243E+002                    3.37129339E-010     208.74  <-- SCF
      7  -3.53083243E+002                    2.38382621E-011     211.29  <-- SCF
      8  -3.53083243E+002                    6.90818174E-013     213.88  <-- SCF
      9  -3.53083243E+002                    3.66556582E-013     216.44  <-- SCF
------------------------------------------------------------------------ <-- SCF
 
Final energy =  -353.0832426444     eV
(energy not corrected for finite basis set)
 

 ******************************** Symmetrised Forces ********************************
 *                                                                                  *
 *                           Cartesian components (eV/A)                            *
 * -------------------------------------------------------------------------------- *
 *                         x                    y                    z              *
 *                                                                                  *
 * H               1      0.03102              0.00638             -0.00303         *
 * H               2      0.05782             -0.03402             -0.01250         *
 * H               3     -0.00000              0.05716             -0.00000         *
 * H               4     -0.00000             -0.08748              0.00000         *
 * H               5     -0.03102              0.00638              0.00303         *
 * H               6     -0.05782             -0.03402              0.01250         *
 * H               7      0.03102              0.00638             -0.00303         *
 * H               8      0.05782             -0.03402             -0.01250         *
 * H               9     -0.00000              0.05716             -0.00000         *
 * H              10     -0.00000             -0.08748             -0.00000         *
 * H              11     -0.03102              0.00638              0.00303         *
 * H              12     -0.05782             -0.03402              0.01250         *
 * H              13     -0.03102             -0.00638              0.00303         *
 * H              14     -0.05782              0.03402              0.01250         *
 * H              15     -0.00000             -0.05716              0.00000         *
 * H              16     -0.00000              0.08748             -0.00000         *
 * H              17      0.03102             -0.00638             -0.00303         *
 * H              18      0.05782              0.03402             -0.01250         *
 * H              19     -0.03102             -0.00638              0.00303         *
 * H              20     -0.05782              0.03402              0.01250         *
 * H              21     -0.00000             -0.05716             -0.00000         *
 * H              22     -0.00000              0.08748              0.00000         *
 * H              23      0.03102             -0.00638             -0.00303         *
 * H              24      0.05782              0.03402             -0.01250         *
 *                                                                                  *
 ************************************************************************************

 *********** Symmetrised Stress Tensor ***********
 *                                               *
 *          Cartesian components (GPa)           *
 * --------------------------------------------- *
 *             x             y             z     *
 *                                               *
 *  x   -180.851182      0.000000      0.086286  *
 *  y      0.000000   -179.498344      0.000000  *
 *  z      0.086286      0.000000   -179.780086  *
 *                                               *
 *  Pressure:  180.0432                          *
 *                                               *
 *************************************************
  
 +------------+-------------+-------------+-----------------+ <-- min LBFGS
 |    Step    |   lambda    |   F.delta'  |    enthalpy     | <-- min LBFGS
 +------------+-------------+-------------+-----------------+ <-- min LBFGS
 |  previous  |    0.000000 |    0.050017 |     -304.464503 | <-- min LBFGS
 | trial step |    1.000000 |   -0.001781 |     -304.468457 | <-- min LBFGS
 +------------+-------------+-------------+-----------------+ <-- min LBFGS
  
 LBFGS: finished iteration     3 with enthalpy= -3.04468457E+002 eV
  
 +-----------+-----------------+-----------------+------------+-----+ <-- LBFGS
 | Parameter |      value      |    tolerance    |    units   | OK? | <-- LBFGS
 +-----------+-----------------+-----------------+------------+-----+ <-- LBFGS
 |  dE/ion   |   1.647400E-004 |   1.000000E-009 |         eV | No  | <-- LBFGS
 |  |F|max   |   8.748309E-002 |   1.000000E-005 |       eV/A | No  | <-- LBFGS
 |  |dR|max  |   6.312515E-003 |   1.000000E-005 |          A | No  | <-- LBFGS
 |   Smax    |   8.511815E-001 |   1.000000E-005 |        GPa | No  | <-- LBFGS
 +-----------+-----------------+-----------------+------------+-----+ <-- LBFGS
  

================================================================================
 Starting LBFGS iteration          4 ...
================================================================================
  
 +------------+-------------+-------------+-----------------+ <-- min LBFGS
 |    Step    |   lambda    |   F.delta'  |    enthalpy     | <-- min LBFGS
 +------------+-------------+-------------+-----------------+ <-- min LBFGS
 |  previous  |    0.000000 |    0.028482 |     -304.468457 | <-- min LBFGS
 +------------+-------------+-------------+-----------------+ <-- min LBFGS
  

--------------------------------------------------------------------------------
 LBFGS: starting iteration         4 with trial guess (lambda=  1.000000)
--------------------------------------------------------------------------------

                           -------------------------------
                                      Unit Cell
                           -------------------------------
        Real Lattice(A)              Reciprocal Lattice(1/A)
     5.2932256     0.0000000     0.0004451        1.186894149   0.000000000   1.542877294
     0.0000000     3.0140012     0.0000000        0.000000000   2.084665811   0.000000000
    -3.5178300     0.0000000     2.7061724       -0.000195222   0.000000000   2.321544129

                       Lattice parameters(A)       Cell Angles
                    a =      5.293226          alpha =   90.000000
                    b =      3.014001          beta  =  142.425063
                    c =      4.438299          gamma =   90.000000

                Current cell volume =            43.178421 A**3

                           -------------------------------
                                     Cell Contents
                           -------------------------------

            xxxxxxxxxxxxxxxxxxxxxxxxxxxxxxxxxxxxxxxxxxxxxxxxxxxxxxxxxxxxxxxxx
            x  Element         Atom        Fractional coordinates of atoms  x
            x                 Number           u          v          w      x
            x---------------------------------------------------------------x
            x  H                 1         0.266396  -0.078977   0.257145   x
            x  H                 2         0.341309   0.304008   0.217995   x
            x  H                 3         0.500000   0.104885   0.750000   x
            x  H                 4         0.500000   0.346107   0.750000   x
            x  H                 5         0.733604  -0.078977   0.242855   x
            x  H                 6         0.658691   0.304008   0.282005   x
            x  H                 7         0.766396   0.421023   0.257145   x
            x  H                 8         0.841309   0.804008   0.217995   x
            x  H                 9        -0.000000   0.604885   0.750000   x
            x  H                10         0.000000   0.846107   0.750000   x
            x  H                11         0.233604   0.421023   0.242855   x
            x  H                12         0.158691   0.804008   0.282005   x
            x  H                13         0.233604   0.578977   0.742855   x
            x  H                14         0.158691   0.195992   0.782005   x
            x  H                15         0.000000   0.395115   0.250000   x
            x  H                16        -0.000000   0.153893   0.250000   x
            x  H                17         0.766396   0.578977   0.757145   x
            x  H                18         0.841309   0.195992   0.717995   x
            x  H                19         0.733604   1.078977   0.742855   x
            x  H                20         0.658691   0.695992   0.782005   x
            x  H                21         0.500000   0.895115   0.250000   x
            x  H                22         0.500000   0.653893   0.250000   x
            x  H                23         0.266396   1.078977   0.757145   x
            x  H                24         0.341309   0.695992   0.717995   x
            xxxxxxxxxxxxxxxxxxxxxxxxxxxxxxxxxxxxxxxxxxxxxxxxxxxxxxxxxxxxxxxxx


------------------------------------------------------------------------ <-- SCF
SCF loop      Energy                           Energy gain       Timer   <-- SCF
                                               per atom          (sec)   <-- SCF
------------------------------------------------------------------------ <-- SCF
Initial  -3.52876232E+002                                        219.51  <-- SCF
      1  -3.52971614E+002                    3.97424154E-003     222.65  <-- SCF
      2  -3.52971977E+002                    1.51464370E-005     226.20  <-- SCF
      3  -3.52963750E+002                   -3.42808408E-004     229.65  <-- SCF
      4  -3.52963703E+002                   -1.95498410E-006     233.20  <-- SCF
      5  -3.52963703E+002                    1.73511189E-008     236.79  <-- SCF
      6  -3.52963703E+002                    1.06909852E-009     240.40  <-- SCF
      7  -3.52963703E+002                    4.94911807E-011     242.96  <-- SCF
      8  -3.52963703E+002                    4.98476670E-012     245.81  <-- SCF
      9  -3.52963703E+002                    5.03511788E-014     248.28  <-- SCF
------------------------------------------------------------------------ <-- SCF
 
Final energy =  -352.9637033716     eV
(energy not corrected for finite basis set)
 

 ******************************** Symmetrised Forces ********************************
 *                                                                                  *
 *                           Cartesian components (eV/A)                            *
 * -------------------------------------------------------------------------------- *
 *                         x                    y                    z              *
 *                                                                                  *
 * H               1     -0.09693             -0.03154             -0.00783         *
 * H               2     -0.07502              0.03662              0.02654         *
 * H               3      0.00000             -0.49773              0.00000         *
 * H               4      0.00000              0.50196              0.00000         *
 * H               5      0.09693             -0.03154              0.00783         *
 * H               6      0.07502              0.03662             -0.02654         *
 * H               7     -0.09693             -0.03154             -0.00783         *
 * H               8     -0.07502              0.03662              0.02654         *
 * H               9      0.00000             -0.49773              0.00000         *
 * H              10      0.00000              0.50196              0.00000         *
 * H              11      0.09693             -0.03154              0.00783         *
 * H              12      0.07502              0.03662             -0.02654         *
 * H              13      0.09693              0.03154              0.00783         *
 * H              14      0.07502             -0.03662             -0.02654         *
 * H              15      0.00000              0.49773             -0.00000         *
 * H              16      0.00000             -0.50196              0.00000         *
 * H              17     -0.09693              0.03154             -0.00783         *
 * H              18     -0.07502             -0.03662              0.02654         *
 * H              19      0.09693              0.03154              0.00783         *
 * H              20      0.07502             -0.03662             -0.02654         *
 * H              21      0.00000              0.49773             -0.00000         *
 * H              22      0.00000             -0.50196             -0.00000         *
 * H              23     -0.09693              0.03154             -0.00783         *
 * H              24     -0.07502             -0.03662              0.02654         *
 *                                                                                  *
 ************************************************************************************

 *********** Symmetrised Stress Tensor ***********
 *                                               *
 *          Cartesian components (GPa)           *
 * --------------------------------------------- *
 *             x             y             z     *
 *                                               *
 *  x   -179.578986      0.000000     -0.058603  *
 *  y      0.000000   -186.762024      0.000000  *
 *  z     -0.058603      0.000000   -180.541700  *
 *                                               *
 *  Pressure:  182.2942                          *
 *                                               *
 *************************************************
  
 +------------+-------------+-------------+-----------------+ <-- min LBFGS
 |    Step    |   lambda    |   F.delta'  |    enthalpy     | <-- min LBFGS
 +------------+-------------+-------------+-----------------+ <-- min LBFGS
 |  previous  |    0.000000 |    0.028482 |     -304.468457 | <-- min LBFGS
 | trial step |    1.000000 |   -0.129399 |     -304.453966 | <-- min LBFGS
 +------------+-------------+-------------+-----------------+ <-- min LBFGS
  

--------------------------------------------------------------------------------
 LBFGS: improving iteration         4 with line minimization (lambda=  0.180399)
--------------------------------------------------------------------------------

                           -------------------------------
                                      Unit Cell
                           -------------------------------
        Real Lattice(A)              Reciprocal Lattice(1/A)
     5.2947074     0.0000000     0.0005886        1.186520278   0.000000000   1.541899692
     0.0000000     3.0166556     0.0000000        0.000000000   2.082831488   0.000000000
    -3.5187416     0.0000000     2.7077366       -0.000257929   0.000000000   2.320121434

                       Lattice parameters(A)       Cell Angles
                    a =      5.294707          alpha =   90.000000
                    b =      3.016656          beta  =  142.414684
                    c =      4.439975          gamma =   90.000000

                Current cell volume =            43.255053 A**3

                           -------------------------------
                                     Cell Contents
                           -------------------------------

            xxxxxxxxxxxxxxxxxxxxxxxxxxxxxxxxxxxxxxxxxxxxxxxxxxxxxxxxxxxxxxxxx
            x  Element         Atom        Fractional coordinates of atoms  x
            x                 Number           u          v          w      x
            x---------------------------------------------------------------x
            x  H                 1         0.266478  -0.078290   0.256592   x
            x  H                 2         0.341335   0.304856   0.219305   x
            x  H                 3         0.500000   0.103701   0.750000   x
            x  H                 4         0.500000   0.349533   0.750000   x
            x  H                 5         0.733522  -0.078290   0.243408   x
            x  H                 6         0.658665   0.304856   0.280695   x
            x  H                 7         0.766478   0.421710   0.256592   x
            x  H                 8         0.841335   0.804856   0.219305   x
            x  H                 9        -0.000000   0.603701   0.750000   x
            x  H                10         0.000000   0.849533   0.750000   x
            x  H                11         0.233522   0.421710   0.243408   x
            x  H                12         0.158665   0.804856   0.280695   x
            x  H                13         0.233522   0.578290   0.743408   x
            x  H                14         0.158665   0.195144   0.780695   x
            x  H                15         0.000000   0.396299   0.250000   x
            x  H                16        -0.000000   0.150467   0.250000   x
            x  H                17         0.766478   0.578290   0.756592   x
            x  H                18         0.841335   0.195144   0.719305   x
            x  H                19         0.733522   1.078290   0.743408   x
            x  H                20         0.658665   0.695144   0.780695   x
            x  H                21         0.500000   0.896299   0.250000   x
            x  H                22         0.500000   0.650467   0.250000   x
            x  H                23         0.266478   1.078290   0.756592   x
            x  H                24         0.341335   0.695144   0.719305   x
            xxxxxxxxxxxxxxxxxxxxxxxxxxxxxxxxxxxxxxxxxxxxxxxxxxxxxxxxxxxxxxxxx


[...]
      H    18      S                    1.037
      H    19      S                    0.963
      H    20      S                    1.035
      H    21      S                    1.031
      H    22      S                    0.973
      H    23      S                    0.961
      H    24      S                    1.037
  -------------------------------------------
                           Total:      24.000
  -------------------------------------------

     Atomic Populations (Mulliken)
     -----------------------------
Species          Ion     s      p      d      f     Total  Charge (e)
=====================================================================
  H               1     0.96   0.00   0.00   0.00   0.96     0.04
  H               2     1.04   0.00   0.00   0.00   1.04    -0.04
  H               3     1.03   0.00   0.00   0.00   1.03    -0.03
  H               4     0.97   0.00   0.00   0.00   0.97     0.03
  H               5     0.96   0.00   0.00   0.00   0.96     0.04
  H               6     1.04   0.00   0.00   0.00   1.04    -0.04
  H               7     0.96   0.00   0.00   0.00   0.96     0.04
  H               8     1.04   0.00   0.00   0.00   1.04    -0.04
  H               9     1.03   0.00   0.00   0.00   1.03    -0.03
  H              10     0.97   0.00   0.00   0.00   0.97     0.03
  H              11     0.96   0.00   0.00   0.00   0.96     0.04
  H              12     1.04   0.00   0.00   0.00   1.04    -0.04
  H              13     0.96   0.00   0.00   0.00   0.96     0.04
  H              14     1.04   0.00   0.00   0.00   1.04    -0.04
  H              15     1.03   0.00   0.00   0.00   1.03    -0.03
  H              16     0.97   0.00   0.00   0.00   0.97     0.03
  H              17     0.96   0.00   0.00   0.00   0.96     0.04
  H              18     1.04   0.00   0.00   0.00   1.04    -0.04
  H              19     0.96   0.00   0.00   0.00   0.96     0.04
  H              20     1.04   0.00   0.00   0.00   1.04    -0.04
  H              21     1.03   0.00   0.00   0.00   1.03    -0.03
  H              22     0.97   0.00   0.00   0.00   0.97     0.03
  H              23     0.96   0.00   0.00   0.00   0.96     0.04
  H              24     1.04   0.00   0.00   0.00   1.04    -0.04
=====================================================================

                 Bond                   Population      Length (A)
======================================================================
              H 15 -- H 16                   1.61        0.74180
              H 3  -- H 4                    1.61        0.74180
              H 21 -- H 22                   1.61        0.74180
              H 9  -- H 10                   1.61        0.74180
              H 13 -- H 24                   1.61        0.74728
              H 17 -- H 20                   1.61        0.74728
              H 1  -- H 12                   1.61        0.74728
              H 2  -- H 11                   1.61        0.74728
              H 5  -- H 8                    1.61        0.74728
              H 14 -- H 23                   1.61        0.74728
              H 6  -- H 7                    1.61        0.74728
              H 18 -- H 19                   1.61        0.74728
              H 9  -- H 17                   0.11        1.26606
              H 3  -- H 19                   0.11        1.26606
              H 9  -- H 13                   0.11        1.26606
              H 7  -- H 15                   0.11        1.26606
              H 5  -- H 21                   0.11        1.26606
              H 3  -- H 23                   0.11        1.26606
              H 1  -- H 21                   0.11        1.26606
              H 11 -- H 15                   0.11        1.26606
              H 4  -- H 20                  -0.01        1.28053
              H 4  -- H 24                  -0.01        1.28053
              H 12 -- H 16                  -0.01        1.28053
              H 8  -- H 16                  -0.01        1.28053
              H 10 -- H 18                  -0.01        1.28053
              H 10 -- H 14                  -0.01        1.28053
              H 6  -- H 22                  -0.01        1.28053
              H 2  -- H 22                  -0.01        1.28053
              H 1  -- H 2                   -0.13        1.28053
              H 5  -- H 6                   -0.13        1.28053
              H 7  -- H 8                   -0.13        1.28053
              H 11 -- H 12                  -0.13        1.28053
              H 19 -- H 20                  -0.13        1.28053
              H 23 -- H 24                  -0.13        1.28053
              H 17 -- H 18                  -0.13        1.28053
              H 13 -- H 14                  -0.13        1.28053
              H 6  -- H 18                   0.03        1.36152
              H 2  -- H 14                   0.03        1.36152
              H 12 -- H 24                   0.03        1.36152
              H 8  -- H 20                   0.03        1.36152
              H 9  -- H 18                  -0.21        1.42654
              H 9  -- H 14                  -0.21        1.42654
              H 6  -- H 21                  -0.21        1.42654
              H 2  -- H 21                  -0.21        1.42654
              H 3  -- H 20                  -0.21        1.42654
              H 12 -- H 15                  -0.21        1.42654
              H 8  -- H 15                  -0.21        1.42654
              H 3  -- H 24                  -0.21        1.42654
              H 17 -- H 22                   0.01        1.43887
              H 16 -- H 19                   0.01        1.43887
              H 13 -- H 22                   0.01        1.43887
              H 16 -- H 23                   0.01        1.43887
              H 5  -- H 10                   0.01        1.43887
              H 4  -- H 7                    0.01        1.43887
              H 4  -- H 11                   0.01        1.43887
              H 1  -- H 10                   0.01        1.43887
              H 14 -- H 18                  -0.05        1.46106
              H 20 -- H 24                  -0.05        1.46106
              H 8  -- H 12                  -0.05        1.46106
              H 2  -- H 6                   -0.05        1.46106
              H 10 -- H 17                  -0.13        1.50098
              H 10 -- H 13                  -0.13        1.50098
              H 4  -- H 19                  -0.13        1.50098
              H 4  -- H 23                  -0.13        1.50098
              H 7  -- H 16                  -0.13        1.50098
              H 5  -- H 22                  -0.13        1.50098
              H 1  -- H 22                  -0.13        1.50098
              H 11 -- H 16                  -0.13        1.50098
              H 17 -- H 19                  -0.23        1.51442
              H 13 -- H 23                  -0.23        1.51442
              H 1  -- H 11                  -0.23        1.51442
              H 5  -- H 7                   -0.23        1.51442
              H 9  -- H 11                  -0.02        1.52811
              H 7  -- H 9                   -0.02        1.52811
              H 1  -- H 3                   -0.02        1.52811
              H 21 -- H 23                  -0.02        1.52811
              H 3  -- H 5                   -0.02        1.52811
              H 19 -- H 21                  -0.02        1.52811
              H 15 -- H 17                  -0.02        1.52811
              H 13 -- H 15                  -0.02        1.52811
              H 11 -- H 22                  -0.15        1.55006
              H 1  -- H 16                  -0.15        1.55006
              H 7  -- H 22                  -0.15        1.55006
              H 5  -- H 16                  -0.15        1.55006
              H 10 -- H 23                  -0.15        1.55006
              H 10 -- H 19                  -0.15        1.55006
              H 4  -- H 13                  -0.15        1.55006
              H 4  -- H 17                  -0.15        1.55006
              H 18 -- H 21                  -0.14        1.56878
              H 15 -- H 24                  -0.14        1.56878
              H 15 -- H 20                  -0.14        1.56878
              H 14 -- H 21                  -0.14        1.56878
              H 6  -- H 9                   -0.14        1.56878
              H 3  -- H 12                  -0.14        1.56878
              H 2  -- H 9                   -0.14        1.56878
              H 3  -- H 8                   -0.14        1.56878
              H 12 -- H 17                  -0.16        1.58736
              H 8  -- H 13                  -0.16        1.58736
              H 6  -- H 23                  -0.16        1.58736
              H 2  -- H 19                  -0.16        1.58736
              H 11 -- H 18                  -0.16        1.58736
              H 7  -- H 14                  -0.16        1.58736
              H 5  -- H 24                  -0.16        1.58736
              H 1  -- H 20                  -0.16        1.58736
              H 1  -- H 19                  -0.14        1.60223
              H 5  -- H 23                  -0.14        1.60223
              H 7  -- H 13                  -0.14        1.60223
              H 11 -- H 17                  -0.14        1.60223
              H 4  -- H 15                  -0.21        1.62643
              H 3  -- H 16                  -0.21        1.62643
              H 10 -- H 21                  -0.21        1.62643
              H 9  -- H 22                  -0.21        1.62643
              H 6  -- H 14                  -0.13        1.65171
              H 2  -- H 18                  -0.13        1.65171
              H 8  -- H 24                  -0.13        1.65171
              H 12 -- H 20                  -0.13        1.65171
              H 11 -- H 20                  -0.15        1.70893
              H 8  -- H 23                  -0.15        1.70893
              H 7  -- H 24                  -0.15        1.70893
              H 12 -- H 19                  -0.15        1.70893
              H 1  -- H 18                  -0.15        1.70893
              H 5  -- H 14                  -0.15        1.70893
              H 6  -- H 13                  -0.15        1.70893
              H 2  -- H 17                  -0.15        1.70893
              H 17 -- H 21                  -0.12        1.71630
              H 15 -- H 23                  -0.12        1.71630
              H 15 -- H 19                  -0.12        1.71630
              H 13 -- H 21                  -0.12        1.71630
              H 3  -- H 11                  -0.12        1.71630
              H 3  -- H 7                   -0.12        1.71630
              H 5  -- H 9                   -0.12        1.71630
              H 1  -- H 9                   -0.12        1.71630
              H 10 -- H 22                  -0.26        1.72344
              H 4  -- H 16                  -0.26        1.72344
              H 8  -- H 10                  -0.08        1.77237
              H 2  -- H 4                   -0.08        1.77237
              H 10 -- H 12                  -0.08        1.77237
              H 4  -- H 6                   -0.08        1.77237
              H 22 -- H 24                  -0.08        1.77237
              H 20 -- H 22                  -0.08        1.77237
              H 16 -- H 18                  -0.08        1.77237
              H 14 -- H 16                  -0.08        1.77237
              H 3  -- H 15                  -0.35        1.84955
              H 9  -- H 21                  -0.35        1.84955
              H 2  -- H 3                   -0.13        1.86958
              H 3  -- H 6                   -0.13        1.86958
              H 15 -- H 18                  -0.13        1.86958
              H 14 -- H 15                  -0.13        1.86958
              H 8  -- H 9                   -0.13        1.86958
              H 9  -- H 12                  -0.13        1.86958
              H 21 -- H 24                  -0.13        1.86958
              H 20 -- H 21                  -0.13        1.86958
              H 12 -- H 13                  -0.10        1.87947
              H 11 -- H 14                  -0.10        1.87947
              H 7  -- H 18                  -0.10        1.87947
              H 8  -- H 17                  -0.10        1.87947
              H 6  -- H 19                  -0.10        1.87947
              H 2  -- H 23                  -0.10        1.87947
              H 1  -- H 24                  -0.10        1.87947
              H 5  -- H 20                  -0.10        1.87947
              H 18 -- H 22                  -0.25        1.88358
              H 14 -- H 22                  -0.25        1.88358
              H 6  -- H 10                  -0.25        1.88358
              H 2  -- H 10                  -0.25        1.88358
              H 16 -- H 24                  -0.25        1.88358
              H 16 -- H 20                  -0.25        1.88358
              H 4  -- H 12                  -0.25        1.88358
              H 4  -- H 8                   -0.25        1.88358
              H 7  -- H 20                  -0.05        1.89156
              H 11 -- H 24                  -0.05        1.89156
              H 5  -- H 18                  -0.05        1.89156
              H 8  -- H 19                  -0.05        1.89156
              H 1  -- H 14                  -0.05        1.89156
              H 12 -- H 23                  -0.05        1.89156
              H 6  -- H 17                  -0.05        1.89156
              H 2  -- H 13                  -0.05        1.89156
              H 1  -- H 17                  -0.26        1.91817
              H 5  -- H 13                  -0.26        1.91817
              H 11 -- H 19                  -0.26        1.91817
              H 7  -- H 23                  -0.26        1.91817
              H 10 -- H 11                  -0.15        1.92331
              H 7  -- H 10                  -0.15        1.92331
              H 1  -- H 4                   -0.15        1.92331
              H 4  -- H 5                   -0.15        1.92331
              H 22 -- H 23                  -0.15        1.92331
              H 19 -- H 22                  -0.15        1.92331
              H 13 -- H 16                  -0.15        1.92331
              H 16 -- H 17                  -0.15        1.92331
              H 2  -- H 12                  -0.32        1.93144
              H 6  -- H 8                   -0.32        1.93144
              H 14 -- H 24                  -0.32        1.93144
              H 18 -- H 20                  -0.32        1.93144
              H 2  -- H 15                  -0.14        1.94322
              H 12 -- H 21                  -0.14        1.94322
              H 9  -- H 24                  -0.14        1.94322
              H 8  -- H 21                  -0.14        1.94322
              H 6  -- H 15                  -0.14        1.94322
              H 9  -- H 20                  -0.14        1.94322
              H 3  -- H 14                  -0.14        1.94322
              H 3  -- H 18                  -0.14        1.94322
              H 2  -- H 20                  -0.12        1.94599
              H 8  -- H 14                  -0.12        1.94599
              H 12 -- H 18                  -0.12        1.94599
              H 6  -- H 24                  -0.12        1.94599
              H 2  -- H 16                  -0.20        1.97608
              H 6  -- H 16                  -0.20        1.97608
              H 12 -- H 22                  -0.20        1.97608
              H 10 -- H 24                  -0.20        1.97608
              H 8  -- H 22                  -0.20        1.97608
              H 4  -- H 14                  -0.20        1.97608
              H 4  -- H 18                  -0.20        1.97608
              H 10 -- H 20                  -0.20        1.97608
              H 1  -- H 15                  -0.31        1.99799
              H 5  -- H 15                  -0.31        1.99799
              H 11 -- H 21                  -0.31        1.99799
              H 7  -- H 21                  -0.31        1.99799
              H 9  -- H 23                  -0.31        1.99799
              H 3  -- H 13                  -0.31        1.99799
              H 9  -- H 19                  -0.31        1.99799
              H 3  -- H 17                  -0.31        1.99799
              H 13 -- H 20                  -0.07        2.14015
              H 18 -- H 23                  -0.07        2.14015
              H 1  -- H 8                   -0.07        2.14015
              H 17 -- H 24                  -0.07        2.14015
              H 6  -- H 11                  -0.07        2.14015
              H 14 -- H 19                  -0.07        2.14015
              H 5  -- H 12                  -0.07        2.14015
              H 2  -- H 7                   -0.07        2.14015
              H 5  -- H 19                  -0.07        2.27187
              H 1  -- H 23                  -0.07        2.27187
              H 11 -- H 13                  -0.07        2.27187
              H 7  -- H 17                  -0.07        2.27187
              H 2  -- H 5                   -0.00        2.30357
              H 1  -- H 6                   -0.00        2.30357
              H 7  -- H 12                  -0.00        2.30357
              H 19 -- H 24                  -0.00        2.30357
              H 14 -- H 17                  -0.00        2.30357
              H 20 -- H 23                  -0.00        2.30357
              H 8  -- H 11                  -0.00        2.30357
              H 13 -- H 18                  -0.00        2.30357
              H 9  -- H 15                  -0.00        2.30412
              H 3  -- H 21                  -0.00        2.30412
              H 5  -- H 17                  -0.08        2.38251
              H 1  -- H 13                  -0.08        2.38251
              H 7  -- H 19                  -0.08        2.38251
              H 11 -- H 23                  -0.08        2.38251
              H 4  -- H 22                   0.03        2.40317
              H 10 -- H 16                   0.03        2.40317
              H 8  -- H 18                   0.02        2.51626
              H 2  -- H 24                   0.02        2.51626
              H 12 -- H 14                   0.02        2.51626
              H 6  -- H 20                   0.02        2.51626
              H 19 -- H 23                  -0.04        2.52854
              H 13 -- H 17                  -0.04        2.52854
              H 7  -- H 11                  -0.04        2.52854
              H 1  -- H 5                   -0.04        2.52854
              H 9  -- H 16                   0.03        2.60245
              H 4  -- H 21                   0.03        2.60245
              H 10 -- H 15                   0.03        2.60245
              H 3  -- H 22                   0.03        2.60245
======================================================================


Writing analysis data to C2c.castep_bin

Writing model to C2c.check
 
 A BibTeX formatted list of references used in this run has been written to 
 C2c.bib
 
Initialisation time =      1.73 s
Calculation time    =    732.06 s
Finalisation time   =      8.33 s
Total time          =    742.11 s
Peak Memory Use     = 566372 kB
  
Overall parallel efficiency rating: Excellent (90%)                             
  
Data was distributed by:-
k-point (16-way); efficiency rating: Excellent (90%)                            
