 +-------------------------------------------------+
 |                                                 |
 |      CCC   AA    SSS  TTTTT  EEEEE  PPPP        |
 |     C     A  A  S       T    E      P   P       |
 |     C     AAAA   SS     T    EEE    PPPP        |
 |     C     A  A     S    T    E      P           |
 |      CCC  A  A  SSS     T    EEEEE  P           |
 |                                                 |
 +-------------------------------------------------+
 |                                                 |
 | Welcome to Academic Release CASTEP version 18.1 |          
 | Ab Initio Total Energy Program                  |
 |                                                 |
 | Authors:                                        |
 | M. Segall, M. Probert, C. Pickard, P. Hasnip,   |
 | S. Clark, K. Refson, J. R. Yates, M. Payne      |
 |                                                 |
 | Contributors:                                   |
 | P. Lindan, P. Haynes, J. White, V. Milman,      |
 | N. Govind, M. Gibson, P. Tulip, V. Cocula,      |
 | B. Montanari, D. Quigley, M. Glover,            |
 | L. Bernasconi, A. Perlov, M. Plummer,           |
 | E. McNellis, J. Meyer, J. Gale, D. Jochym       |
 | J. Aarons, B. Walker, R. Gillen, D. Jones       |
 | T. Green, I. J. Bush, C. J. Armstrong,          |
 | E. J. Higgins, E. L. Brown, M. S. McFly,        |
 | J. Wilkins, B-C. Shih, P. J. P. Byrne           |
 |                                                 |
 | Copyright (c) 2000 - 2017                       |
 |                                                 |
 |     Distributed under the terms of an           |
 |     Agreement between the United Kingdom        |
 |     Car-Parrinello (UKCP) Consortium,           |
 |     Daresbury Laboratory and Accelrys, Inc.     |
 |                                                 |
 | Please cite                                     |
 |                                                 |
 |     "First principles methods using CASTEP"     |
 |                                                 |
 |         Zeitschrift fuer Kristallographie       |
 |           220(5-6) pp. 567-570 (2005)           |
 |                                                 |
 | S. J. Clark, M. D. Segall, C. J. Pickard,       |
 | P. J. Hasnip, M. J. Probert, K. Refson,         |
 | M. C. Payne                                     |
 |                                                 |
 |       in all publications arising from          |
 |              your use of CASTEP                 |
 |                                                 |
 +-------------------------------------------------+


 Compiled for linux_x86_64_gfortran4.8 on Thu, 19 Jul 2018 15:42:32 +0100
 from code version 70483bd0ad64+  Sun, 10 Dec 2017 12:18:29 +0000
 Compiler: GNU Fortran 4.8.5; Optimisation: fast
 MATHLIBS: Intel MKL(2018.0.0) (LAPACK version 3.7.0)
 FFT Lib : mkl
 Fundamental constants values: CODATA 2014

 Run started: Tue, 11 Aug 2020 18:26:12 +0100

 Atomic calculation performed for H: 1s1

 Converged in 41 iterations to an ae energy of -12.488 eV

   ============================================================                
   | Pseudopotential Report - Date of generation 11-08-2020   |                
   ------------------------------------------------------------                
   | Element: H Ionic charge:  1.00 Level of theory: PBE      |                
   | Atomic Solver: Koelling-Harmon                           |                
   |                                                          |                
   |               Reference Electronic Structure             |                
   |         Orbital         Occupation         Energy        |                
   |            1s              1.000           -0.239        |                
   |                                                          |                
   |                 Pseudopotential Definition               |                
   |        Beta     l      e      Rc     scheme   norm       |                
   |         loc     0   -0.239   0.702     qc      1         |                
   |                                                          |                
   | No charge augmentation                                   |                
   | No partial core correction                               |                
   ------------------------------------------------------------                
   | "0|0.7|2|6|8|10L(qc=10)"                                 |                
   ------------------------------------------------------------                
   |      Author: Chris J. Pickard, Cambridge University      |                
   ============================================================                

 Pseudo atomic calculation performed for H 1s1

 Converged in 24 iterations to a total energy of -12.4843 eV

 Calculation parallelised over 16 processes.
 Data is distributed by k-point(16-way)

 ************************************ Title ************************************
 

 ***************************** General Parameters ******************************
  
 output verbosity                               : normal  (1)
 write checkpoint data to                       : C2c.check
 type of calculation                            : geometry optimization
 stress calculation                             : on
 density difference calculation                 : off
 electron localisation func (ELF) calculation   : off
 Hirshfeld analysis                             : off
 unlimited duration calculation
 timing information                             : on
 memory usage estimate                          : on
 write extra output files                       : on
 write final potential to formatted file        : off
 write final density to formatted file          : off
 write structure in CELL formatted file         : on
 write BibTeX reference list                    : on
 write OTFG pseudopotential files               : on
 write electrostatic potential file             : on
 write bands file                               : on
 checkpoint writing                             : both castep_bin and check files
  
 output         length unit                     : A
 output           mass unit                     : amu
 output           time unit                     : ps
 output         charge unit                     : e
 output           spin unit                     : hbar/2
 output         energy unit                     : eV
 output          force unit                     : eV/A
 output       velocity unit                     : A/ps
 output       pressure unit                     : GPa
 output     inv_length unit                     : 1/A
 output      frequency unit                     : cm-1
 output force constant unit                     : eV/A**2
 output         volume unit                     : A**3
 output   IR intensity unit                     : (D/A)**2/amu
 output         dipole unit                     : D
 output         efield unit                     : eV/A/e
 output        entropy unit                     : J/mol/K
  
 wavefunctions paging                           : none
 random number generator seed                   : randomised (182612792)
 data distribution                              : optimal for this architecture
 optimization strategy                          : maximize speed(+++)

 *********************** Exchange-Correlation Parameters ***********************
  
 using functional                               : Perdew Burke Ernzerhof
 relativistic treatment                         : Koelling-Harmon
 DFT+D: Semi-empirical dispersion correction    : off

 ************************* Pseudopotential Parameters **************************
  
 pseudopotential representation                 : reciprocal space
 <beta|phi> representation                      : reciprocal space
 spin-orbit coupling                            : off

 **************************** Basis Set Parameters *****************************
  
 plane wave basis set cut-off                   :  1200.0000   eV
 size of standard grid                          :     2.0000
 size of   fine   gmax                          :    35.4943   1/A
 finite basis set correction                    : automatic
 number of sample energies                      :          3
           sample  spacing                      :     5.0000   eV

 **************************** Electronic Parameters ****************************
  
 number of  electrons                           :  24.00    
 net charge of system                           :  0.000    
 treating system as non-spin-polarized
 number of bands                                :         12

 ********************* Electronic Minimization Parameters **********************
  
 Method: Treating system as non-metallic,
         and number of  SD  steps               :          1
         and number of  CG  steps               :          4
  
 total energy / atom convergence tol.           : 0.1000E-10   eV
 eigen-energy convergence tolerance             : 0.2000E-10   eV
 max force / atom convergence tol.              : ignored
 convergence tolerance window                   :          3   cycles
 max. number of SCF cycles                      :        100
 periodic dipole correction                     : NONE

 ************************** Density Mixing Parameters **************************
  
 density-mixing scheme                          : Broyden
 max. length of mixing history                  :         20
 charge density mixing amplitude                : 0.8000    
 cut-off energy for mixing                      :  1200.       eV

 *********************** Population Analysis Parameters ************************
  
 Population analysis with cutoff                :  3.000       A
 Population analysis output                     : summary and pdos components

 ********************** Geometry Optimization Parameters ***********************
  
 optimization method                            : LBFGS
 max. no. of LBFGS updates                      : unbounded
 variable cell method                           : fixed basis quality
 max. number of steps                           :         60
 estimated bulk modulus                         :  500.0       GPa
 estimated <frequency>                          :  1668.       cm-1
 geom line minimiser                            : on
 with line minimiser tolerance                  :     0.4000
 total energy convergence tolerance             : 0.1000E-08   eV/atom
        max ionic |force| tolerance             : 0.1000E-04   eV/A
 max ionic |displacement| tolerance             : 0.1000E-04   A
   max |stress component| tolerance             : 0.1000E-04   GPa
 convergence tolerance window                   :          2   steps
 backup results every                           :      14400   seconds
 write geom trajectory file                     : on

 *******************************************************************************
  

                           -------------------------------
                                      Unit Cell
                           -------------------------------
        Real Lattice(A)                      Reciprocal Lattice(1/A)
     5.2937630     0.0000000    -0.0002722        1.186982668   0.000000000   1.541663342
     0.0000000     3.0187941     0.0000000        0.000000000   2.081356051   0.000000000
    -3.5185538     0.0000000     2.7090625        0.000119264   0.000000000   2.319475827

                       Lattice parameters(A)       Cell Angles
                    a =      5.293763          alpha =   90.000000
                    b =      3.018794          beta  =  142.408964
                    c =      4.440635          gamma =   90.000000

                       Current cell volume =            43.290041       A**3
                                   density =             0.558802   AMU/A**3
                                           =             0.927912     g/cm^3

                           -------------------------------
                                     Cell Contents
                           -------------------------------
                         Total number of ions in cell =   24
                      Total number of species in cell =    1
                        Max number of any one species =   24

            xxxxxxxxxxxxxxxxxxxxxxxxxxxxxxxxxxxxxxxxxxxxxxxxxxxxxxxxxxxx
            x  Element    Atom        Fractional coordinates of atoms  x
            x            Number           u          v          w      x
            x----------------------------------------------------------x
            x  H            1         0.265339  -0.079705   0.256229   x 
            x  H            2         0.343299   0.303904   0.220628   x 
            x  H            3         0.500000   0.101985   0.750000   x 
            x  H            4         0.500000   0.347711   0.750000   x 
            x  H            5         0.734661  -0.079705   0.243771   x 
            x  H            6         0.656701   0.303904   0.279372   x 
            x  H            7         0.765339   0.420295   0.256229   x 
            x  H            8         0.843299   0.803904   0.220628   x 
            x  H            9        -0.000000   0.601985   0.750000   x 
            x  H           10         0.000000   0.847711   0.750000   x 
            x  H           11         0.234661   0.420295   0.243771   x 
            x  H           12         0.156701   0.803904   0.279372   x 
            x  H           13         0.234661   0.579705   0.743771   x 
            x  H           14         0.156701   0.196096   0.779372   x 
            x  H           15         0.000000   0.398015   0.250000   x 
            x  H           16        -0.000000   0.152289   0.250000   x 
            x  H           17         0.765339   0.579705   0.756229   x 
            x  H           18         0.843299   0.196096   0.720628   x 
            x  H           19         0.734661   1.079705   0.743771   x 
            x  H           20         0.656701   0.696096   0.779372   x 
            x  H           21         0.500000   0.898015   0.250000   x 
            x  H           22         0.500000   0.652289   0.250000   x 
            x  H           23         0.265339   1.079705   0.756229   x 
            x  H           24         0.343299   0.696096   0.720628   x 
            xxxxxxxxxxxxxxxxxxxxxxxxxxxxxxxxxxxxxxxxxxxxxxxxxxxxxxxxxxxx


                         No user defined ionic velocities

                           -------------------------------
                                   Details of Species
                           -------------------------------

                               Mass of species in AMU
                                    H    1.0079400

                          Electric Quadrupole Moment (Barn)
                                    H    0.0028600 Isotope  2

                          Files used for pseudopotentials:
                                    H 0|0.7|2|6|8|10L(qc=10)

                           -------------------------------
                              k-Points For BZ Sampling
                           -------------------------------
                       MP grid size for SCF calculation is 10 10 10
                            with an offset of   0.000  0.000  0.000
                       Number of kpoints used =           250

                           -------------------------------
                               Symmetry and Constraints
                           -------------------------------

                      Cell is a supercell containing 2 primitive cells
                      Maximum deviation from symmetry = 0.351911E-14     ANG

                      Number of symmetry operations   =           8
                      Number of ionic constraints     =           3
                      Point group of crystal =     5: C2h, 2/m, 2/m
                      Space group of crystal =    15: C2/c, -C 2yc

             Set iprint > 1 for details on symmetry rotations/translations

                         Centre of mass is constrained
             Set iprint > 1 for details of linear ionic constraints

                         Number of cell constraints= 2
                         Cell constraints are:  1 2 3 0 5 0

                         External pressure/stress (GPa)
                        150.00000   0.00000   0.00000
                                  150.00000   0.00000
                                            150.00000
  
+---------------- MEMORY AND SCRATCH DISK ESTIMATES PER PROCESS --------------+
|                                                     Memory          Disk    |
| Baseline code, static data and system overhead      413.0 MB         0.0 MB |
| BLAS internal memory storage                          0.0 MB         0.0 MB |
| Model and support data                               49.4 MB         0.0 MB |
| Electronic energy minimisation requirements          46.4 MB         0.0 MB |
| Force calculation requirements                       13.3 MB         0.0 MB |
| Stress calculation requirements                      16.9 MB         0.0 MB |
|                                               ----------------------------- |
| Approx. total storage required per process          508.8 MB         0.0 MB |
|                                                                             |
| Requirements will fluctuate during execution and may exceed these estimates |
+-----------------------------------------------------------------------------+
Calculating finite basis set correction with  3 cut-off energies.
Calculating total energy with cut-off of 1190.000 eV.
------------------------------------------------------------------------ <-- SCF
SCF loop      Energy                           Energy gain       Timer   <-- SCF
                                               per atom          (sec)   <-- SCF
------------------------------------------------------------------------ <-- SCF
Initial   5.61048232E+002                                          3.05  <-- SCF
      1  -2.94147732E+002                    3.56331652E+001       6.30  <-- SCF
      2  -3.53419602E+002                    2.46966128E+000       8.64  <-- SCF
      3  -3.53132015E+002                   -1.19827900E-002      11.84  <-- SCF
      4  -3.53101056E+002                   -1.28998763E-003      15.19  <-- SCF
      5  -3.53101717E+002                    2.75675847E-005      18.54  <-- SCF
      6  -3.53101768E+002                    2.10831170E-006      21.71  <-- SCF
      7  -3.53101768E+002                    4.88786485E-009      24.90  <-- SCF
      8  -3.53101768E+002                    5.41385945E-010      28.30  <-- SCF
      9  -3.53101768E+002                    8.39857663E-012      30.71  <-- SCF
     10  -3.53101768E+002                    1.13390855E-012      33.04  <-- SCF
------------------------------------------------------------------------ <-- SCF
 
Final energy =  -353.1017680100     eV
(energy not corrected for finite basis set)
 
Calculating total energy with cut-off of 1195.000 eV.
------------------------------------------------------------------------ <-- SCF
SCF loop      Energy                           Energy gain       Timer   <-- SCF
                                               per atom          (sec)   <-- SCF
------------------------------------------------------------------------ <-- SCF
Initial  -3.53101768E+002                                         34.37  <-- SCF
      1  -3.53103690E+002                    8.00805876E-005      37.39  <-- SCF
      2  -3.53103690E+002                    1.39867519E-010      40.92  <-- SCF
      3  -3.53103691E+002                    2.88059779E-008      44.51  <-- SCF
      4  -3.53103691E+002                    1.36165700E-009      48.39  <-- SCF
      5  -3.53103691E+002                    6.54847291E-011      50.97  <-- SCF
      6  -3.53103691E+002                    3.57493370E-012      53.65  <-- SCF
      7  -3.53103691E+002                    1.87306385E-013      56.34  <-- SCF
------------------------------------------------------------------------ <-- SCF
 
Final energy =  -353.1036906732     eV
(energy not corrected for finite basis set)
 
Calculating total energy with cut-off of 1200.000 eV.
------------------------------------------------------------------------ <-- SCF
SCF loop      Energy                           Energy gain       Timer   <-- SCF
                                               per atom          (sec)   <-- SCF
------------------------------------------------------------------------ <-- SCF
Initial  -3.53103691E+002                                         57.70  <-- SCF
      1  -3.53105509E+002                    7.57455983E-005      60.88  <-- SCF
      2  -3.53105509E+002                    1.29980561E-010      64.52  <-- SCF
      3  -3.53105509E+002                    2.63120921E-008      68.29  <-- SCF
      4  -3.53105509E+002                    1.21750157E-009      71.84  <-- SCF
      5  -3.53105509E+002                    5.88927528E-011      74.40  <-- SCF
      6  -3.53105509E+002                    3.28088281E-012      77.07  <-- SCF
      7  -3.53105509E+002                   -5.76017486E-013      79.46  <-- SCF
------------------------------------------------------------------------ <-- SCF
 
Final energy =  -353.1055092328     eV
(energy not corrected for finite basis set)
 
 For future reference: finite basis dEtot/dlog(Ecut) =      -0.445701eV
 Total energy corrected for finite basis set =    -353.105509 eV
 
+---------------- MEMORY AND SCRATCH DISK ESTIMATES PER PROCESS --------------+
|                                                     Memory          Disk    |
| Model and support data                               55.0 MB         0.0 MB |
| Electronic energy minimisation requirements          46.4 MB         0.0 MB |
| Geometry minimisation requirements                   60.7 MB         0.0 MB |
|                                               ----------------------------- |
| Approx. total storage required per process          162.1 MB         0.0 MB |
|                                                                             |
| Requirements will fluctuate during execution and may exceed these estimates |
+-----------------------------------------------------------------------------+
 

 ******************************** Symmetrised Forces ********************************
 *                                                                                  *
 *                           Cartesian components (eV/A)                            *
 * -------------------------------------------------------------------------------- *
 *                         x                    y                    z              *
 *                                                                                  *
 * H               1      0.00000              0.00000             -0.00000         *
 * H               2     -0.00000              0.00000             -0.00000         *
 * H               3      0.00000             -0.00000             -0.00000         *
 * H               4      0.00000              0.00000              0.00000         *
 * H               5     -0.00000              0.00000              0.00000         *
 * H               6      0.00000              0.00000              0.00000         *
 * H               7      0.00000              0.00000             -0.00000         *
 * H               8     -0.00000              0.00000             -0.00000         *
 * H               9     -0.00000             -0.00000             -0.00000         *
 * H              10      0.00000              0.00000              0.00000         *
 * H              11     -0.00000              0.00000              0.00000         *
 * H              12      0.00000              0.00000              0.00000         *
 * H              13     -0.00000             -0.00000              0.00000         *
 * H              14      0.00000             -0.00000              0.00000         *
 * H              15      0.00000              0.00000              0.00000         *
 * H              16      0.00000             -0.00000              0.00000         *
 * H              17      0.00000             -0.00000             -0.00000         *
 * H              18     -0.00000             -0.00000             -0.00000         *
 * H              19     -0.00000             -0.00000              0.00000         *
 * H              20      0.00000             -0.00000              0.00000         *
 * H              21      0.00000              0.00000              0.00000         *
 * H              22      0.00000             -0.00000              0.00000         *
 * H              23      0.00000             -0.00000             -0.00000         *
 * H              24     -0.00000             -0.00000             -0.00000         *
 *                                                                                  *
 ************************************************************************************

 *********** Symmetrised Stress Tensor ***********
 *                                               *
 *          Cartesian components (GPa)           *
 * --------------------------------------------- *
 *             x             y             z     *
 *                                               *
 *  x   -180.006255      0.000000     -0.000003  *
 *  y      0.000000   -180.006259      0.000000  *
 *  z     -0.000003      0.000000   -180.006249  *
 *                                               *
 *  Pressure:  180.0063                          *
 *                                               *
 *************************************************
 LBFGS: finished iteration     0 with enthalpy= -3.12576230E+002 eV
  
 +-----------+-----------------+-----------------+------------+-----+ <-- LBFGS
 | Parameter |      value      |    tolerance    |    units   | OK? | <-- LBFGS
 +-----------+-----------------+-----------------+------------+-----+ <-- LBFGS
 |  dE/ion   |   0.000000E+000 |   1.000000E-009 |         eV | No  | <-- LBFGS
 |  |F|max   |   1.356228E-007 |   1.000000E-005 |       eV/A | Yes | <-- LBFGS
 |  |dR|max  |   0.000000E+000 |   1.000000E-005 |          A | No  | <-- LBFGS
 |   Smax    |   3.000626E+001 |   1.000000E-005 |        GPa | No  | <-- LBFGS
 +-----------+-----------------+-----------------+------------+-----+ <-- LBFGS
  

================================================================================
 Starting LBFGS iteration          1 ...
================================================================================
  
 +------------+-------------+-------------+-----------------+ <-- min LBFGS
 |    Step    |   lambda    |   F.delta'  |    enthalpy     | <-- min LBFGS
 +------------+-------------+-------------+-----------------+ <-- min LBFGS
 |  previous  |    0.000000 |    0.516059 |     -312.576230 | <-- min LBFGS
 +------------+-------------+-------------+-----------------+ <-- min LBFGS
  

--------------------------------------------------------------------------------
 LBFGS: starting iteration         1 with trial guess (lambda=  1.000000)
--------------------------------------------------------------------------------
 
+---------------- MEMORY AND SCRATCH DISK ESTIMATES PER PROCESS --------------+
|                                                     Memory          Disk    |
| Model and support data                               57.6 MB         0.0 MB |
| Electronic energy minimisation requirements          49.3 MB         0.0 MB |
| Geometry minimisation requirements                   64.4 MB         0.0 MB |
|                                               ----------------------------- |
| Approx. total storage required per process          171.3 MB         0.0 MB |
|                                                                             |
| Requirements will fluctuate during execution and may exceed these estimates |
+-----------------------------------------------------------------------------+
 

                           -------------------------------
                                      Unit Cell
                           -------------------------------
        Real Lattice(A)              Reciprocal Lattice(1/A)
     5.3996603     0.0000000    -0.0002776        1.163703738   0.000000000   1.511428474
     0.0000000     3.0791826     0.0000000        0.000000000   2.040536799   0.000000000
    -3.5889395     0.0000000     2.7632550        0.000116921   0.000000000   2.273986621

                       Lattice parameters(A)       Cell Angles
                    a =      5.399660          alpha =   90.000000
                    b =      3.079183          beta  =  142.408964
                    c =      4.529466          gamma =   90.000000

                Current cell volume =            45.940302 A**3

                           -------------------------------
                                     Cell Contents
                           -------------------------------

            xxxxxxxxxxxxxxxxxxxxxxxxxxxxxxxxxxxxxxxxxxxxxxxxxxxxxxxxxxxxxxxxx
            x  Element         Atom        Fractional coordinates of atoms  x
            x                 Number           u          v          w      x
            x---------------------------------------------------------------x
            x  H                 1         0.265339  -0.079705   0.256229   x
            x  H                 2         0.343299   0.303904   0.220628   x
            x  H                 3         0.500000   0.101985   0.750000   x
            x  H                 4         0.500000   0.347711   0.750000   x
            x  H                 5         0.734661  -0.079705   0.243771   x
            x  H                 6         0.656701   0.303904   0.279372   x
            x  H                 7         0.765339   0.420295   0.256229   x
            x  H                 8         0.843299   0.803904   0.220628   x
            x  H                 9         0.000000   0.601985   0.750000   x
            x  H                10         0.000000   0.847711   0.750000   x
            x  H                11         0.234661   0.420295   0.243771   x
            x  H                12         0.156701   0.803904   0.279372   x
            x  H                13         0.234661   0.579705   0.743771   x
            x  H                14         0.156701   0.196096   0.779372   x
            x  H                15         0.000000   0.398015   0.250000   x
            x  H                16         0.000000   0.152289   0.250000   x
            x  H                17         0.765339   0.579705   0.756229   x
            x  H                18         0.843299   0.196096   0.720628   x
            x  H                19         0.734661   1.079705   0.743771   x
            x  H                20         0.656701   0.696096   0.779372   x
            x  H                21         0.500000   0.898015   0.250000   x
            x  H                22         0.500000   0.652289   0.250000   x
            x  H                23         0.265339   1.079705   0.756229   x
            x  H                24         0.343299   0.696096   0.720628   x
            xxxxxxxxxxxxxxxxxxxxxxxxxxxxxxxxxxxxxxxxxxxxxxxxxxxxxxxxxxxxxxxxx


------------------------------------------------------------------------ <-- SCF
SCF loop      Energy                           Energy gain       Timer   <-- SCF
                                               per atom          (sec)   <-- SCF
------------------------------------------------------------------------ <-- SCF
Initial  -3.55755452E+002                                         82.51  <-- SCF
      1  -3.55837976E+002                    3.43846711E-003      85.89  <-- SCF
      2  -3.55838236E+002                    1.08625390E-005      89.94  <-- SCF
      3  -3.55837080E+002                   -4.81639332E-005      93.94  <-- SCF
      4  -3.55837065E+002                   -6.42862688E-007      97.85  <-- SCF
      5  -3.55837066E+002                    4.75584003E-008     101.81  <-- SCF
      6  -3.55837066E+002                    4.38582332E-009     105.96  <-- SCF
      7  -3.55837066E+002                    1.53188426E-011     108.90  <-- SCF
      8  -3.55837066E+002                    1.29503232E-012     111.90  <-- SCF
      9  -3.55837066E+002                    8.05618861E-014     114.80  <-- SCF
------------------------------------------------------------------------ <-- SCF
 
Final energy =  -355.8370661605     eV
(energy not corrected for finite basis set)
 

 ******************************** Symmetrised Forces ********************************
 *                                                                                  *
 *                           Cartesian components (eV/A)                            *
 * -------------------------------------------------------------------------------- *
 *                         x                    y                    z              *
 *                                                                                  *
 * H               1     -0.31009             -0.16833              0.03021         *
 * H               2     -0.32022              0.17017              0.02608         *
 * H               3      0.00000              0.37269              0.00000         *
 * H               4      0.00000             -0.36638              0.00000         *
 * H               5      0.31009             -0.16833             -0.03021         *
 * H               6      0.32022              0.17017             -0.02608         *
 * H               7     -0.31009             -0.16833              0.03021         *
 * H               8     -0.32022              0.17017              0.02608         *
 * H               9     -0.00000              0.37269              0.00000         *
 * H              10     -0.00000             -0.36638              0.00000         *
 * H              11      0.31009             -0.16833             -0.03021         *
 * H              12      0.32022              0.17017             -0.02608         *
 * H              13      0.31009              0.16833             -0.03021         *
 * H              14      0.32022             -0.17017             -0.02608         *
 * H              15      0.00000             -0.37269              0.00000         *
 * H              16     -0.00000              0.36638              0.00000         *
 * H              17     -0.31009              0.16833              0.03021         *
 * H              18     -0.32022             -0.17017              0.02608         *
 * H              19      0.31009              0.16833             -0.03021         *
 * H              20      0.32022             -0.17017             -0.02608         *
 * H              21      0.00000             -0.37269              0.00000         *
 * H              22      0.00000              0.36638              0.00000         *
 * H              23     -0.31009              0.16833              0.03021         *
 * H              24     -0.32022             -0.17017              0.02608         *
 *                                                                                  *
 ************************************************************************************

 *********** Symmetrised Stress Tensor ***********
 *                                               *
 *          Cartesian components (GPa)           *
 * --------------------------------------------- *
 *             x             y             z     *
 *                                               *
 *  x   -148.729701      0.000000     -0.630509  *
 *  y      0.000000   -149.130609      0.000000  *
 *  z     -0.630509      0.000000   -155.869855  *
 *                                               *
 *  Pressure:  151.2434                          *
 *                                               *
 *************************************************
  
 +------------+-------------+-------------+-----------------+ <-- min LBFGS
 |    Step    |   lambda    |   F.delta'  |    enthalpy     | <-- min LBFGS
 +------------+-------------+-------------+-----------------+ <-- min LBFGS
 |  previous  |    0.000000 |    0.516059 |     -312.576230 | <-- min LBFGS
 | trial step |    1.000000 |    0.022248 |     -312.826528 | <-- min LBFGS
 +------------+-------------+-------------+-----------------+ <-- min LBFGS
  
 LBFGS: finished iteration     1 with enthalpy= -3.12826528E+002 eV
  
 +-----------+-----------------+-----------------+------------+-----+ <-- LBFGS
 | Parameter |      value      |    tolerance    |    units   | OK? | <-- LBFGS
 +-----------+-----------------+-----------------+------------+-----+ <-- LBFGS
 |  dE/ion   |   1.042908E-002 |   1.000000E-009 |         eV | No  | <-- LBFGS
 |  |F|max   |   3.726885E-001 |   1.000000E-005 |       eV/A | No  | <-- LBFGS
 |  |dR|max  |   1.341719E-008 |   1.000000E-005 |          A | Yes | <-- LBFGS
 |   Smax    |   5.869855E+000 |   1.000000E-005 |        GPa | No  | <-- LBFGS
 +-----------+-----------------+-----------------+------------+-----+ <-- LBFGS
  

================================================================================
 Starting LBFGS iteration          2 ...
================================================================================
  
 +------------+-------------+-------------+-----------------+ <-- min LBFGS
 |    Step    |   lambda    |   F.delta'  |    enthalpy     | <-- min LBFGS
 +------------+-------------+-------------+-----------------+ <-- min LBFGS
 |  previous  |    0.000000 |    0.236631 |     -312.826528 | <-- min LBFGS
 +------------+-------------+-------------+-----------------+ <-- min LBFGS
  

--------------------------------------------------------------------------------
 LBFGS: starting iteration         2 with trial guess (lambda=  1.000000)
--------------------------------------------------------------------------------
 
+---------------- MEMORY AND SCRATCH DISK ESTIMATES PER PROCESS --------------+
|                                                     Memory          Disk    |
| Model and support data                               58.6 MB         0.0 MB |
| Electronic energy minimisation requirements          51.0 MB         0.0 MB |
| Geometry minimisation requirements                   66.7 MB         0.0 MB |
|                                               ----------------------------- |
| Approx. total storage required per process          176.3 MB         0.0 MB |
|                                                                             |
| Requirements will fluctuate during execution and may exceed these estimates |
+-----------------------------------------------------------------------------+
 

                           -------------------------------
                                      Unit Cell
                           -------------------------------
        Real Lattice(A)              Reciprocal Lattice(1/A)
     5.4719485     0.0000000     0.0021366        1.147674458   0.000000000   1.483525923
     0.0000000     3.1212826     0.0000000        0.000000000   2.013013937   0.000000000
    -3.6357485     0.0000000     2.8126611       -0.000871833   0.000000000   2.232766488

                       Lattice parameters(A)       Cell Angles
                    a =      5.471949          alpha =   90.000000
                    b =      3.121283          beta  =  142.251637
                    c =      4.596709          gamma =   90.000000

                Current cell volume =            48.063086 A**3

                           -------------------------------
                                     Cell Contents
                           -------------------------------

            xxxxxxxxxxxxxxxxxxxxxxxxxxxxxxxxxxxxxxxxxxxxxxxxxxxxxxxxxxxxxxxxx
            x  Element         Atom        Fractional coordinates of atoms  x
            x                 Number           u          v          w      x
            x---------------------------------------------------------------x
            x  H                 1         0.260048  -0.085470   0.257381   x
            x  H                 2         0.337707   0.309732   0.221623   x
            x  H                 3         0.500000   0.114749   0.750000   x
            x  H                 4         0.500000   0.335163   0.750000   x
            x  H                 5         0.739952  -0.085470   0.242619   x
            x  H                 6         0.662293   0.309732   0.278377   x
            x  H                 7         0.760048   0.414530   0.257381   x
            x  H                 8         0.837707   0.809732   0.221623   x
            x  H                 9         0.000000   0.614749   0.750000   x
            x  H                10         0.000000   0.835163   0.750000   x
            x  H                11         0.239952   0.414530   0.242619   x
            x  H                12         0.162293   0.809732   0.278377   x
            x  H                13         0.239952   0.585470   0.742619   x
            x  H                14         0.162293   0.190268   0.778377   x
            x  H                15         0.000000   0.385251   0.250000   x
            x  H                16         0.000000   0.164837   0.250000   x
            x  H                17         0.760048   0.585470   0.757381   x
            x  H                18         0.837707   0.190268   0.721623   x
            x  H                19         0.739952   1.085470   0.742619   x
            x  H                20         0.662293   0.690268   0.778377   x
            x  H                21         0.500000   0.885251   0.250000   x
            x  H                22         0.500000   0.664837   0.250000   x
            x  H                23         0.260048   1.085470   0.757381   x
            x  H                24         0.337707   0.690268   0.721623   x
            xxxxxxxxxxxxxxxxxxxxxxxxxxxxxxxxxxxxxxxxxxxxxxxxxxxxxxxxxxxxxxxxx


------------------------------------------------------------------------ <-- SCF
SCF loop      Energy                           Energy gain       Timer   <-- SCF
                                               per atom          (sec)   <-- SCF
------------------------------------------------------------------------ <-- SCF
Initial  -3.53536288E+002                                        117.95  <-- SCF
      1  -3.57772036E+002                    1.76489498E-001     121.25  <-- SCF
      2  -3.57793965E+002                    9.13674246E-004     125.09  <-- SCF
      3  -3.57311040E+002                   -2.01218354E-002     129.07  <-- SCF
      4  -3.57297605E+002                   -5.59809544E-004     133.01  <-- SCF
      5  -3.57297574E+002                   -1.29940843E-006     137.04  <-- SCF
      6  -3.57297576E+002                    9.43525906E-008     140.98  <-- SCF
      7  -3.57297576E+002                    3.18328813E-009     145.00  <-- SCF
      8  -3.57297576E+002                    5.41422198E-010     148.99  <-- SCF
      9  -3.57297576E+002                    6.01595885E-012     151.95  <-- SCF
     10  -3.57297576E+002                    2.75924460E-013     154.85  <-- SCF
------------------------------------------------------------------------ <-- SCF
 
Final energy =  -357.2975762293     eV
(energy not corrected for finite basis set)
 

 ******************************** Symmetrised Forces ********************************
 *                                                                                  *
 *                           Cartesian components (eV/A)                            *
 * -------------------------------------------------------------------------------- *
 *                         x                    y                    z              *
 *                                                                                  *
 * H               1      1.34554              0.73064             -0.06565         *
 * H               2      1.62921             -0.85986             -0.24910         *
 * H               3      0.00000             -2.00822              0.00000         *
 * H               4      0.00000              1.76682              0.00000         *
 * H               5     -1.34554              0.73064              0.06565         *
 * H               6     -1.62921             -0.85986              0.24910         *
 * H               7      1.34554              0.73064             -0.06565         *
 * H               8      1.62921             -0.85986             -0.24910         *
 * H               9      0.00000             -2.00822              0.00000         *
 * H              10     -0.00000              1.76682              0.00000         *
 * H              11     -1.34554              0.73064              0.06565         *
 * H              12     -1.62921             -0.85986              0.24910         *
 * H              13     -1.34554             -0.73064              0.06565         *
 * H              14     -1.62921              0.85986              0.24910         *
 * H              15     -0.00000              2.00822              0.00000         *
 * H              16      0.00000             -1.76682              0.00000         *
 * H              17      1.34554             -0.73064             -0.06565         *
 * H              18      1.62921              0.85986             -0.24910         *
 * H              19     -1.34554             -0.73064              0.06565         *
 * H              20     -1.62921              0.85986              0.24910         *
 * H              21     -0.00000              2.00822              0.00000         *
 * H              22      0.00000             -1.76682              0.00000         *
 * H              23      1.34554             -0.73064             -0.06565         *
 * H              24      1.62921              0.85986             -0.24910         *
 *                                                                                  *
 ************************************************************************************

 *********** Symmetrised Stress Tensor ***********
 *                                               *
 *          Cartesian components (GPa)           *
 * --------------------------------------------- *
 *             x             y             z     *
 *                                               *
 *  x   -163.792604      0.000000      2.771577  *
 *  y      0.000000   -163.698916      0.000000  *
 *  z      2.771577      0.000000   -135.520532  *
 *                                               *
 *  Pressure:  154.3374                          *
 *                                               *
 *************************************************
  
 +------------+-------------+-------------+-----------------+ <-- min LBFGS
 |    Step    |   lambda    |   F.delta'  |    enthalpy     | <-- min LBFGS
 +------------+-------------+-------------+-----------------+ <-- min LBFGS
 |  previous  |    0.000000 |    0.236631 |     -312.826528 | <-- min LBFGS
 | trial step |    1.000000 |   -1.069381 |     -312.299660 | <-- min LBFGS
 +------------+-------------+-------------+-----------------+ <-- min LBFGS
  

--------------------------------------------------------------------------------
 LBFGS: improving iteration         2 with line minimization (lambda=  0.181186)
--------------------------------------------------------------------------------

                           -------------------------------
                                      Unit Cell
                           -------------------------------
        Real Lattice(A)              Reciprocal Lattice(1/A)
     5.4127579     0.0000000     0.0001598        1.160765856   0.000000000   1.506295699
     0.0000000     3.0868105     0.0000000        0.000000000   2.035494356   0.000000000
    -3.5974206     0.0000000     2.7722067       -0.000066910   0.000000000   2.266405529

                       Lattice parameters(A)       Cell Angles
                    a =      5.412758          alpha =   90.000000
                    b =      3.086810          beta  =  142.380118
                    c =      4.541648          gamma =   90.000000

                Current cell volume =            46.320242 A**3

                           -------------------------------
                                     Cell Contents
                           -------------------------------

            xxxxxxxxxxxxxxxxxxxxxxxxxxxxxxxxxxxxxxxxxxxxxxxxxxxxxxxxxxxxxxxxx
            x  Element         Atom        Fractional coordinates of atoms  x
            x                 Number           u          v          w      x
            x---------------------------------------------------------------x
            x  H                 1         0.264380  -0.080749   0.256437   x
            x  H                 2         0.342286   0.304960   0.220809   x
            x  H                 3         0.500000   0.104297   0.750000   x
            x  H                 4         0.500000   0.345438   0.750000   x
            x  H                 5         0.735620  -0.080749   0.243563   x
            x  H                 6         0.657714   0.304960   0.279191   x
            x  H                 7         0.764380   0.419251   0.256437   x
            x  H                 8         0.842286   0.804960   0.220809   x
            x  H                 9         0.000000   0.604297   0.750000   x
            x  H                10         0.000000   0.845438   0.750000   x
            x  H                11         0.235620   0.419251   0.243563   x
            x  H                12         0.157714   0.804960   0.279191   x
            x  H                13         0.235620   0.580749   0.743563   x
            x  H                14         0.157714   0.195040   0.779191   x
            x  H                15         0.000000   0.395703   0.250000   x
            x  H                16         0.000000   0.154562   0.250000   x
            x  H                17         0.764380   0.580749   0.756437   x
            x  H                18         0.842286   0.195040   0.720809   x
            x  H                19         0.735620   1.080749   0.743563   x
            x  H                20         0.657714   0.695040   0.779191   x
            x  H                21         0.500000   0.895703   0.250000   x
            x  H                22         0.500000   0.654562   0.250000   x
            x  H                23         0.264380   1.080749   0.756437   x
            x  H                24         0.342286   0.695040   0.720809   x
            xxxxxxxxxxxxxxxxxxxxxxxxxxxxxxxxxxxxxxxxxxxxxxxxxxxxxxxxxxxxxxxxx


------------------------------------------------------------------------ <-- SCF
SCF loop      Energy                           Energy gain       Timer   <-- SCF
                                               per atom          (sec)   <-- SCF
------------------------------------------------------------------------ <-- SCF
Initial  -3.53568993E+002                                        158.09  <-- SCF
      1  -3.56564570E+002                    1.24815691E-001     161.25  <-- SCF
      2  -3.56579315E+002                    6.14398054E-004     165.14  <-- SCF
      3  -3.56241140E+002                   -1.40906380E-002     169.27  <-- SCF
      4  -3.56232957E+002                   -3.40968130E-004     173.44  <-- SCF
      5  -3.56232896E+002                   -2.55223135E-006     177.52  <-- SCF
      6  -3.56232896E+002                    2.47792431E-008     181.46  <-- SCF
      7  -3.56232896E+002                    1.95641922E-009     185.39  <-- SCF
      8  -3.56232896E+002                    1.48266095E-010     188.15  <-- SCF
      9  -3.56232896E+002                    1.08959951E-012     191.34  <-- SCF
     10  -3.56232896E+002                   -8.47913851E-013     194.09  <-- SCF
------------------------------------------------------------------------ <-- SCF
 
Final energy =  -356.2328961497     eV
(energy not corrected for finite basis set)
 

 ******************************** Symmetrised Forces ********************************
 *                                                                                  *
 *                           Cartesian components (eV/A)                            *
 * -------------------------------------------------------------------------------- *
 *                         x                    y                    z              *
 *                                                                                  *
 * H               1     -0.09199             -0.04937              0.02144         *
 * H               2     -0.04489              0.02495             -0.01915         *
 * H               3      0.00000              0.03982              0.00000         *
 * H               4      0.00000             -0.08336             -0.00000         *
 * H               5      0.09199             -0.04937             -0.02144         *
 * H               6      0.04489              0.02495              0.01915         *
 * H               7     -0.09199             -0.04937              0.02144         *
 * H               8     -0.04489              0.02495             -0.01915         *
 * H               9      0.00000              0.03982             -0.00000         *
 * H              10      0.00000             -0.08336              0.00000         *
 * H              11      0.09199             -0.04937             -0.02144         *
 * H              12      0.04489              0.02495              0.01915         *
 * H              13      0.09199              0.04937             -0.02144         *
 * H              14      0.04489             -0.02495              0.01915         *
 * H              15      0.00000             -0.03982              0.00000         *
 * H              16      0.00000              0.08336             -0.00000         *
 * H              17     -0.09199              0.04937              0.02144         *
 * H              18     -0.04489             -0.02495             -0.01915         *
 * H              19      0.09199              0.04937             -0.02144         *
 * H              20      0.04489             -0.02495              0.01915         *
 * H              21      0.00000             -0.03982             -0.00000         *
 * H              22      0.00000              0.08336              0.00000         *
 * H              23     -0.09199              0.04937              0.02144         *
 * H              24     -0.04489             -0.02495             -0.01915         *
 *                                                                                  *
 ************************************************************************************

 *********** Symmetrised Stress Tensor ***********
 *                                               *
 *          Cartesian components (GPa)           *
 * --------------------------------------------- *
 *             x             y             z     *
 *                                               *
 *  x   -150.670158      0.000000     -0.101278  *
 *  y      0.000000   -150.944894      0.000000  *
 *  z     -0.101278      0.000000   -152.018104  *
 *                                               *
 *  Pressure:  151.2111                          *
 *                                               *
 *************************************************
  
 +------------+-------------+-------------+-----------------+ <-- min LBFGS
 |    Step    |   lambda    |   F.delta'  |    enthalpy     | <-- min LBFGS
 +------------+-------------+-------------+-----------------+ <-- min LBFGS
 |  previous  |    0.000000 |    0.236631 |     -312.826528 | <-- min LBFGS
 | trial step |    1.000000 |   -1.069381 |     -312.299660 | <-- min LBFGS
 |  line step |    0.181186 |    0.055445 |     -312.866671 | <-- min LBFGS
 +------------+-------------+-------------+-----------------+ <-- min LBFGS
  
 LBFGS: finished iteration     2 with enthalpy= -3.12866671E+002 eV
  
 +-----------+-----------------+-----------------+------------+-----+ <-- LBFGS
 | Parameter |      value      |    tolerance    |    units   | OK? | <-- LBFGS
 +-----------+-----------------+-----------------+------------+-----+ <-- LBFGS
 |  dE/ion   |   1.672610E-003 |   1.000000E-009 |         eV | No  | <-- LBFGS
 |  |F|max   |   1.065762E-001 |   1.000000E-005 |       eV/A | No  | <-- LBFGS
 |  |dR|max  |   7.138621E-003 |   1.000000E-005 |          A | No  | <-- LBFGS
 |   Smax    |   2.018104E+000 |   1.000000E-005 |        GPa | No  | <-- LBFGS
 +-----------+-----------------+-----------------+------------+-----+ <-- LBFGS
  

================================================================================
 Starting LBFGS iteration          3 ...
================================================================================
  
 +------------+-------------+-------------+-----------------+ <-- min LBFGS
 |    Step    |   lambda    |   F.delta'  |    enthalpy     | <-- min LBFGS
 +------------+-------------+-------------+-----------------+ <-- min LBFGS
 |  previous  |    0.000000 |    0.050618 |     -312.866671 | <-- min LBFGS
 +------------+-------------+-------------+-----------------+ <-- min LBFGS
  

--------------------------------------------------------------------------------
 LBFGS: starting iteration         3 with trial guess (lambda=  1.000000)
--------------------------------------------------------------------------------

                           -------------------------------
                                      Unit Cell
                           -------------------------------
        Real Lattice(A)              Reciprocal Lattice(1/A)
     5.4220724     0.0000000     0.0002093        1.158758160   0.000000000   1.503274295
     0.0000000     3.0927190     0.0000000        0.000000000   2.031605652   0.000000000
    -3.6035859     0.0000000     2.7777263       -0.000087327   0.000000000   2.261875306

                       Lattice parameters(A)       Cell Angles
                    a =      5.422072          alpha =   90.000000
                    b =      3.092719          beta  =  142.371931
                    c =      4.549901          gamma =   90.000000

                Current cell volume =            46.581876 A**3

                           -------------------------------
                                     Cell Contents
                           -------------------------------

            xxxxxxxxxxxxxxxxxxxxxxxxxxxxxxxxxxxxxxxxxxxxxxxxxxxxxxxxxxxxxxxxx
            x  Element         Atom        Fractional coordinates of atoms  x
            x                 Number           u          v          w      x
            x---------------------------------------------------------------x
            x  H                 1         0.263768  -0.081825   0.257254   x
            x  H                 2         0.341590   0.304976   0.219712   x
            x  H                 3         0.500000   0.103697   0.750000   x
            x  H                 4         0.500000   0.344131   0.750000   x
            x  H                 5         0.736232  -0.081825   0.242746   x
            x  H                 6         0.658410   0.304976   0.280288   x
            x  H                 7         0.763768   0.418175   0.257254   x
            x  H                 8         0.841590   0.804976   0.219712   x
            x  H                 9         0.000000   0.603697   0.750000   x
            x  H                10         0.000000   0.844131   0.750000   x
            x  H                11         0.236232   0.418175   0.242746   x
            x  H                12         0.158410   0.804976   0.280288   x
            x  H                13         0.236232   0.581825   0.742746   x
            x  H                14         0.158410   0.195024   0.780288   x
            x  H                15         0.000000   0.396303   0.250000   x
            x  H                16         0.000000   0.155869   0.250000   x
            x  H                17         0.763768   0.581825   0.757254   x
            x  H                18         0.841590   0.195024   0.719712   x
            x  H                19         0.736232   1.081825   0.742746   x
            x  H                20         0.658410   0.695024   0.780288   x
            x  H                21         0.500000   0.896303   0.250000   x
            x  H                22         0.500000   0.655869   0.250000   x
            x  H                23         0.263768   1.081825   0.757254   x
            x  H                24         0.341590   0.695024   0.719712   x
            xxxxxxxxxxxxxxxxxxxxxxxxxxxxxxxxxxxxxxxxxxxxxxxxxxxxxxxxxxxxxxxxx


------------------------------------------------------------------------ <-- SCF
SCF loop      Energy                           Energy gain       Timer   <-- SCF
                                               per atom          (sec)   <-- SCF
------------------------------------------------------------------------ <-- SCF
Initial  -3.56441530E+002                                        197.36  <-- SCF
      1  -3.56485063E+002                    1.81388192E-003     200.72  <-- SCF
      2  -3.56485249E+002                    7.75199144E-006     204.60  <-- SCF
      3  -3.56482584E+002                   -1.11049451E-004     208.87  <-- SCF
      4  -3.56482531E+002                   -2.20264875E-006     212.85  <-- SCF
      5  -3.56482531E+002                    2.98787118E-009     217.04  <-- SCF
      6  -3.56482531E+002                    9.01672798E-010     221.32  <-- SCF
      7  -3.56482531E+002                    4.20955995E-011     224.14  <-- SCF
      8  -3.56482531E+002                    1.93348527E-012     227.14  <-- SCF
      9  -3.56482531E+002                    2.07446857E-013     229.89  <-- SCF
------------------------------------------------------------------------ <-- SCF
 
Final energy =  -356.4825311260     eV
(energy not corrected for finite basis set)
 

 ******************************** Symmetrised Forces ********************************
 *                                                                                  *
 *                           Cartesian components (eV/A)                            *
 * -------------------------------------------------------------------------------- *
 *                         x                    y                    z              *
 *                                                                                  *
 * H               1      0.03646              0.00929             -0.00221         *
 * H               2      0.07044             -0.04012             -0.01367         *
 * H               3     -0.00000              0.06738              0.00000         *
 * H               4     -0.00000             -0.10404              0.00000         *
 * H               5     -0.03646              0.00929              0.00221         *
 * H               6     -0.07044             -0.04012              0.01367         *
 * H               7      0.03646              0.00929             -0.00221         *
 * H               8      0.07044             -0.04012             -0.01367         *
 * H               9     -0.00000              0.06738             -0.00000         *
 * H              10     -0.00000             -0.10404              0.00000         *
 * H              11     -0.03646              0.00929              0.00221         *
 * H              12     -0.07044             -0.04012              0.01367         *
 * H              13     -0.03646             -0.00929              0.00221         *
 * H              14     -0.07044              0.04012              0.01367         *
 * H              15     -0.00000             -0.06738              0.00000         *
 * H              16     -0.00000              0.10404              0.00000         *
 * H              17      0.03646             -0.00929             -0.00221         *
 * H              18      0.07044              0.04012             -0.01367         *
 * H              19     -0.03646             -0.00929              0.00221         *
 * H              20     -0.07044              0.04012              0.01367         *
 * H              21     -0.00000             -0.06738              0.00000         *
 * H              22     -0.00000              0.10404              0.00000         *
 * H              23      0.03646             -0.00929             -0.00221         *
 * H              24      0.07044              0.04012             -0.01367         *
 *                                                                                  *
 ************************************************************************************

 *********** Symmetrised Stress Tensor ***********
 *                                               *
 *          Cartesian components (GPa)           *
 * --------------------------------------------- *
 *             x             y             z     *
 *                                               *
 *  x   -150.969102      0.000000      0.114033  *
 *  y      0.000000   -149.486925      0.000000  *
 *  z      0.114033      0.000000   -149.901441  *
 *                                               *
 *  Pressure:  150.1192                          *
 *                                               *
 *************************************************
  
 +------------+-------------+-------------+-----------------+ <-- min LBFGS
 |    Step    |   lambda    |   F.delta'  |    enthalpy     | <-- min LBFGS
 +------------+-------------+-------------+-----------------+ <-- min LBFGS
 |  previous  |    0.000000 |    0.050618 |     -312.866671 | <-- min LBFGS
 | trial step |    1.000000 |   -0.001931 |     -312.871350 | <-- min LBFGS
 +------------+-------------+-------------+-----------------+ <-- min LBFGS
  
 LBFGS: finished iteration     3 with enthalpy= -3.12871350E+002 eV
  
 +-----------+-----------------+-----------------+------------+-----+ <-- LBFGS
 | Parameter |      value      |    tolerance    |    units   | OK? | <-- LBFGS
 +-----------+-----------------+-----------------+------------+-----+ <-- LBFGS
 |  dE/ion   |   1.949727E-004 |   1.000000E-009 |         eV | No  | <-- LBFGS
 |  |F|max   |   1.040421E-001 |   1.000000E-005 |       eV/A | No  | <-- LBFGS
 |  |dR|max  |   7.444730E-003 |   1.000000E-005 |          A | No  | <-- LBFGS
 |   Smax    |   9.691021E-001 |   1.000000E-005 |        GPa | No  | <-- LBFGS
 +-----------+-----------------+-----------------+------------+-----+ <-- LBFGS
  

================================================================================
 Starting LBFGS iteration          4 ...
================================================================================
  
 +------------+-------------+-------------+-----------------+ <-- min LBFGS
 |    Step    |   lambda    |   F.delta'  |    enthalpy     | <-- min LBFGS
 +------------+-------------+-------------+-----------------+ <-- min LBFGS
 |  previous  |    0.000000 |    0.032174 |     -312.871350 | <-- min LBFGS
 +------------+-------------+-------------+-----------------+ <-- min LBFGS
  

--------------------------------------------------------------------------------
 LBFGS: starting iteration         4 with trial guess (lambda=  1.000000)
--------------------------------------------------------------------------------

                           -------------------------------
                                      Unit Cell
                           -------------------------------
        Real Lattice(A)              Reciprocal Lattice(1/A)
     5.4363323     0.0000000    -0.0000832        1.155799478   0.000000000   1.499767688
     0.0000000     3.0985702     0.0000000        0.000000000   2.027769253   0.000000000
    -3.6132133     0.0000000     2.7845313        0.000034534   0.000000000   2.256505463

                       Lattice parameters(A)       Cell Angles
                    a =      5.436332          alpha =   90.000000
                    b =      3.098570          beta  =  142.381149
                    c =      4.561680          gamma =   90.000000

                Current cell volume =            46.904101 A**3

                           -------------------------------
                                     Cell Contents
                           -------------------------------

            xxxxxxxxxxxxxxxxxxxxxxxxxxxxxxxxxxxxxxxxxxxxxxxxxxxxxxxxxxxxxxxxx
            x  Element         Atom        Fractional coordinates of atoms  x
            x                 Number           u          v          w      x
            x---------------------------------------------------------------x
            x  H                 1         0.263519  -0.082955   0.258185   x
            x  H                 2         0.341578   0.303856   0.217932   x
            x  H                 3         0.500000   0.105402   0.750000   x
            x  H                 4         0.500000   0.338975   0.750000   x
            x  H                 5         0.736481  -0.082955   0.241815   x
            x  H                 6         0.658422   0.303856   0.282068   x
            x  H                 7         0.763519   0.417045   0.258185   x
            x  H                 8         0.841578   0.803856   0.217932   x
            x  H                 9         0.000000   0.605402   0.750000   x
            x  H                10         0.000000   0.838975   0.750000   x
            x  H                11         0.236481   0.417045   0.241815   x
            x  H                12         0.158422   0.803856   0.282068   x
            x  H                13         0.236481   0.582955   0.741815   x
            x  H                14         0.158422   0.196144   0.782068   x
            x  H                15         0.000000   0.394598   0.250000   x
            x  H                16         0.000000   0.161025   0.250000   x
            x  H                17         0.763519   0.582955   0.758185   x
            x  H                18         0.841578   0.196144   0.717932   x
            x  H                19         0.736481   1.082955   0.741815   x
            x  H                20         0.658422   0.696144   0.782068   x
            x  H                21         0.500000   0.894598   0.250000   x
            x  H                22         0.500000   0.661025   0.250000   x
            x  H                23         0.263519   1.082955   0.758185   x
            x  H                24         0.341578   0.696144   0.717932   x
            xxxxxxxxxxxxxxxxxxxxxxxxxxxxxxxxxxxxxxxxxxxxxxxxxxxxxxxxxxxxxxxxx


------------------------------------------------------------------------ <-- SCF
SCF loop      Energy                           Energy gain       Timer   <-- SCF
                                               per atom          (sec)   <-- SCF
------------------------------------------------------------------------ <-- SCF
Initial  -3.56623412E+002                                        233.19  <-- SCF
      1  -3.56775947E+002                    6.35562502E-003     236.58  <-- SCF
      2  -3.56776557E+002                    2.54038173E-005     240.52  <-- SCF
      3  -3.56763886E+002                   -5.27961333E-004     244.57  <-- SCF
      4  -3.56763776E+002                   -4.58705326E-006     248.64  <-- SCF
      5  -3.56763777E+002                    4.01633187E-008     252.56  <-- SCF
      6  -3.56763777E+002                    2.88176513E-009     256.50  <-- SCF
      7  -3.56763777E+002                    9.43359546E-011     259.64  <-- SCF
      8  -3.56763777E+002                    1.17680775E-011     262.46  <-- SCF
      9  -3.56763777E+002                    7.37141258E-013     265.43  <-- SCF
     10  -3.56763777E+002                   -3.18219450E-013     268.38  <-- SCF
------------------------------------------------------------------------ <-- SCF
 
Final energy =  -356.7637765730     eV
(energy not corrected for finite basis set)
 

 ******************************** Symmetrised Forces ********************************
 *                                                                                  *
 *                           Cartesian components (eV/A)                            *
 * -------------------------------------------------------------------------------- *
 *                         x                    y                    z              *
 *                                                                                  *
 * H               1     -0.12470             -0.04798             -0.00671         *
 * H               2     -0.09756              0.04850              0.03045         *
 * H               3      0.00000             -0.57900              0.00000         *
 * H               4     -0.00000              0.57800              0.00000         *
 * H               5      0.12470             -0.04798              0.00671         *
 * H               6      0.09756              0.04850             -0.03045         *
 * H               7     -0.12470             -0.04798             -0.00671         *
 * H               8     -0.09756              0.04850              0.03045         *
 * H               9     -0.00000             -0.57900             -0.00000         *
 * H              10      0.00000              0.57800              0.00000         *
 * H              11      0.12470             -0.04798              0.00671         *
 * H              12      0.09756              0.04850             -0.03045         *
 * H              13      0.12470              0.04798              0.00671         *
 * H              14      0.09756             -0.04850             -0.03045         *
 * H              15      0.00000              0.57900              0.00000         *
 * H              16      0.00000             -0.57800             -0.00000         *
 * H              17     -0.12470              0.04798             -0.00671         *
 * H              18     -0.09756             -0.04850              0.03045         *
 * H              19      0.12470              0.04798              0.00671         *
 * H              20      0.09756             -0.04850             -0.03045         *
 * H              21      0.00000              0.57900              0.00000         *
 * H              22     -0.00000             -0.57800              0.00000         *
 * H              23     -0.12470              0.04798             -0.00671         *
 * H              24     -0.09756             -0.04850              0.03045         *
 *                                                                                  *
 ************************************************************************************

 *********** Symmetrised Stress Tensor ***********
 *                                               *
 *          Cartesian components (GPa)           *
 * --------------------------------------------- *
 *             x             y             z     *
 *                                               *
 *  x   -145.686142      0.000000     -0.063328  *
 *  y      0.000000   -153.455992      0.000000  *
 *  z     -0.063328      0.000000   -147.222354  *
 *                                               *
 *  Pressure:  148.7882                          *
 *                                               *
 *************************************************
  
 +------------+-------------+-------------+-----------------+ <-- min LBFGS
 |    Step    |   lambda    |   F.delta'  |    enthalpy     | <-- min LBFGS
 +------------+-------------+-------------+-----------------+ <-- min LBFGS
 |  previous  |    0.000000 |    0.032174 |     -312.871350 | <-- min LBFGS
 | trial step |    1.000000 |   -0.145059 |     -312.850936 | <-- min LBFGS
 +------------+-------------+-------------+-----------------+ <-- min LBFGS
  

--------------------------------------------------------------------------------
 LBFGS: improving iteration         4 with line minimization (lambda=  0.181533)
--------------------------------------------------------------------------------

                           -------------------------------
                                      Unit Cell
                           -------------------------------
        Real Lattice(A)              Reciprocal Lattice(1/A)
     5.4246610     0.0000000     0.0001562        1.158219933   0.000000000   1.502636514
     0.0000000     3.0937811     0.0000000        0.000000000   2.030908140   0.000000000
    -3.6053336     0.0000000     2.7789617       -0.000065115   0.000000000   2.260898602

                       Lattice parameters(A)       Cell Angles
                    a =      5.424661          alpha =   90.000000
                    b =      3.093781          beta  =  142.373608
                    c =      4.552039          gamma =   90.000000

                Current cell volume =            46.640262 A**3

                           -------------------------------
                                     Cell Contents
                           -------------------------------

            xxxxxxxxxxxxxxxxxxxxxxxxxxxxxxxxxxxxxxxxxxxxxxxxxxxxxxxxxxxxxxxxx
            x  Element         Atom        Fractional coordinates of atoms  x
            x                 Number           u          v          w      x
            x---------------------------------------------------------------x
            x  H                 1         0.263723  -0.082030   0.257423   x
            x  H                 2         0.341588   0.304773   0.219389   x
            x  H                 3         0.500000   0.104007   0.750000   x
            x  H                 4         0.500000   0.343195   0.750000   x
            x  H                 5         0.736277  -0.082030   0.242577   x
            x  H                 6         0.658412   0.304773   0.280611   x
            x  H                 7         0.763723   0.417970   0.257423   x
            x  H                 8         0.841588   0.804773   0.219389   x
            x  H                 9         0.000000   0.604007   0.750000   x
            x  H                10         0.000000   0.843195   0.750000   x
            x  H                11         0.236277   0.417970   0.242577   x
            x  H                12         0.158412   0.804773   0.280611   x
            x  H                13         0.236277   0.582030   0.742577   x
            x  H                14         0.158412   0.195227   0.780611   x
            x  H                15         0.000000   0.395993   0.250000   x
            x  H                16         0.000000   0.156805   0.250000   x
            x  H                17         0.763723   0.582030   0.757423   x
            x  H                18         0.841588   0.195227   0.719389   x
            x  H                19         0.736277   1.082030   0.742577   x
            x  H                20         0.658412   0.695227   0.780611   x
            x  H                21         0.500000   0.895993   0.250000   x
            x  H                22         0.500000   0.656805   0.250000   x
            x  H                23         0.263723   1.082030   0.757423   x
            x  H                24         0.341588   0.695227   0.719389   x
[...]
      H    18      S                    1.039
      H    19      S                    0.961
      H    20      S                    1.036
      H    21      S                    1.033
      H    22      S                    0.972
      H    23      S                    0.959
      H    24      S                    1.039
  -------------------------------------------
                           Total:      24.000
  -------------------------------------------

     Atomic Populations (Mulliken)
     -----------------------------
Species          Ion     s      p      d      f     Total  Charge (e)
=====================================================================
  H               1     0.96   0.00   0.00   0.00   0.96     0.04
  H               2     1.04   0.00   0.00   0.00   1.04    -0.04
  H               3     1.03   0.00   0.00   0.00   1.03    -0.03
  H               4     0.97   0.00   0.00   0.00   0.97     0.03
  H               5     0.96   0.00   0.00   0.00   0.96     0.04
  H               6     1.04   0.00   0.00   0.00   1.04    -0.04
  H               7     0.96   0.00   0.00   0.00   0.96     0.04
  H               8     1.04   0.00   0.00   0.00   1.04    -0.04
  H               9     1.03   0.00   0.00   0.00   1.03    -0.03
  H              10     0.97   0.00   0.00   0.00   0.97     0.03
  H              11     0.96   0.00   0.00   0.00   0.96     0.04
  H              12     1.04   0.00   0.00   0.00   1.04    -0.04
  H              13     0.96   0.00   0.00   0.00   0.96     0.04
  H              14     1.04   0.00   0.00   0.00   1.04    -0.04
  H              15     1.03   0.00   0.00   0.00   1.03    -0.03
  H              16     0.97   0.00   0.00   0.00   0.97     0.03
  H              17     0.96   0.00   0.00   0.00   0.96     0.04
  H              18     1.04   0.00   0.00   0.00   1.04    -0.04
  H              19     0.96   0.00   0.00   0.00   0.96     0.04
  H              20     1.04   0.00   0.00   0.00   1.04    -0.04
  H              21     1.03   0.00   0.00   0.00   1.03    -0.03
  H              22     0.97   0.00   0.00   0.00   0.97     0.03
  H              23     0.96   0.00   0.00   0.00   0.96     0.04
  H              24     1.04   0.00   0.00   0.00   1.04    -0.04
=====================================================================

                 Bond                   Population      Length (A)
======================================================================
              H 3  -- H 4                    1.59        0.74007
              H 15 -- H 16                   1.59        0.74007
              H 21 -- H 22                   1.59        0.74007
              H 9  -- H 10                   1.59        0.74007
              H 17 -- H 20                   1.58        0.74530
              H 13 -- H 24                   1.58        0.74530
              H 18 -- H 19                   1.58        0.74530
              H 14 -- H 23                   1.58        0.74530
              H 5  -- H 8                    1.58        0.74530
              H 1  -- H 12                   1.58        0.74530
              H 2  -- H 11                   1.58        0.74530
              H 6  -- H 7                    1.58        0.74530
              H 1  -- H 21                   0.08        1.31513
              H 9  -- H 17                   0.08        1.31513
              H 9  -- H 13                   0.08        1.31513
              H 7  -- H 15                   0.08        1.31513
              H 11 -- H 15                   0.08        1.31513
              H 5  -- H 21                   0.08        1.31513
              H 3  -- H 23                   0.08        1.31513
              H 3  -- H 19                   0.08        1.31513
              H 12 -- H 16                  -0.02        1.32878
              H 8  -- H 16                  -0.02        1.32878
              H 4  -- H 24                  -0.02        1.32878
              H 4  -- H 20                  -0.02        1.32878
              H 10 -- H 14                  -0.02        1.32878
              H 2  -- H 22                  -0.02        1.32878
              H 10 -- H 18                  -0.02        1.32878
              H 6  -- H 22                  -0.02        1.32878
              H 1  -- H 2                   -0.13        1.33300
              H 5  -- H 6                   -0.13        1.33300
              H 7  -- H 8                   -0.13        1.33300
              H 11 -- H 12                  -0.13        1.33300
              H 17 -- H 18                  -0.13        1.33300
              H 13 -- H 14                  -0.13        1.33300
              H 23 -- H 24                  -0.13        1.33300
              H 19 -- H 20                  -0.13        1.33300
              H 6  -- H 18                   0.01        1.39789
              H 2  -- H 14                   0.01        1.39789
              H 12 -- H 24                   0.01        1.39789
              H 8  -- H 20                   0.01        1.39789
              H 2  -- H 21                  -0.19        1.45760
              H 6  -- H 21                  -0.19        1.45760
              H 9  -- H 18                  -0.19        1.45760
              H 9  -- H 14                  -0.19        1.45760
              H 8  -- H 15                  -0.19        1.45760
              H 12 -- H 15                  -0.19        1.45760
              H 3  -- H 24                  -0.19        1.45760
              H 3  -- H 20                  -0.19        1.45760
              H 17 -- H 22                  -0.00        1.48517
              H 13 -- H 22                  -0.00        1.48517
              H 16 -- H 23                  -0.00        1.48517
              H 16 -- H 19                  -0.00        1.48517
              H 1  -- H 10                  -0.00        1.48517
              H 5  -- H 10                  -0.00        1.48517
              H 4  -- H 7                   -0.00        1.48517
              H 4  -- H 11                  -0.00        1.48517
              H 8  -- H 12                  -0.04        1.48743
              H 2  -- H 6                   -0.04        1.48743
              H 20 -- H 24                  -0.04        1.48743
              H 14 -- H 18                  -0.04        1.48743
              H 10 -- H 17                  -0.12        1.53564
              H 10 -- H 13                  -0.12        1.53564
              H 4  -- H 23                  -0.12        1.53564
              H 4  -- H 19                  -0.12        1.53564
              H 7  -- H 16                  -0.12        1.53564
              H 1  -- H 22                  -0.12        1.53564
              H 11 -- H 16                  -0.12        1.53564
              H 5  -- H 22                  -0.12        1.53564
              H 17 -- H 19                  -0.21        1.55005
              H 13 -- H 23                  -0.21        1.55005
              H 5  -- H 7                   -0.21        1.55005
              H 1  -- H 11                  -0.21        1.55005
              H 9  -- H 11                  -0.02        1.56362
              H 7  -- H 9                   -0.02        1.56362
              H 21 -- H 23                  -0.02        1.56362
              H 19 -- H 21                  -0.02        1.56362
              H 3  -- H 5                   -0.02        1.56362
              H 1  -- H 3                   -0.02        1.56362
              H 13 -- H 15                  -0.02        1.56362
              H 15 -- H 17                  -0.02        1.56362
              H 11 -- H 22                  -0.14        1.58577
              H 5  -- H 16                  -0.14        1.58577
              H 7  -- H 22                  -0.14        1.58577
              H 1  -- H 16                  -0.14        1.58577
              H 10 -- H 23                  -0.14        1.58577
              H 10 -- H 19                  -0.14        1.58577
              H 4  -- H 17                  -0.14        1.58577
              H 4  -- H 13                  -0.14        1.58577
              H 6  -- H 9                   -0.12        1.61160
              H 2  -- H 9                   -0.12        1.61160
              H 18 -- H 21                  -0.12        1.61160
              H 14 -- H 21                  -0.12        1.61160
              H 3  -- H 12                  -0.12        1.61160
              H 3  -- H 8                   -0.12        1.61160
              H 15 -- H 24                  -0.12        1.61160
              H 15 -- H 20                  -0.12        1.61160
              H 2  -- H 19                  -0.15        1.62072
              H 8  -- H 13                  -0.15        1.62072
              H 6  -- H 23                  -0.15        1.62072
              H 12 -- H 17                  -0.15        1.62072
              H 11 -- H 18                  -0.15        1.62072
              H 7  -- H 14                  -0.15        1.62072
              H 5  -- H 24                  -0.15        1.62072
              H 1  -- H 20                  -0.15        1.62072
              H 5  -- H 23                  -0.13        1.66647
              H 1  -- H 19                  -0.13        1.66647
              H 11 -- H 17                  -0.13        1.66647
              H 7  -- H 13                  -0.13        1.66647
              H 4  -- H 15                  -0.20        1.66988
              H 3  -- H 16                  -0.20        1.66988
              H 10 -- H 21                  -0.20        1.66988
              H 9  -- H 22                  -0.20        1.66988
              H 6  -- H 14                  -0.13        1.69303
              H 2  -- H 18                  -0.13        1.69303
              H 12 -- H 20                  -0.13        1.69303
              H 8  -- H 24                  -0.13        1.69303
              H 4  -- H 16                  -0.23        1.75244
              H 10 -- H 22                  -0.23        1.75244
              H 11 -- H 20                  -0.13        1.75461
              H 7  -- H 24                  -0.13        1.75461
              H 5  -- H 14                  -0.13        1.75461
              H 1  -- H 18                  -0.13        1.75461
              H 8  -- H 23                  -0.13        1.75461
              H 12 -- H 19                  -0.13        1.75461
              H 6  -- H 13                  -0.13        1.75461
              H 2  -- H 17                  -0.13        1.75461
              H 15 -- H 23                  -0.11        1.76055
              H 15 -- H 19                  -0.11        1.76055
              H 17 -- H 21                  -0.11        1.76055
              H 13 -- H 21                  -0.11        1.76055
              H 3  -- H 7                   -0.11        1.76055
              H 3  -- H 11                  -0.11        1.76055
              H 1  -- H 9                   -0.11        1.76055
              H 5  -- H 9                   -0.11        1.76055
              H 20 -- H 22                  -0.08        1.81616
              H 22 -- H 24                  -0.08        1.81616
              H 16 -- H 18                  -0.08        1.81616
              H 14 -- H 16                  -0.08        1.81616
              H 10 -- H 12                  -0.08        1.81616
              H 8  -- H 10                  -0.08        1.81616
              H 4  -- H 6                   -0.08        1.81616
              H 2  -- H 4                   -0.08        1.81616
              H 3  -- H 15                  -0.31        1.89772
              H 9  -- H 21                  -0.31        1.89772
              H 6  -- H 19                  -0.09        1.90697
              H 12 -- H 13                  -0.09        1.90697
              H 2  -- H 23                  -0.09        1.90697
              H 8  -- H 17                  -0.09        1.90697
              H 11 -- H 14                  -0.09        1.90697
              H 7  -- H 18                  -0.09        1.90697
              H 1  -- H 24                  -0.09        1.90697
              H 5  -- H 20                  -0.09        1.90697
              H 15 -- H 18                  -0.12        1.91739
              H 14 -- H 15                  -0.12        1.91739
              H 3  -- H 6                   -0.12        1.91739
              H 2  -- H 3                   -0.12        1.91739
              H 20 -- H 21                  -0.12        1.91739
              H 21 -- H 24                  -0.12        1.91739
              H 9  -- H 12                  -0.12        1.91739
              H 8  -- H 9                   -0.12        1.91739
              H 6  -- H 10                  -0.22        1.94932
              H 2  -- H 10                  -0.22        1.94932
              H 18 -- H 22                  -0.22        1.94932
              H 14 -- H 22                  -0.22        1.94932
              H 16 -- H 24                  -0.22        1.94932
              H 16 -- H 20                  -0.22        1.94932
              H 4  -- H 12                  -0.22        1.94932
              H 4  -- H 8                   -0.22        1.94932
              H 5  -- H 13                  -0.24        1.95304
              H 1  -- H 17                  -0.24        1.95304
              H 11 -- H 19                  -0.24        1.95304
              H 7  -- H 23                  -0.24        1.95304
              H 11 -- H 24                  -0.04        1.95812
              H 7  -- H 20                  -0.04        1.95812
              H 12 -- H 23                  -0.04        1.95812
              H 5  -- H 18                  -0.04        1.95812
              H 1  -- H 14                  -0.04        1.95812
              H 8  -- H 19                  -0.04        1.95812
              H 6  -- H 17                  -0.04        1.95812
              H 2  -- H 13                  -0.04        1.95812
              H 4  -- H 5                   -0.13        1.95997
              H 10 -- H 11                  -0.13        1.95997
              H 1  -- H 4                   -0.13        1.95997
              H 7  -- H 10                  -0.13        1.95997
              H 22 -- H 23                  -0.13        1.95997
              H 19 -- H 22                  -0.13        1.95997
              H 16 -- H 17                  -0.13        1.95997
              H 13 -- H 16                  -0.13        1.95997
              H 18 -- H 20                  -0.28        1.98327
              H 14 -- H 24                  -0.28        1.98327
              H 6  -- H 8                   -0.28        1.98327
              H 2  -- H 12                  -0.28        1.98327
              H 3  -- H 18                  -0.13        1.99332
              H 3  -- H 14                  -0.13        1.99332
              H 9  -- H 20                  -0.13        1.99332
              H 9  -- H 24                  -0.13        1.99332
              H 8  -- H 21                  -0.13        1.99332
              H 6  -- H 15                  -0.13        1.99332
              H 2  -- H 15                  -0.13        1.99332
              H 12 -- H 21                  -0.13        1.99332
              H 12 -- H 18                  -0.10        1.99444
              H 8  -- H 14                  -0.10        1.99444
              H 6  -- H 24                  -0.10        1.99444
              H 2  -- H 20                  -0.10        1.99444
              H 4  -- H 18                  -0.18        2.02142
              H 4  -- H 14                  -0.18        2.02142
              H 10 -- H 20                  -0.18        2.02142
              H 6  -- H 16                  -0.18        2.02142
              H 2  -- H 16                  -0.18        2.02142
              H 10 -- H 24                  -0.18        2.02142
              H 8  -- H 22                  -0.18        2.02142
              H 12 -- H 22                  -0.18        2.02142
              H 5  -- H 15                  -0.28        2.04362
              H 1  -- H 15                  -0.28        2.04362
              H 11 -- H 21                  -0.28        2.04362
              H 7  -- H 21                  -0.28        2.04362
              H 3  -- H 17                  -0.28        2.04362
              H 3  -- H 13                  -0.28        2.04362
              H 9  -- H 23                  -0.28        2.04362
              H 9  -- H 19                  -0.28        2.04362
              H 17 -- H 24                  -0.06        2.16564
              H 13 -- H 20                  -0.06        2.16564
              H 18 -- H 23                  -0.06        2.16564
              H 5  -- H 12                  -0.06        2.16564
              H 14 -- H 19                  -0.06        2.16564
              H 1  -- H 8                   -0.06        2.16564
              H 6  -- H 11                  -0.06        2.16564
              H 2  -- H 7                   -0.06        2.16564
              H 1  -- H 23                  -0.05        2.33375
              H 7  -- H 17                  -0.05        2.33375
              H 5  -- H 19                  -0.05        2.33375
              H 11 -- H 13                  -0.05        2.33375
              H 9  -- H 15                   0.00        2.36048
              H 3  -- H 21                   0.00        2.36048
              H 2  -- H 5                   -0.00        2.37849
              H 1  -- H 6                   -0.00        2.37849
              H 8  -- H 11                  -0.00        2.37849
              H 7  -- H 12                  -0.00        2.37849
              H 20 -- H 23                  -0.00        2.37849
              H 19 -- H 24                  -0.00        2.37849
              H 14 -- H 17                  -0.00        2.37849
              H 13 -- H 18                  -0.00        2.37849
              H 1  -- H 13                  -0.08        2.46107
              H 5  -- H 17                  -0.08        2.46107
              H 7  -- H 19                  -0.08        2.46107
              H 11 -- H 23                  -0.08        2.46107
              H 10 -- H 16                   0.03        2.47999
              H 4  -- H 22                   0.03        2.47999
              H 12 -- H 14                   0.02        2.57982
              H 8  -- H 18                   0.02        2.57982
              H 6  -- H 20                   0.02        2.57982
              H 2  -- H 24                   0.02        2.57982
              H 7  -- H 11                  -0.03        2.62799
              H 1  -- H 5                   -0.03        2.62799
              H 19 -- H 23                  -0.03        2.62799
              H 13 -- H 17                  -0.03        2.62799
              H 9  -- H 16                   0.03        2.65506
              H 4  -- H 21                   0.03        2.65506
              H 10 -- H 15                   0.03        2.65506
              H 3  -- H 22                   0.03        2.65506
======================================================================


Writing analysis data to C2c.castep_bin

Writing model to C2c.check
 
 A BibTeX formatted list of references used in this run has been written to 
 C2c.bib
 
Initialisation time =      1.62 s
Calculation time    =    843.07 s
Finalisation time   =      3.35 s
Total time          =    848.04 s
Peak Memory Use     = 573348 kB
  
Overall parallel efficiency rating: Excellent (92%)                             
  
Data was distributed by:-
k-point (16-way); efficiency rating: Excellent (92%)                            
