 +-------------------------------------------------+
 |                                                 |
 |      CCC   AA    SSS  TTTTT  EEEEE  PPPP        |
 |     C     A  A  S       T    E      P   P       |
 |     C     AAAA   SS     T    EEE    PPPP        |
 |     C     A  A     S    T    E      P           |
 |      CCC  A  A  SSS     T    EEEEE  P           |
 |                                                 |
 +-------------------------------------------------+
 |                                                 |
 | Welcome to Academic Release CASTEP version 18.1 |          
 | Ab Initio Total Energy Program                  |
 |                                                 |
 | Authors:                                        |
 | M. Segall, M. Probert, C. Pickard, P. Hasnip,   |
 | S. Clark, K. Refson, J. R. Yates, M. Payne      |
 |                                                 |
 | Contributors:                                   |
 | P. Lindan, P. Haynes, J. White, V. Milman,      |
 | N. Govind, M. Gibson, P. Tulip, V. Cocula,      |
 | B. Montanari, D. Quigley, M. Glover,            |
 | L. Bernasconi, A. Perlov, M. Plummer,           |
 | E. McNellis, J. Meyer, J. Gale, D. Jochym       |
 | J. Aarons, B. Walker, R. Gillen, D. Jones       |
 | T. Green, I. J. Bush, C. J. Armstrong,          |
 | E. J. Higgins, E. L. Brown, M. S. McFly,        |
 | J. Wilkins, B-C. Shih, P. J. P. Byrne           |
 |                                                 |
 | Copyright (c) 2000 - 2017                       |
 |                                                 |
 |     Distributed under the terms of an           |
 |     Agreement between the United Kingdom        |
 |     Car-Parrinello (UKCP) Consortium,           |
 |     Daresbury Laboratory and Accelrys, Inc.     |
 |                                                 |
 | Please cite                                     |
 |                                                 |
 |     "First principles methods using CASTEP"     |
 |                                                 |
 |         Zeitschrift fuer Kristallographie       |
 |           220(5-6) pp. 567-570 (2005)           |
 |                                                 |
 | S. J. Clark, M. D. Segall, C. J. Pickard,       |
 | P. J. Hasnip, M. J. Probert, K. Refson,         |
 | M. C. Payne                                     |
 |                                                 |
 |       in all publications arising from          |
 |              your use of CASTEP                 |
 |                                                 |
 +-------------------------------------------------+


 Compiled for linux_x86_64_gfortran4.8 on Thu, 19 Jul 2018 15:42:32 +0100
 from code version 70483bd0ad64+  Sun, 10 Dec 2017 12:18:29 +0000
 Compiler: GNU Fortran 4.8.5; Optimisation: fast
 MATHLIBS: Intel MKL(2018.0.0) (LAPACK version 3.7.0)
 FFT Lib : mkl
 Fundamental constants values: CODATA 2014

 Run started: Tue, 11 Aug 2020 17:37:07 +0100

 Atomic calculation performed for H: 1s1

 Converged in 41 iterations to an ae energy of -12.488 eV

   ============================================================                
   | Pseudopotential Report - Date of generation 11-08-2020   |                
   ------------------------------------------------------------                
   | Element: H Ionic charge:  1.00 Level of theory: PBE      |                
   | Atomic Solver: Koelling-Harmon                           |                
   |                                                          |                
   |               Reference Electronic Structure             |                
   |         Orbital         Occupation         Energy        |                
   |            1s              1.000           -0.239        |                
   |                                                          |                
   |                 Pseudopotential Definition               |                
   |        Beta     l      e      Rc     scheme   norm       |                
   |         loc     0   -0.239   0.702     qc      1         |                
   |                                                          |                
   | No charge augmentation                                   |                
   | No partial core correction                               |                
   ------------------------------------------------------------                
   | "0|0.7|2|6|8|10L(qc=10)"                                 |                
   ------------------------------------------------------------                
   |      Author: Chris J. Pickard, Cambridge University      |                
   ============================================================                

 Pseudo atomic calculation performed for H 1s1

 Converged in 24 iterations to a total energy of -12.4843 eV

 Calculation parallelised over 16 processes.
 Data is distributed by k-point(16-way)

 ************************************ Title ************************************
 

 ***************************** General Parameters ******************************
  
 output verbosity                               : normal  (1)
 write checkpoint data to                       : C2c.check
 type of calculation                            : geometry optimization
 stress calculation                             : on
 density difference calculation                 : off
 electron localisation func (ELF) calculation   : off
 Hirshfeld analysis                             : off
 unlimited duration calculation
 timing information                             : on
 memory usage estimate                          : on
 write extra output files                       : on
 write final potential to formatted file        : off
 write final density to formatted file          : off
 write structure in CELL formatted file         : on
 write BibTeX reference list                    : on
 write OTFG pseudopotential files               : on
 write electrostatic potential file             : on
 write bands file                               : on
 checkpoint writing                             : both castep_bin and check files
  
 output         length unit                     : A
 output           mass unit                     : amu
 output           time unit                     : ps
 output         charge unit                     : e
 output           spin unit                     : hbar/2
 output         energy unit                     : eV
 output          force unit                     : eV/A
 output       velocity unit                     : A/ps
 output       pressure unit                     : GPa
 output     inv_length unit                     : 1/A
 output      frequency unit                     : cm-1
 output force constant unit                     : eV/A**2
 output         volume unit                     : A**3
 output   IR intensity unit                     : (D/A)**2/amu
 output         dipole unit                     : D
 output         efield unit                     : eV/A/e
 output        entropy unit                     : J/mol/K
  
 wavefunctions paging                           : none
 random number generator seed                   : randomised (173707720)
 data distribution                              : optimal for this architecture
 optimization strategy                          : maximize speed(+++)

 *********************** Exchange-Correlation Parameters ***********************
  
 using functional                               : Perdew Burke Ernzerhof
 relativistic treatment                         : Koelling-Harmon
 DFT+D: Semi-empirical dispersion correction    : off

 ************************* Pseudopotential Parameters **************************
  
 pseudopotential representation                 : reciprocal space
 <beta|phi> representation                      : reciprocal space
 spin-orbit coupling                            : off

 **************************** Basis Set Parameters *****************************
  
 plane wave basis set cut-off                   :  1200.0000   eV
 size of standard grid                          :     2.0000
 size of   fine   gmax                          :    35.4943   1/A
 finite basis set correction                    : automatic
 number of sample energies                      :          3
           sample  spacing                      :     5.0000   eV

 **************************** Electronic Parameters ****************************
  
 number of  electrons                           :  24.00    
 net charge of system                           :  0.000    
 treating system as non-spin-polarized
 number of bands                                :         12

 ********************* Electronic Minimization Parameters **********************
  
 Method: Treating system as non-metallic,
         and number of  SD  steps               :          1
         and number of  CG  steps               :          4
  
 total energy / atom convergence tol.           : 0.1000E-10   eV
 eigen-energy convergence tolerance             : 0.2000E-10   eV
 max force / atom convergence tol.              : ignored
 convergence tolerance window                   :          3   cycles
 max. number of SCF cycles                      :        100
 periodic dipole correction                     : NONE

 ************************** Density Mixing Parameters **************************
  
 density-mixing scheme                          : Broyden
 max. length of mixing history                  :         20
 charge density mixing amplitude                : 0.8000    
 cut-off energy for mixing                      :  1200.       eV

 *********************** Population Analysis Parameters ************************
  
 Population analysis with cutoff                :  3.000       A
 Population analysis output                     : summary and pdos components

 ********************** Geometry Optimization Parameters ***********************
  
 optimization method                            : LBFGS
 max. no. of LBFGS updates                      : unbounded
 variable cell method                           : fixed basis quality
 max. number of steps                           :         60
 estimated bulk modulus                         :  500.0       GPa
 estimated <frequency>                          :  1668.       cm-1
 geom line minimiser                            : on
 with line minimiser tolerance                  :     0.4000
 total energy convergence tolerance             : 0.1000E-08   eV/atom
        max ionic |force| tolerance             : 0.1000E-04   eV/A
 max ionic |displacement| tolerance             : 0.1000E-04   A
   max |stress component| tolerance             : 0.1000E-04   GPa
 convergence tolerance window                   :          2   steps
 backup results every                           :      14400   seconds
 write geom trajectory file                     : on

 *******************************************************************************
  

                           -------------------------------
                                      Unit Cell
                           -------------------------------
        Real Lattice(A)                      Reciprocal Lattice(1/A)
     5.0526397     0.0000000    -0.0153760        1.248379819   0.000000000   1.588714955
     0.0000000     2.8719311     0.0000000        0.000000000   2.187791081   0.000000000
    -3.3660136     0.0000000     2.6449449        0.007257287   0.000000000   2.384780676

                       Lattice parameters(A)       Cell Angles
                    a =      5.052663          alpha =   90.000000
                    b =      2.871931          beta  =  142.014819
                    c =      4.280862          gamma =   90.000000

                       Current cell volume =            38.231715       A**3
                                   density =             0.632735   AMU/A**3
                                           =             1.050682     g/cm^3

                           -------------------------------
                                     Cell Contents
                           -------------------------------
                         Total number of ions in cell =   24
                      Total number of species in cell =    1
                        Max number of any one species =   24

            xxxxxxxxxxxxxxxxxxxxxxxxxxxxxxxxxxxxxxxxxxxxxxxxxxxxxxxxxxxx
            x  Element    Atom        Fractional coordinates of atoms  x
            x            Number           u          v          w      x
            x----------------------------------------------------------x
            x  H            1         0.191821  -0.094783   0.253942   x 
            x  H            2         0.354259   0.143745   0.253222   x 
            x  H            3         0.500000   0.136012   0.750000   x 
            x  H            4         0.500000   0.404088   0.750000   x 
            x  H            5         0.808179  -0.094783   0.246058   x 
            x  H            6         0.645741   0.143745   0.246778   x 
            x  H            7         0.691821   0.405217   0.253942   x 
            x  H            8         0.854259   0.643745   0.253222   x 
            x  H            9         0.000000   0.636012   0.750000   x 
            x  H           10        -0.000000   0.904088   0.750000   x 
            x  H           11         0.308179   0.405217   0.246058   x 
            x  H           12         0.145741   0.643745   0.246778   x 
            x  H           13         0.308179   0.594783   0.746058   x 
            x  H           14         0.145741   0.356255   0.746778   x 
            x  H           15         0.000000   0.363988   0.250000   x 
            x  H           16         0.000000   0.095912   0.250000   x 
            x  H           17         0.691821   0.594783   0.753942   x 
            x  H           18         0.854259   0.356255   0.753222   x 
            x  H           19         0.808179   1.094783   0.746058   x 
            x  H           20         0.645741   0.856255   0.746778   x 
            x  H           21         0.500000   0.863988   0.250000   x 
            x  H           22         0.500000   0.595912   0.250000   x 
            x  H           23         0.191821   1.094783   0.753942   x 
            x  H           24         0.354259   0.856255   0.753222   x 
            xxxxxxxxxxxxxxxxxxxxxxxxxxxxxxxxxxxxxxxxxxxxxxxxxxxxxxxxxxxx


                         No user defined ionic velocities

                           -------------------------------
                                   Details of Species
                           -------------------------------

                               Mass of species in AMU
                                    H    1.0079400

                          Electric Quadrupole Moment (Barn)
                                    H    0.0028600 Isotope  2

                          Files used for pseudopotentials:
                                    H 0|0.7|2|6|8|10L(qc=10)

                           -------------------------------
                              k-Points For BZ Sampling
                           -------------------------------
                       MP grid size for SCF calculation is 10 10 10
                            with an offset of   0.000  0.000  0.000
                       Number of kpoints used =           250

                           -------------------------------
                               Symmetry and Constraints
                           -------------------------------

                      Cell is a supercell containing 2 primitive cells
                      Maximum deviation from symmetry = 0.318848E-14     ANG

                      Number of symmetry operations   =           8
                      Number of ionic constraints     =           3
                      Point group of crystal =     5: C2h, 2/m, 2/m
                      Space group of crystal =    15: C2/c, -C 2yc

             Set iprint > 1 for details on symmetry rotations/translations

                         Centre of mass is constrained
             Set iprint > 1 for details of linear ionic constraints

                         Number of cell constraints= 2
                         Cell constraints are:  1 2 3 0 5 0

                         External pressure/stress (GPa)
                        210.00000   0.00000   0.00000
                                  210.00000   0.00000
                                            210.00000
  
+---------------- MEMORY AND SCRATCH DISK ESTIMATES PER PROCESS --------------+
|                                                     Memory          Disk    |
| Baseline code, static data and system overhead      413.0 MB         0.0 MB |
| BLAS internal memory storage                          0.0 MB         0.0 MB |
| Model and support data                               44.9 MB         0.0 MB |
| Electronic energy minimisation requirements          41.5 MB         0.0 MB |
| Force calculation requirements                       12.4 MB         0.0 MB |
| Stress calculation requirements                      15.7 MB         0.0 MB |
|                                               ----------------------------- |
| Approx. total storage required per process          499.4 MB         0.0 MB |
|                                                                             |
| Requirements will fluctuate during execution and may exceed these estimates |
+-----------------------------------------------------------------------------+
Calculating finite basis set correction with  3 cut-off energies.
Calculating total energy with cut-off of 1190.000 eV.
------------------------------------------------------------------------ <-- SCF
SCF loop      Energy                           Energy gain       Timer   <-- SCF
                                               per atom          (sec)   <-- SCF
------------------------------------------------------------------------ <-- SCF
Initial   5.42624237E+002                                          2.82  <-- SCF
      1  -2.92984931E+002                    3.48170487E+001       6.01  <-- SCF
      2  -3.45543204E+002                    2.18992803E+000       8.46  <-- SCF
      3  -3.45906161E+002                    1.51232217E-002      12.05  <-- SCF
      4  -3.45909782E+002                    1.50875143E-004      15.41  <-- SCF
      5  -3.45910444E+002                    2.75965288E-005      18.72  <-- SCF
      6  -3.45910487E+002                    1.77883013E-006      22.14  <-- SCF
      7  -3.45910488E+002                    6.79812534E-008      25.48  <-- SCF
      8  -3.45910489E+002                    6.95443433E-009      28.60  <-- SCF
      9  -3.45910489E+002                    8.95576277E-010      30.97  <-- SCF
     10  -3.45910489E+002                    1.65238471E-010      33.47  <-- SCF
     11  -3.45910489E+002                    4.64036464E-011      35.95  <-- SCF
     12  -3.45910489E+002                    8.57984087E-012      38.21  <-- SCF
     13  -3.45910489E+002                    5.57488252E-012      40.53  <-- SCF
     14  -3.45910489E+002                    7.04916504E-013      42.76  <-- SCF
------------------------------------------------------------------------ <-- SCF
 
Final energy =  -345.9104886827     eV
(energy not corrected for finite basis set)
 
Calculating total energy with cut-off of 1195.000 eV.
------------------------------------------------------------------------ <-- SCF
SCF loop      Energy                           Energy gain       Timer   <-- SCF
                                               per atom          (sec)   <-- SCF
------------------------------------------------------------------------ <-- SCF
Initial  -3.45910489E+002                                         44.06  <-- SCF
      1  -3.45912363E+002                    7.80917541E-005      46.74  <-- SCF
      2  -3.45912363E+002                    1.81538154E-010      49.91  <-- SCF
      3  -3.45912364E+002                    2.61673908E-008      53.34  <-- SCF
      4  -3.45912364E+002                    1.16628234E-009      56.81  <-- SCF
      5  -3.45912364E+002                    4.53362014E-012      59.27  <-- SCF
      6  -3.45912364E+002                    5.29694401E-013      61.79  <-- SCF
------------------------------------------------------------------------ <-- SCF
 
Final energy =  -345.9123635452     eV
(energy not corrected for finite basis set)
 
Calculating total energy with cut-off of 1200.000 eV.
------------------------------------------------------------------------ <-- SCF
SCF loop      Energy                           Energy gain       Timer   <-- SCF
                                               per atom          (sec)   <-- SCF
------------------------------------------------------------------------ <-- SCF
Initial  -3.45912364E+002                                         63.09  <-- SCF
      1  -3.45914201E+002                    7.65797042E-005      65.80  <-- SCF
      2  -3.45914201E+002                    1.66191115E-010      69.03  <-- SCF
      3  -3.45914202E+002                    2.58946969E-008      72.29  <-- SCF
      4  -3.45914202E+002                    1.13786615E-009      75.51  <-- SCF
      5  -3.45914202E+002                    4.29596258E-012      78.03  <-- SCF
      6  -3.45914202E+002                    6.76719843E-013      80.59  <-- SCF
------------------------------------------------------------------------ <-- SCF
 
Final energy =  -345.9142021110     eV
(energy not corrected for finite basis set)
 
 For future reference: finite basis dEtot/dlog(Ecut) =      -0.441299eV
 Total energy corrected for finite basis set =    -345.914194 eV
 
+---------------- MEMORY AND SCRATCH DISK ESTIMATES PER PROCESS --------------+
|                                                     Memory          Disk    |
| Model and support data                               51.0 MB         0.0 MB |
| Electronic energy minimisation requirements          41.5 MB         0.0 MB |
| Geometry minimisation requirements                   54.1 MB         0.0 MB |
|                                               ----------------------------- |
| Approx. total storage required per process          146.6 MB         0.0 MB |
|                                                                             |
| Requirements will fluctuate during execution and may exceed these estimates |
+-----------------------------------------------------------------------------+
 

 ******************************** Symmetrised Forces ********************************
 *                                                                                  *
 *                           Cartesian components (eV/A)                            *
 * -------------------------------------------------------------------------------- *
 *                         x                    y                    z              *
 *                                                                                  *
 * H               1      0.00000              0.00000             -0.00000         *
 * H               2      0.00000              0.00000             -0.00000         *
 * H               3      0.00000             -0.00000              0.00000         *
 * H               4      0.00000             -0.00000              0.00000         *
 * H               5     -0.00000              0.00000              0.00000         *
 * H               6     -0.00000              0.00000              0.00000         *
 * H               7      0.00000              0.00000             -0.00000         *
 * H               8      0.00000              0.00000             -0.00000         *
 * H               9      0.00000             -0.00000              0.00000         *
 * H              10      0.00000             -0.00000              0.00000         *
 * H              11     -0.00000              0.00000              0.00000         *
 * H              12     -0.00000              0.00000              0.00000         *
 * H              13     -0.00000             -0.00000              0.00000         *
 * H              14     -0.00000             -0.00000              0.00000         *
 * H              15      0.00000              0.00000              0.00000         *
 * H              16      0.00000              0.00000              0.00000         *
 * H              17      0.00000             -0.00000             -0.00000         *
 * H              18      0.00000             -0.00000             -0.00000         *
 * H              19     -0.00000             -0.00000              0.00000         *
 * H              20     -0.00000             -0.00000              0.00000         *
 * H              21      0.00000              0.00000              0.00000         *
 * H              22     -0.00000              0.00000              0.00000         *
 * H              23      0.00000             -0.00000             -0.00000         *
 * H              24      0.00000             -0.00000             -0.00000         *
 *                                                                                  *
 ************************************************************************************

 *********** Symmetrised Stress Tensor ***********
 *                                               *
 *          Cartesian components (GPa)           *
 * --------------------------------------------- *
 *             x             y             z     *
 *                                               *
 *  x   -240.013346      0.000000     -0.000005  *
 *  y      0.000000   -240.013365      0.000000  *
 *  z     -0.000005      0.000000   -240.013329  *
 *                                               *
 *  Pressure:  240.0133                          *
 *                                               *
 *************************************************
 LBFGS: finished iteration     0 with enthalpy= -2.95803239E+002 eV
  
 +-----------+-----------------+-----------------+------------+-----+ <-- LBFGS
 | Parameter |      value      |    tolerance    |    units   | OK? | <-- LBFGS
 +-----------+-----------------+-----------------+------------+-----+ <-- LBFGS
 |  dE/ion   |   0.000000E+000 |   1.000000E-009 |         eV | No  | <-- LBFGS
 |  |F|max   |   7.649528E-007 |   1.000000E-005 |       eV/A | Yes | <-- LBFGS
 |  |dR|max  |   0.000000E+000 |   1.000000E-005 |          A | No  | <-- LBFGS
 |   Smax    |   3.001337E+001 |   1.000000E-005 |        GPa | No  | <-- LBFGS
 +-----------+-----------------+-----------------+------------+-----+ <-- LBFGS
  

================================================================================
 Starting LBFGS iteration          1 ...
================================================================================
  
 +------------+-------------+-------------+-----------------+ <-- min LBFGS
 |    Step    |   lambda    |   F.delta'  |    enthalpy     | <-- min LBFGS
 +------------+-------------+-------------+-----------------+ <-- min LBFGS
 |  previous  |    0.000000 |    0.455867 |     -295.803239 | <-- min LBFGS
 +------------+-------------+-------------+-----------------+ <-- min LBFGS
  

--------------------------------------------------------------------------------
 LBFGS: starting iteration         1 with trial guess (lambda=  1.000000)
--------------------------------------------------------------------------------
 
+---------------- MEMORY AND SCRATCH DISK ESTIMATES PER PROCESS --------------+
|                                                     Memory          Disk    |
| Model and support data                               52.1 MB         0.0 MB |
| Electronic energy minimisation requirements          43.3 MB         0.0 MB |
| Geometry minimisation requirements                   56.6 MB         0.0 MB |
|                                               ----------------------------- |
| Approx. total storage required per process          152.1 MB         0.0 MB |
|                                                                             |
| Requirements will fluctuate during execution and may exceed these estimates |
+-----------------------------------------------------------------------------+
 

                           -------------------------------
                                      Unit Cell
                           -------------------------------
        Real Lattice(A)              Reciprocal Lattice(1/A)
     5.1537375     0.0000000    -0.0156837        1.223891102   0.000000000   1.557550109
     0.0000000     2.9293953     0.0000000        0.000000000   2.144874480   0.000000000
    -3.4333638     0.0000000     2.6978673        0.007114918   0.000000000   2.337999903

                       Lattice parameters(A)       Cell Angles
                    a =      5.153761          alpha =   90.000000
                    b =      2.929395          beta  =  142.014820
                    c =      4.366517          gamma =   90.000000

                Current cell volume =            40.572863 A**3

                           -------------------------------
                                     Cell Contents
                           -------------------------------

            xxxxxxxxxxxxxxxxxxxxxxxxxxxxxxxxxxxxxxxxxxxxxxxxxxxxxxxxxxxxxxxxx
            x  Element         Atom        Fractional coordinates of atoms  x
            x                 Number           u          v          w      x
            x---------------------------------------------------------------x
            x  H                 1         0.191821  -0.094783   0.253942   x
            x  H                 2         0.354259   0.143745   0.253222   x
            x  H                 3         0.500000   0.136012   0.750000   x
            x  H                 4         0.500000   0.404088   0.750000   x
            x  H                 5         0.808179  -0.094783   0.246058   x
            x  H                 6         0.645741   0.143745   0.246778   x
            x  H                 7         0.691821   0.405217   0.253942   x
            x  H                 8         0.854259   0.643745   0.253222   x
            x  H                 9         0.000000   0.636012   0.750000   x
            x  H                10         0.000000   0.904088   0.750000   x
            x  H                11         0.308179   0.405217   0.246058   x
            x  H                12         0.145741   0.643745   0.246778   x
            x  H                13         0.308179   0.594783   0.746058   x
            x  H                14         0.145741   0.356255   0.746778   x
            x  H                15         0.000000   0.363988   0.250000   x
            x  H                16         0.000000   0.095912   0.250000   x
            x  H                17         0.691821   0.594783   0.753942   x
            x  H                18         0.854259   0.356255   0.753222   x
            x  H                19         0.808179   1.094783   0.746058   x
            x  H                20         0.645741   0.856255   0.746778   x
            x  H                21         0.500000   0.863988   0.250000   x
            x  H                22         0.500000   0.595912   0.250000   x
            x  H                23         0.191821   1.094783   0.753942   x
            x  H                24         0.354259   0.856255   0.753222   x
            xxxxxxxxxxxxxxxxxxxxxxxxxxxxxxxxxxxxxxxxxxxxxxxxxxxxxxxxxxxxxxxxx


------------------------------------------------------------------------ <-- SCF
SCF loop      Energy                           Energy gain       Timer   <-- SCF
                                               per atom          (sec)   <-- SCF
------------------------------------------------------------------------ <-- SCF
Initial  -3.49065985E+002                                         83.40  <-- SCF
      1  -3.49141044E+002                    3.12746093E-003      86.08  <-- SCF
      2  -3.49141500E+002                    1.90128981E-005      89.67  <-- SCF
      3  -3.49141537E+002                    1.52721241E-006      93.20  <-- SCF
      4  -3.49141558E+002                    8.76655863E-007      96.50  <-- SCF
      5  -3.49141559E+002                    2.66435257E-008     100.18  <-- SCF
      6  -3.49141559E+002                    2.48467358E-009     103.59  <-- SCF
      7  -3.49141559E+002                    4.60411179E-012     106.06  <-- SCF
      8  -3.49141559E+002                   -2.63840177E-013     108.45  <-- SCF
------------------------------------------------------------------------ <-- SCF
 
Final energy =  -349.1415586417     eV
(energy not corrected for finite basis set)
 

 ******************************** Symmetrised Forces ********************************
 *                                                                                  *
 *                           Cartesian components (eV/A)                            *
 * -------------------------------------------------------------------------------- *
 *                         x                    y                    z              *
 *                                                                                  *
 * H               1     -0.07492             -0.23522             -0.00536         *
 * H               2     -0.08380              0.23007             -0.00563         *
 * H               3      0.00000              0.24792             -0.00000         *
 * H               4      0.00000             -0.26869             -0.00000         *
 * H               5      0.07492             -0.23522              0.00536         *
 * H               6      0.08380              0.23007              0.00563         *
 * H               7     -0.07492             -0.23522             -0.00536         *
 * H               8     -0.08380              0.23007             -0.00563         *
 * H               9      0.00000              0.24792             -0.00000         *
 * H              10      0.00000             -0.26869             -0.00000         *
 * H              11      0.07492             -0.23522              0.00536         *
 * H              12      0.08380              0.23007              0.00563         *
 * H              13      0.07492              0.23522              0.00536         *
 * H              14      0.08380             -0.23007              0.00563         *
 * H              15     -0.00000             -0.24792             -0.00000         *
 * H              16      0.00000              0.26869             -0.00000         *
 * H              17     -0.07492              0.23522             -0.00536         *
 * H              18     -0.08380             -0.23007             -0.00563         *
 * H              19      0.07492              0.23522              0.00536         *
 * H              20      0.08380             -0.23007              0.00563         *
 * H              21     -0.00000             -0.24792             -0.00000         *
 * H              22      0.00000              0.26869             -0.00000         *
 * H              23     -0.07492              0.23522             -0.00536         *
 * H              24     -0.08380             -0.23007             -0.00563         *
 *                                                                                  *
 ************************************************************************************

 *********** Symmetrised Stress Tensor ***********
 *                                               *
 *          Cartesian components (GPa)           *
 * --------------------------------------------- *
 *             x             y             z     *
 *                                               *
 *  x   -205.099970      0.000000      0.039667  *
 *  y      0.000000   -195.464107      0.000000  *
 *  z      0.039667      0.000000   -208.310097  *
 *                                               *
 *  Pressure:  202.9581                          *
 *                                               *
 *************************************************
  
 +------------+-------------+-------------+-----------------+ <-- min LBFGS
 |    Step    |   lambda    |   F.delta'  |    enthalpy     | <-- min LBFGS
 +------------+-------------+-------------+-----------------+ <-- min LBFGS
 |  previous  |    0.000000 |    0.455867 |     -295.803239 | <-- min LBFGS
 | trial step |    1.000000 |   -0.111282 |     -295.962031 | <-- min LBFGS
 +------------+-------------+-------------+-----------------+ <-- min LBFGS
  
 LBFGS: finished iteration     1 with enthalpy= -2.95962031E+002 eV
  
 +-----------+-----------------+-----------------+------------+-----+ <-- LBFGS
 | Parameter |      value      |    tolerance    |    units   | OK? | <-- LBFGS
 +-----------+-----------------+-----------------+------------+-----+ <-- LBFGS
 |  dE/ion   |   6.616336E-003 |   1.000000E-009 |         eV | No  | <-- LBFGS
 |  |F|max   |   2.686925E-001 |   1.000000E-005 |       eV/A | No  | <-- LBFGS
 |  |dR|max  |   7.567727E-008 |   1.000000E-005 |          A | Yes | <-- LBFGS
 |   Smax    |   1.453589E+001 |   1.000000E-005 |        GPa | No  | <-- LBFGS
 +-----------+-----------------+-----------------+------------+-----+ <-- LBFGS
  

================================================================================
 Starting LBFGS iteration          2 ...
================================================================================
  
 +------------+-------------+-------------+-----------------+ <-- min LBFGS
 |    Step    |   lambda    |   F.delta'  |    enthalpy     | <-- min LBFGS
 +------------+-------------+-------------+-----------------+ <-- min LBFGS
 |  previous  |    0.000000 |    0.140110 |     -295.962031 | <-- min LBFGS
 +------------+-------------+-------------+-----------------+ <-- min LBFGS
  

--------------------------------------------------------------------------------
 LBFGS: starting iteration         2 with trial guess (lambda=  1.000000)
--------------------------------------------------------------------------------
 
+---------------- MEMORY AND SCRATCH DISK ESTIMATES PER PROCESS --------------+
|                                                     Memory          Disk    |
| Model and support data                               52.2 MB         0.0 MB |
| Electronic energy minimisation requirements          43.5 MB         0.0 MB |
| Geometry minimisation requirements                   56.8 MB         0.0 MB |
|                                               ----------------------------- |
| Approx. total storage required per process          152.4 MB         0.0 MB |
|                                                                             |
| Requirements will fluctuate during execution and may exceed these estimates |
+-----------------------------------------------------------------------------+
 

                           -------------------------------
                                      Unit Cell
                           -------------------------------
        Real Lattice(A)              Reciprocal Lattice(1/A)
     5.1653057     0.0000000    -0.0158581        1.221183708   0.000000000   1.551372406
     0.0000000     2.9205421     0.0000000        0.000000000   2.151376371   0.000000000
    -3.4411287     0.0000000     2.7087309        0.007149357   0.000000000   2.328687277

                       Lattice parameters(A)       Cell Angles
                    a =      5.165330          alpha =   90.000000
                    b =      2.920542          beta  =  141.967375
                    c =      4.379337          gamma =   90.000000

                Current cell volume =            40.703167 A**3

                           -------------------------------
                                     Cell Contents
                           -------------------------------

            xxxxxxxxxxxxxxxxxxxxxxxxxxxxxxxxxxxxxxxxxxxxxxxxxxxxxxxxxxxxxxxxx
            x  Element         Atom        Fractional coordinates of atoms  x
            x                 Number           u          v          w      x
            x---------------------------------------------------------------x
            x  H                 1         0.190530  -0.101296   0.253773   x
            x  H                 2         0.352822   0.150115   0.253045   x
            x  H                 3         0.500000   0.142877   0.750000   x
            x  H                 4         0.500000   0.396649   0.750000   x
            x  H                 5         0.809470  -0.101296   0.246227   x
            x  H                 6         0.647178   0.150115   0.246955   x
            x  H                 7         0.690530   0.398704   0.253773   x
            x  H                 8         0.852822   0.650115   0.253045   x
            x  H                 9         0.000000   0.642877   0.750000   x
            x  H                10         0.000000   0.896649   0.750000   x
            x  H                11         0.309470   0.398704   0.246227   x
            x  H                12         0.147178   0.650115   0.246955   x
            x  H                13         0.309470   0.601296   0.746227   x
            x  H                14         0.147178   0.349885   0.746955   x
            x  H                15         0.000000   0.357123   0.250000   x
            x  H                16         0.000000   0.103351   0.250000   x
            x  H                17         0.690530   0.601296   0.753773   x
            x  H                18         0.852822   0.349885   0.753045   x
            x  H                19         0.809470   1.101296   0.746227   x
            x  H                20         0.647178   0.849885   0.746955   x
            x  H                21         0.500000   0.857123   0.250000   x
            x  H                22         0.500000   0.603351   0.250000   x
            x  H                23         0.190530   1.101296   0.753773   x
            x  H                24         0.352822   0.849885   0.753045   x
            xxxxxxxxxxxxxxxxxxxxxxxxxxxxxxxxxxxxxxxxxxxxxxxxxxxxxxxxxxxxxxxxx


------------------------------------------------------------------------ <-- SCF
SCF loop      Energy                           Energy gain       Timer   <-- SCF
                                               per atom          (sec)   <-- SCF
------------------------------------------------------------------------ <-- SCF
Initial  -3.48248190E+002                                        111.37  <-- SCF
      1  -3.49332018E+002                    4.51595023E-002     114.11  <-- SCF
      2  -3.49339921E+002                    3.29278606E-004     117.58  <-- SCF
      3  -3.49269749E+002                   -2.92383460E-003     121.03  <-- SCF
      4  -3.49266757E+002                   -1.24659950E-004     124.43  <-- SCF
      5  -3.49266758E+002                    1.85005014E-008     127.72  <-- SCF
      6  -3.49266758E+002                    9.92494643E-009     131.18  <-- SCF
      7  -3.49270255E+002                    1.45711833E-004     134.59  <-- SCF
      8  -3.49270336E+002                    3.38529168E-006     136.97  <-- SCF
      9  -3.49270337E+002                    3.82075460E-008     140.73  <-- SCF
     10  -3.49271912E+002                    6.56020924E-005     144.40  <-- SCF
     11  -3.49272155E+002                    1.01376143E-005     147.71  <-- SCF
     12  -3.49272164E+002                    3.89098339E-007     151.24  <-- SCF
     13  -3.49272164E+002                   -1.09527610E-008     154.80  <-- SCF
     14  -3.49272162E+002                   -9.76577689E-008     158.26  <-- SCF
     15  -3.49272160E+002                   -8.23105524E-008     161.66  <-- SCF
     16  -3.49272160E+002                   -1.43488977E-009     165.27  <-- SCF
     17  -3.49272160E+002                   -6.43065116E-011     168.26  <-- SCF
     18  -3.49272160E+002                   -8.82152653E-013     170.67  <-- SCF
     19  -3.49272160E+002                    5.13582024E-013     173.01  <-- SCF
------------------------------------------------------------------------ <-- SCF
 
Final energy =  -349.2721595934     eV
(energy not corrected for finite basis set)
 

 ******************************** Symmetrised Forces ********************************
 *                                                                                  *
 *                           Cartesian components (eV/A)                            *
 * -------------------------------------------------------------------------------- *
 *                         x                    y                    z              *
 *                                                                                  *
 * H               1      0.13887              0.36228              0.04350         *
 * H               2      0.13217             -0.36987              0.01261         *
 * H               3     -0.00000             -0.71094             -0.00000         *
 * H               4      0.00000              0.45880             -0.00000         *
 * H               5     -0.13887              0.36228             -0.04350         *
 * H               6     -0.13217             -0.36987             -0.01261         *
 * H               7      0.13887              0.36228              0.04350         *
 * H               8      0.13217             -0.36987              0.01261         *
 * H               9     -0.00000             -0.71094             -0.00000         *
 * H              10     -0.00000              0.45880             -0.00000         *
 * H              11     -0.13887              0.36228             -0.04350         *
 * H              12     -0.13217             -0.36987             -0.01261         *
 * H              13     -0.13887             -0.36228             -0.04350         *
 * H              14     -0.13217              0.36987             -0.01261         *
 * H              15      0.00000              0.71094             -0.00000         *
 * H              16      0.00000             -0.45880             -0.00000         *
 * H              17      0.13887             -0.36228              0.04350         *
 * H              18      0.13217              0.36987              0.01261         *
 * H              19     -0.13887             -0.36228             -0.04350         *
 * H              20     -0.13217              0.36987             -0.01261         *
 * H              21      0.00000              0.71094             -0.00000         *
 * H              22      0.00000             -0.45880             -0.00000         *
 * H              23      0.13887             -0.36228              0.04350         *
 * H              24      0.13217              0.36987              0.01261         *
 *                                                                                  *
 ************************************************************************************

 *********** Symmetrised Stress Tensor ***********
 *                                               *
 *          Cartesian components (GPa)           *
 * --------------------------------------------- *
 *             x             y             z     *
 *                                               *
 *  x   -212.667781      0.000000     -0.424395  *
 *  y      0.000000   -219.368717      0.000000  *
 *  z     -0.424395      0.000000   -202.342092  *
 *                                               *
 *  Pressure:  211.4595                          *
 *                                               *
 *************************************************
  
 +------------+-------------+-------------+-----------------+ <-- min LBFGS
 |    Step    |   lambda    |   F.delta'  |    enthalpy     | <-- min LBFGS
 +------------+-------------+-------------+-----------------+ <-- min LBFGS
 |  previous  |    0.000000 |    0.140110 |     -295.962031 | <-- min LBFGS
 | trial step |    1.000000 |   -0.255929 |     -295.921823 | <-- min LBFGS
 +------------+-------------+-------------+-----------------+ <-- min LBFGS
  

--------------------------------------------------------------------------------
 LBFGS: improving iteration         2 with line minimization (lambda=  0.353778)
--------------------------------------------------------------------------------

                           -------------------------------
                                      Unit Cell
                           -------------------------------
        Real Lattice(A)              Reciprocal Lattice(1/A)
     5.1578300     0.0000000    -0.0157454        1.222931927   0.000000000   1.555358945
     0.0000000     2.9262633     0.0000000        0.000000000   2.147170211   0.000000000
    -3.4361109     0.0000000     2.7017106        0.007127165   0.000000000   2.334696795

                       Lattice parameters(A)       Cell Angles
                    a =      5.157854          alpha =   90.000000
                    b =      2.926263          beta  =  141.998003
                    c =      4.371052          gamma =   90.000000

                Current cell volume =            40.619054 A**3

                           -------------------------------
                                     Cell Contents
                           -------------------------------

            xxxxxxxxxxxxxxxxxxxxxxxxxxxxxxxxxxxxxxxxxxxxxxxxxxxxxxxxxxxxxxxxx
            x  Element         Atom        Fractional coordinates of atoms  x
            x                 Number           u          v          w      x
            x---------------------------------------------------------------x
            x  H                 1         0.191364  -0.097087   0.253882   x
            x  H                 2         0.353751   0.145998   0.253160   x
            x  H                 3         0.500000   0.138441   0.750000   x
            x  H                 4         0.500000   0.401456   0.750000   x
            x  H                 5         0.808636  -0.097087   0.246118   x
            x  H                 6         0.646249   0.145998   0.246840   x
            x  H                 7         0.691364   0.402913   0.253882   x
            x  H                 8         0.853751   0.645998   0.253160   x
            x  H                 9         0.000000   0.638441   0.750000   x
            x  H                10         0.000000   0.901456   0.750000   x
            x  H                11         0.308636   0.402913   0.246118   x
            x  H                12         0.146249   0.645998   0.246840   x
            x  H                13         0.308636   0.597087   0.746118   x
            x  H                14         0.146249   0.354002   0.746840   x
            x  H                15         0.000000   0.361559   0.250000   x
            x  H                16         0.000000   0.098544   0.250000   x
            x  H                17         0.691364   0.597087   0.753882   x
            x  H                18         0.853751   0.354002   0.753160   x
            x  H                19         0.808636   1.097087   0.746118   x
            x  H                20         0.646249   0.854002   0.746840   x
            x  H                21         0.500000   0.861559   0.250000   x
            x  H                22         0.500000   0.598544   0.250000   x
            x  H                23         0.191364   1.097087   0.753882   x
            x  H                24         0.353751   0.854002   0.753160   x
            xxxxxxxxxxxxxxxxxxxxxxxxxxxxxxxxxxxxxxxxxxxxxxxxxxxxxxxxxxxxxxxxx


------------------------------------------------------------------------ <-- SCF
SCF loop      Energy                           Energy gain       Timer   <-- SCF
                                               per atom          (sec)   <-- SCF
------------------------------------------------------------------------ <-- SCF
Initial  -3.48792710E+002                                        175.99  <-- SCF
      1  -3.49257367E+002                    1.93607300E-002     178.69  <-- SCF
      2  -3.49259489E+002                    8.84016251E-005     182.13  <-- SCF
      3  -3.49228515E+002                   -1.29057793E-003     185.59  <-- SCF
      4  -3.49227248E+002                   -5.27833785E-005     189.15  <-- SCF
      5  -3.49227248E+002                   -1.21516588E-008     192.55  <-- SCF
      6  -3.49227248E+002                    2.77047090E-009     195.97  <-- SCF
      7  -3.49227248E+002                    3.60373457E-011     198.47  <-- SCF
      8  -3.49227248E+002                    1.27307921E-011     200.82  <-- SCF
      9  -3.49227248E+002                    2.45713753E-013     203.24  <-- SCF
     10  -3.49227248E+002                    9.66742633E-014     205.63  <-- SCF
------------------------------------------------------------------------ <-- SCF
 
Final energy =  -349.2272480290     eV
(energy not corrected for finite basis set)
 

 ******************************** Symmetrised Forces ********************************
 *                                                                                  *
 *                           Cartesian components (eV/A)                            *
 * -------------------------------------------------------------------------------- *
 *                         x                    y                    z              *
 *                                                                                  *
 * H               1     -0.00888             -0.06409              0.01133         *
 * H               2     -0.01877              0.05683             -0.00069         *
 * H               3      0.00000             -0.04445             -0.00000         *
 * H               4      0.00000             -0.06052             -0.00000         *
 * H               5      0.00888             -0.06409             -0.01133         *
 * H               6      0.01877              0.05683              0.00069         *
 * H               7     -0.00888             -0.06409              0.01133         *
 * H               8     -0.01877              0.05683             -0.00069         *
 * H               9      0.00000             -0.04445             -0.00000         *
 * H              10      0.00000             -0.06052             -0.00000         *
 * H              11      0.00888             -0.06409             -0.01133         *
 * H              12      0.01877              0.05683              0.00069         *
 * H              13      0.00888              0.06409             -0.01133         *
 * H              14      0.01877             -0.05683              0.00069         *
 * H              15      0.00000              0.04445             -0.00000         *
 * H              16      0.00000              0.06052             -0.00000         *
 * H              17     -0.00888              0.06409              0.01133         *
 * H              18     -0.01877             -0.05683             -0.00069         *
 * H              19      0.00888              0.06409             -0.01133         *
 * H              20      0.01877             -0.05683              0.00069         *
 * H              21      0.00000              0.04445             -0.00000         *
 * H              22      0.00000              0.06052             -0.00000         *
 * H              23     -0.00888              0.06409              0.01133         *
 * H              24     -0.01877             -0.05683             -0.00069         *
 *                                                                                  *
 ************************************************************************************

 *********** Symmetrised Stress Tensor ***********
 *                                               *
 *          Cartesian components (GPa)           *
 * --------------------------------------------- *
 *             x             y             z     *
 *                                               *
 *  x   -208.537194      0.000000     -0.570322  *
 *  y      0.000000   -202.502345      0.000000  *
 *  z     -0.570322      0.000000   -206.020820  *
 *                                               *
 *  Pressure:  205.6868                          *
 *                                               *
 *************************************************
  
 +------------+-------------+-------------+-----------------+ <-- min LBFGS
 |    Step    |   lambda    |   F.delta'  |    enthalpy     | <-- min LBFGS
 +------------+-------------+-------------+-----------------+ <-- min LBFGS
 |  previous  |    0.000000 |    0.140110 |     -295.962031 | <-- min LBFGS
 | trial step |    1.000000 |   -0.255929 |     -295.921823 | <-- min LBFGS
 |  line step |    0.353778 |    0.024260 |     -295.987173 | <-- min LBFGS
 +------------+-------------+-------------+-----------------+ <-- min LBFGS
  
 LBFGS: finished iteration     2 with enthalpy= -2.95987173E+002 eV
  
 +-----------+-----------------+-----------------+------------+-----+ <-- LBFGS
 | Parameter |      value      |    tolerance    |    units   | OK? | <-- LBFGS
 +-----------+-----------------+-----------------+------------+-----+ <-- LBFGS
 |  dE/ion   |   1.047599E-003 |   1.000000E-009 |         eV | No  | <-- LBFGS
 |  |F|max   |   6.568994E-002 |   1.000000E-005 |       eV/A | No  | <-- LBFGS
 |  |dR|max  |   7.701904E-003 |   1.000000E-005 |          A | No  | <-- LBFGS
 |   Smax    |   7.497655E+000 |   1.000000E-005 |        GPa | No  | <-- LBFGS
 +-----------+-----------------+-----------------+------------+-----+ <-- LBFGS
  

================================================================================
 Starting LBFGS iteration          3 ...
================================================================================
  
 +------------+-------------+-------------+-----------------+ <-- min LBFGS
 |    Step    |   lambda    |   F.delta'  |    enthalpy     | <-- min LBFGS
 +------------+-------------+-------------+-----------------+ <-- min LBFGS
 |  previous  |    0.000000 |    0.062517 |     -295.987173 | <-- min LBFGS
 +------------+-------------+-------------+-----------------+ <-- min LBFGS
  

--------------------------------------------------------------------------------
 LBFGS: starting iteration         3 with trial guess (lambda=  1.000000)
--------------------------------------------------------------------------------

                           -------------------------------
                                      Unit Cell
                           -------------------------------
        Real Lattice(A)              Reciprocal Lattice(1/A)
     5.1566755     0.0000000    -0.0132648        1.222466613   0.000000000   1.558884022
     0.0000000     2.9140664     0.0000000        0.000000000   2.156157226   0.000000000
    -3.4340698     0.0000000     2.6929750        0.006021514   0.000000000   2.340854873

                       Lattice parameters(A)       Cell Angles
                    a =      5.156693          alpha =   90.000000
                    b =      2.914066          beta  =  142.044076
                    c =      4.364052          gamma =   90.000000

                Current cell volume =            40.334309 A**3

                           -------------------------------
                                     Cell Contents
                           -------------------------------

            xxxxxxxxxxxxxxxxxxxxxxxxxxxxxxxxxxxxxxxxxxxxxxxxxxxxxxxxxxxxxxxxx
            x  Element         Atom        Fractional coordinates of atoms  x
            x                 Number           u          v          w      x
            x---------------------------------------------------------------x
            x  H                 1         0.191750  -0.098474   0.254430   x
            x  H                 2         0.353566   0.147111   0.253160   x
            x  H                 3         0.500000   0.135242   0.750000   x
            x  H                 4         0.500000   0.400400   0.750000   x
            x  H                 5         0.808250  -0.098474   0.245570   x
            x  H                 6         0.646434   0.147111   0.246840   x
            x  H                 7         0.691750   0.401526   0.254430   x
            x  H                 8         0.853566   0.647111   0.253160   x
            x  H                 9         0.000000   0.635242   0.750000   x
            x  H                10         0.000000   0.900400   0.750000   x
            x  H                11         0.308250   0.401526   0.245570   x
            x  H                12         0.146434   0.647111   0.246840   x
            x  H                13         0.308250   0.598474   0.745570   x
            x  H                14         0.146434   0.352889   0.746840   x
            x  H                15         0.000000   0.364758   0.250000   x
            x  H                16         0.000000   0.099600   0.250000   x
            x  H                17         0.691750   0.598474   0.754430   x
            x  H                18         0.853566   0.352889   0.753160   x
            x  H                19         0.808250   1.098474   0.745570   x
            x  H                20         0.646434   0.852889   0.746840   x
            x  H                21         0.500000   0.864758   0.250000   x
            x  H                22         0.500000   0.599600   0.250000   x
            x  H                23         0.191750   1.098474   0.754430   x
            x  H                24         0.353566   0.852889   0.753160   x
            xxxxxxxxxxxxxxxxxxxxxxxxxxxxxxxxxxxxxxxxxxxxxxxxxxxxxxxxxxxxxxxxx


------------------------------------------------------------------------ <-- SCF
SCF loop      Energy                           Energy gain       Timer   <-- SCF
                                               per atom          (sec)   <-- SCF
------------------------------------------------------------------------ <-- SCF
Initial  -3.48813335E+002                                        208.61  <-- SCF
      1  -3.48863100E+002                    2.07355998E-003     211.55  <-- SCF
      2  -3.48863509E+002                    1.70157532E-005     215.01  <-- SCF
      3  -3.48857658E+002                   -2.43799341E-004     218.48  <-- SCF
      4  -3.48857680E+002                    9.53385197E-007     221.97  <-- SCF
      5  -3.48857682E+002                    6.61853638E-008     225.44  <-- SCF
      6  -3.48857682E+002                   -3.11963820E-010     228.73  <-- SCF
      7  -3.48857682E+002                    3.69174843E-011     231.16  <-- SCF
      8  -3.48857682E+002                    9.38545973E-013     233.69  <-- SCF
      9  -3.48857682E+002                    1.45011395E-013     236.27  <-- SCF
------------------------------------------------------------------------ <-- SCF
 
Final energy =  -348.8576819980     eV
(energy not corrected for finite basis set)
 

 ******************************** Symmetrised Forces ********************************
 *                                                                                  *
 *                           Cartesian components (eV/A)                            *
 * -------------------------------------------------------------------------------- *
 *                         x                    y                    z              *
 *                                                                                  *
 * H               1      0.00606              0.12855             -0.00184         *
 * H               2      0.03413             -0.09670              0.00093         *
 * H               3     -0.00000              0.11539              0.00000         *
 * H               4     -0.00000             -0.16111              0.00000         *
 * H               5     -0.00606              0.12855              0.00184         *
 * H               6     -0.03413             -0.09670             -0.00093         *
 * H               7      0.00606              0.12855             -0.00184         *
 * H               8      0.03413             -0.09670              0.00093         *
 * H               9     -0.00000              0.11539              0.00000         *
 * H              10     -0.00000             -0.16111              0.00000         *
 * H              11     -0.00606              0.12855              0.00184         *
 * H              12     -0.03413             -0.09670             -0.00093         *
 * H              13     -0.00606             -0.12855              0.00184         *
 * H              14     -0.03413              0.09670             -0.00093         *
 * H              15     -0.00000             -0.11539              0.00000         *
 * H              16     -0.00000              0.16111              0.00000         *
 * H              17      0.00606             -0.12855             -0.00184         *
 * H              18      0.03413              0.09670              0.00093         *
 * H              19     -0.00606             -0.12855              0.00184         *
 * H              20     -0.03413              0.09670             -0.00093         *
 * H              21     -0.00000             -0.11539              0.00000         *
 * H              22     -0.00000              0.16111              0.00000         *
 * H              23      0.00606             -0.12855             -0.00184         *
 * H              24      0.03413              0.09670              0.00093         *
 *                                                                                  *
 ************************************************************************************

 *********** Symmetrised Stress Tensor ***********
 *                                               *
 *          Cartesian components (GPa)           *
 * --------------------------------------------- *
 *             x             y             z     *
 *                                               *
 *  x   -211.963525      0.000000     -0.381775  *
 *  y      0.000000   -210.911965      0.000000  *
 *  z     -0.381775      0.000000   -209.455211  *
 *                                               *
 *  Pressure:  210.7769                          *
 *                                               *
 *************************************************
  
 +------------+-------------+-------------+-----------------+ <-- min LBFGS
 |    Step    |   lambda    |   F.delta'  |    enthalpy     | <-- min LBFGS
 +------------+-------------+-------------+-----------------+ <-- min LBFGS
 |  previous  |    0.000000 |    0.062517 |     -295.987173 | <-- min LBFGS
 | trial step |    1.000000 |   -0.036247 |     -295.990822 | <-- min LBFGS
 +------------+-------------+-------------+-----------------+ <-- min LBFGS
  
 LBFGS: finished iteration     3 with enthalpy= -2.95990822E+002 eV
  
 +-----------+-----------------+-----------------+------------+-----+ <-- LBFGS
 | Parameter |      value      |    tolerance    |    units   | OK? | <-- LBFGS
 +-----------+-----------------+-----------------+------------+-----+ <-- LBFGS
 |  dE/ion   |   1.520474E-004 |   1.000000E-009 |         eV | No  | <-- LBFGS
 |  |F|max   |   1.611092E-001 |   1.000000E-005 |       eV/A | No  | <-- LBFGS
 |  |dR|max  |   9.322640E-003 |   1.000000E-005 |          A | No  | <-- LBFGS
 |   Smax    |   1.963525E+000 |   1.000000E-005 |        GPa | No  | <-- LBFGS
 +-----------+-----------------+-----------------+------------+-----+ <-- LBFGS
  

================================================================================
 Starting LBFGS iteration          4 ...
================================================================================
  
 +------------+-------------+-------------+-----------------+ <-- min LBFGS
 |    Step    |   lambda    |   F.delta'  |    enthalpy     | <-- min LBFGS
 +------------+-------------+-------------+-----------------+ <-- min LBFGS
 |  previous  |    0.000000 |    0.053978 |     -295.990822 | <-- min LBFGS
 +------------+-------------+-------------+-----------------+ <-- min LBFGS
  

--------------------------------------------------------------------------------
 LBFGS: starting iteration         4 with trial guess (lambda=  1.000000)
--------------------------------------------------------------------------------

                           -------------------------------
                                      Unit Cell
                           -------------------------------
        Real Lattice(A)              Reciprocal Lattice(1/A)
     5.1584170     0.0000000    -0.0106695        1.221276076   0.000000000   1.562024128
     0.0000000     2.9052768     0.0000000        0.000000000   2.162680432   0.000000000
    -3.4338962     0.0000000     2.6848083        0.004853365   0.000000000   2.346480879

                       Lattice parameters(A)       Cell Angles
                    a =      5.158428          alpha =   90.000000
                    b =      2.905277          beta  =  142.098263
                    c =      4.358880          gamma =   90.000000

                Current cell volume =            40.129783 A**3

                           -------------------------------
                                     Cell Contents
                           -------------------------------

            xxxxxxxxxxxxxxxxxxxxxxxxxxxxxxxxxxxxxxxxxxxxxxxxxxxxxxxxxxxxxxxxx
            x  Element         Atom        Fractional coordinates of atoms  x
            x                 Number           u          v          w      x
            x---------------------------------------------------------------x
            x  H                 1         0.192040  -0.096806   0.254768   x
            x  H                 2         0.353844   0.145937   0.253182   x
            x  H                 3         0.500000   0.135641   0.750000   x
            x  H                 4         0.500000   0.395998   0.750000   x
            x  H                 5         0.807960  -0.096806   0.245232   x
            x  H                 6         0.646156   0.145937   0.246818   x
            x  H                 7         0.692040   0.403194   0.254768   x
            x  H                 8         0.853844   0.645937   0.253182   x
            x  H                 9         0.000000   0.635641   0.750000   x
            x  H                10         0.000000   0.895998   0.750000   x
            x  H                11         0.307960   0.403194   0.245232   x
            x  H                12         0.146156   0.645937   0.246818   x
            x  H                13         0.307960   0.596806   0.745232   x
            x  H                14         0.146156   0.354063   0.746818   x
            x  H                15         0.000000   0.364359   0.250000   x
            x  H                16         0.000000   0.104002   0.250000   x
            x  H                17         0.692040   0.596806   0.754768   x
            x  H                18         0.853844   0.354063   0.753182   x
            x  H                19         0.807960   1.096806   0.745232   x
            x  H                20         0.646156   0.854063   0.746818   x
            x  H                21         0.500000   0.864359   0.250000   x
            x  H                22         0.500000   0.604002   0.250000   x
            x  H                23         0.192040   1.096806   0.754768   x
            x  H                24         0.353844   0.854063   0.753182   x
            xxxxxxxxxxxxxxxxxxxxxxxxxxxxxxxxxxxxxxxxxxxxxxxxxxxxxxxxxxxxxxxxx


------------------------------------------------------------------------ <-- SCF
SCF loop      Energy                           Energy gain       Timer   <-- SCF
                                               per atom          (sec)   <-- SCF
------------------------------------------------------------------------ <-- SCF
Initial  -3.48507982E+002                                        239.14  <-- SCF
      1  -3.48599273E+002                    3.80382139E-003     242.00  <-- SCF
      2  -3.48600804E+002                    6.37697712E-005     245.60  <-- SCF
      3  -3.48586477E+002                   -5.96960922E-004     249.04  <-- SCF
      4  -3.48586498E+002                    8.85777122E-007     252.55  <-- SCF
      5  -3.48586501E+002                    1.03307665E-007     255.89  <-- SCF
      6  -3.48586501E+002                    1.03193734E-010     259.47  <-- SCF
      7  -3.48586501E+002                    6.59056650E-011     262.04  <-- SCF
      8  -3.48586501E+002                    2.73507603E-012     264.34  <-- SCF
      9  -3.48586501E+002                    7.65337918E-013     266.82  <-- SCF
------------------------------------------------------------------------ <-- SCF
 
Final energy =  -348.5865005389     eV
(energy not corrected for finite basis set)
 

 ******************************** Symmetrised Forces ********************************
 *                                                                                  *
 *                           Cartesian components (eV/A)                            *
 * -------------------------------------------------------------------------------- *
 *                         x                    y                    z              *
 *                                                                                  *
 * H               1     -0.02252             -0.01617             -0.01376         *
 * H               2     -0.05545              0.08671             -0.01727         *
 * H               3      0.00000             -0.24340              0.00000         *
 * H               4      0.00000              0.28795              0.00000         *
 * H               5      0.02252             -0.01617              0.01376         *
 * H               6      0.05545              0.08671              0.01727         *
 * H               7     -0.02252             -0.01617             -0.01376         *
 * H               8     -0.05545              0.08671             -0.01727         *
 * H               9      0.00000             -0.24340              0.00000         *
 * H              10      0.00000              0.28795              0.00000         *
 * H              11      0.02252             -0.01617              0.01376         *
 * H              12      0.05545              0.08671              0.01727         *
 * H              13      0.02252              0.01617              0.01376         *
 * H              14      0.05545             -0.08671              0.01727         *
 * H              15     -0.00000              0.24340              0.00000         *
 * H              16      0.00000             -0.28795              0.00000         *
 * H              17     -0.02252              0.01617             -0.01376         *
 * H              18     -0.05545             -0.08671             -0.01727         *
 * H              19      0.02252              0.01617              0.01376         *
 * H              20      0.05545             -0.08671              0.01727         *
 * H              21      0.00000              0.24340              0.00000         *
 * H              22      0.00000             -0.28795              0.00000         *
 * H              23     -0.02252              0.01617             -0.01376         *
 * H              24     -0.05545             -0.08671             -0.01727         *
 *                                                                                  *
 ************************************************************************************

 *********** Symmetrised Stress Tensor ***********
 *                                               *
 *          Cartesian components (GPa)           *
 * --------------------------------------------- *
 *             x             y             z     *
 *                                               *
 *  x   -214.196505      0.000000      0.321167  *
 *  y      0.000000   -215.522329      0.000000  *
 *  z      0.321167      0.000000   -212.049586  *
 *                                               *
 *  Pressure:  213.9228                          *
 *                                               *
 *************************************************
  
 +------------+-------------+-------------+-----------------+ <-- min LBFGS
 |    Step    |   lambda    |   F.delta'  |    enthalpy     | <-- min LBFGS
 +------------+-------------+-------------+-----------------+ <-- min LBFGS
 |  previous  |    0.000000 |    0.053978 |     -295.990822 | <-- min LBFGS
 | trial step |    1.000000 |   -0.079945 |     -295.987723 | <-- min LBFGS
 +------------+-------------+-------------+-----------------+ <-- min LBFGS
  

--------------------------------------------------------------------------------
 LBFGS: improving iteration         4 with line minimization (lambda=  0.403051)
--------------------------------------------------------------------------------

                           -------------------------------
                                      Unit Cell
                           -------------------------------
        Real Lattice(A)              Reciprocal Lattice(1/A)
     5.1573774     0.0000000    -0.0122188        1.221987044   0.000000000   1.560147689
     0.0000000     2.9105237     0.0000000        0.000000000   2.158781670   0.000000000
    -3.4339998     0.0000000     2.6896834        0.005551269   0.000000000   2.343119050

                       Lattice parameters(A)       Cell Angles
                    a =      5.157392          alpha =   90.000000
                    b =      2.910524          beta  =  142.065890
                    c =      4.361966          gamma =   90.000000

                Current cell volume =            40.251825 A**3

                           -------------------------------
                                     Cell Contents
                           -------------------------------

            xxxxxxxxxxxxxxxxxxxxxxxxxxxxxxxxxxxxxxxxxxxxxxxxxxxxxxxxxxxxxxxxx
            x  Element         Atom        Fractional coordinates of atoms  x
            x                 Number           u          v          w      x
            x---------------------------------------------------------------x
            x  H                 1         0.191867  -0.097802   0.254566   x
            x  H                 2         0.353678   0.146638   0.253169   x
            x  H                 3         0.500000   0.135403   0.750000   x
            x  H                 4         0.500000   0.398626   0.750000   x
            x  H                 5         0.808133  -0.097802   0.245434   x
            x  H                 6         0.646322   0.146638   0.246831   x
            x  H                 7         0.691867   0.402198   0.254566   x
            x  H                 8         0.853678   0.646638   0.253169   x
            x  H                 9         0.000000   0.635403   0.750000   x
            x  H                10         0.000000   0.898626   0.750000   x
            x  H                11         0.308133   0.402198   0.245434   x
            x  H                12         0.146322   0.646638   0.246831   x
            x  H                13         0.308133   0.597802   0.745434   x
            x  H                14         0.146322   0.353362   0.746831   x
            x  H                15         0.000000   0.364597   0.250000   x
[...]
      H    18      S                    1.036
      H    19      S                    0.963
      H    20      S                    1.034
      H    21      S                    1.030
      H    22      S                    0.974
      H    23      S                    0.963
      H    24      S                    1.036
  -------------------------------------------
                           Total:      24.000
  -------------------------------------------

     Atomic Populations (Mulliken)
     -----------------------------
Species          Ion     s      p      d      f     Total  Charge (e)
=====================================================================
  H               1     0.96   0.00   0.00   0.00   0.96     0.04
  H               2     1.03   0.00   0.00   0.00   1.03    -0.03
  H               3     1.03   0.00   0.00   0.00   1.03    -0.03
  H               4     0.97   0.00   0.00   0.00   0.97     0.03
  H               5     0.96   0.00   0.00   0.00   0.96     0.04
  H               6     1.03   0.00   0.00   0.00   1.03    -0.03
  H               7     0.96   0.00   0.00   0.00   0.96     0.04
  H               8     1.03   0.00   0.00   0.00   1.03    -0.03
  H               9     1.03   0.00   0.00   0.00   1.03    -0.03
  H              10     0.97   0.00   0.00   0.00   0.97     0.03
  H              11     0.96   0.00   0.00   0.00   0.96     0.04
  H              12     1.03   0.00   0.00   0.00   1.03    -0.03
  H              13     0.96   0.00   0.00   0.00   0.96     0.04
  H              14     1.03   0.00   0.00   0.00   1.03    -0.03
  H              15     1.03   0.00   0.00   0.00   1.03    -0.03
  H              16     0.97   0.00   0.00   0.00   0.97     0.03
  H              17     0.96   0.00   0.00   0.00   0.96     0.04
  H              18     1.03   0.00   0.00   0.00   1.03    -0.03
  H              19     0.96   0.00   0.00   0.00   0.96     0.04
  H              20     1.03   0.00   0.00   0.00   1.03    -0.03
  H              21     1.03   0.00   0.00   0.00   1.03    -0.03
  H              22     0.97   0.00   0.00   0.00   0.97     0.03
  H              23     0.96   0.00   0.00   0.00   0.96     0.04
  H              24     1.03   0.00   0.00   0.00   1.03    -0.03
=====================================================================

                 Bond                   Population      Length (A)
======================================================================
              H 3  -- H 4                    1.63        0.74334
              H 15 -- H 16                   1.63        0.74334
              H 21 -- H 22                   1.63        0.74334
              H 9  -- H 10                   1.63        0.74334
              H 13 -- H 24                   1.63        0.74895
              H 17 -- H 20                   1.63        0.74895
              H 14 -- H 23                   1.63        0.74895
              H 2  -- H 11                   1.63        0.74895
              H 1  -- H 12                   1.63        0.74895
              H 18 -- H 19                   1.63        0.74895
              H 5  -- H 8                    1.63        0.74895
              H 6  -- H 7                    1.63        0.74895
              H 7  -- H 15                   0.14        1.22586
              H 9  -- H 17                   0.14        1.22586
              H 5  -- H 21                   0.14        1.22586
              H 3  -- H 19                   0.14        1.22586
              H 9  -- H 13                   0.14        1.22586
              H 1  -- H 21                   0.14        1.22586
              H 11 -- H 15                   0.14        1.22586
              H 3  -- H 23                   0.14        1.22586
              H 5  -- H 6                   -0.12        1.23806
              H 1  -- H 2                   -0.12        1.23806
              H 7  -- H 8                   -0.12        1.23806
              H 11 -- H 12                  -0.12        1.23806
              H 19 -- H 20                  -0.12        1.23806
              H 23 -- H 24                  -0.12        1.23806
              H 17 -- H 18                  -0.12        1.23806
              H 13 -- H 14                  -0.12        1.23806
              H 10 -- H 18                   0.01        1.24066
              H 4  -- H 20                   0.01        1.24066
              H 10 -- H 14                   0.01        1.24066
              H 8  -- H 16                   0.01        1.24066
              H 6  -- H 22                   0.01        1.24066
              H 12 -- H 16                   0.01        1.24066
              H 4  -- H 24                   0.01        1.24066
              H 2  -- H 22                   0.01        1.24066
              H 8  -- H 20                   0.05        1.33408
              H 6  -- H 18                   0.05        1.33408
              H 2  -- H 14                   0.05        1.33408
              H 12 -- H 24                   0.05        1.33408
              H 9  -- H 18                  -0.23        1.39836
              H 9  -- H 14                  -0.23        1.39836
              H 6  -- H 21                  -0.23        1.39836
              H 2  -- H 21                  -0.23        1.39836
              H 3  -- H 20                  -0.23        1.39836
              H 8  -- H 15                  -0.23        1.39836
              H 3  -- H 24                  -0.23        1.39836
              H 12 -- H 15                  -0.23        1.39836
              H 17 -- H 22                   0.01        1.40137
              H 4  -- H 7                    0.01        1.40137
              H 13 -- H 22                   0.01        1.40137
              H 1  -- H 10                   0.01        1.40137
              H 16 -- H 19                   0.01        1.40137
              H 16 -- H 23                   0.01        1.40137
              H 5  -- H 10                   0.01        1.40137
              H 4  -- H 11                   0.01        1.40137
              H 14 -- H 18                  -0.04        1.43516
              H 20 -- H 24                  -0.04        1.43516
              H 8  -- H 12                  -0.04        1.43516
              H 2  -- H 6                   -0.04        1.43516
              H 10 -- H 17                  -0.15        1.47247
              H 10 -- H 13                  -0.15        1.47247
              H 4  -- H 19                  -0.15        1.47247
              H 7  -- H 16                  -0.15        1.47247
              H 5  -- H 22                  -0.15        1.47247
              H 4  -- H 23                  -0.15        1.47247
              H 11 -- H 16                  -0.15        1.47247
              H 1  -- H 22                  -0.15        1.47247
              H 13 -- H 23                  -0.24        1.48541
              H 17 -- H 19                  -0.24        1.48541
              H 1  -- H 11                  -0.24        1.48541
              H 5  -- H 7                   -0.24        1.48541
              H 9  -- H 11                  -0.01        1.49869
              H 21 -- H 23                  -0.01        1.49869
              H 19 -- H 21                  -0.01        1.49869
              H 3  -- H 5                   -0.01        1.49869
              H 7  -- H 9                   -0.01        1.49869
              H 1  -- H 3                   -0.01        1.49869
              H 13 -- H 15                  -0.01        1.49869
              H 15 -- H 17                  -0.01        1.49869
              H 11 -- H 22                  -0.15        1.52063
              H 1  -- H 16                  -0.15        1.52063
              H 10 -- H 23                  -0.15        1.52063
              H 5  -- H 16                  -0.15        1.52063
              H 10 -- H 19                  -0.15        1.52063
              H 7  -- H 22                  -0.15        1.52063
              H 4  -- H 13                  -0.15        1.52063
              H 4  -- H 17                  -0.15        1.52063
              H 18 -- H 21                  -0.15        1.53477
              H 14 -- H 21                  -0.15        1.53477
              H 6  -- H 9                   -0.15        1.53477
              H 2  -- H 9                   -0.15        1.53477
              H 15 -- H 24                  -0.15        1.53477
              H 15 -- H 20                  -0.15        1.53477
              H 3  -- H 12                  -0.15        1.53477
              H 3  -- H 8                   -0.15        1.53477
              H 5  -- H 23                  -0.16        1.55101
              H 1  -- H 19                  -0.16        1.55101
              H 11 -- H 17                  -0.16        1.55101
              H 7  -- H 13                  -0.16        1.55101
              H 12 -- H 17                  -0.16        1.55801
              H 8  -- H 13                  -0.16        1.55801
              H 6  -- H 23                  -0.16        1.55801
              H 2  -- H 19                  -0.16        1.55801
              H 11 -- H 18                  -0.16        1.55801
              H 5  -- H 24                  -0.16        1.55801
              H 7  -- H 14                  -0.16        1.55801
              H 1  -- H 20                  -0.16        1.55801
              H 4  -- H 15                  -0.22        1.59090
              H 3  -- H 16                  -0.22        1.59090
              H 10 -- H 21                  -0.22        1.59090
              H 9  -- H 22                  -0.22        1.59090
              H 2  -- H 18                  -0.13        1.61739
              H 6  -- H 14                  -0.13        1.61739
              H 8  -- H 24                  -0.13        1.61739
              H 12 -- H 20                  -0.13        1.61739
              H 1  -- H 18                  -0.17        1.66956
              H 11 -- H 20                  -0.17        1.66956
              H 7  -- H 24                  -0.17        1.66956
              H 5  -- H 14                  -0.17        1.66956
              H 8  -- H 23                  -0.17        1.66956
              H 12 -- H 19                  -0.17        1.66956
              H 6  -- H 13                  -0.17        1.66956
              H 2  -- H 17                  -0.17        1.66956
              H 17 -- H 21                  -0.14        1.68084
              H 13 -- H 21                  -0.14        1.68084
              H 15 -- H 19                  -0.14        1.68084
              H 15 -- H 23                  -0.14        1.68084
              H 3  -- H 7                   -0.14        1.68084
              H 3  -- H 11                  -0.14        1.68084
              H 1  -- H 9                   -0.14        1.68084
              H 5  -- H 9                   -0.14        1.68084
              H 4  -- H 16                  -0.28        1.69929
              H 10 -- H 22                  -0.28        1.69929
              H 2  -- H 4                   -0.08        1.73557
              H 10 -- H 12                  -0.08        1.73557
              H 8  -- H 10                  -0.08        1.73557
              H 4  -- H 6                   -0.08        1.73557
              H 22 -- H 24                  -0.08        1.73557
              H 20 -- H 22                  -0.08        1.73557
              H 16 -- H 18                  -0.08        1.73557
              H 14 -- H 16                  -0.08        1.73557
              H 3  -- H 15                  -0.38        1.81093
              H 9  -- H 21                  -0.38        1.81093
              H 2  -- H 3                   -0.13        1.82974
              H 3  -- H 6                   -0.13        1.82974
              H 9  -- H 12                  -0.13        1.82974
              H 15 -- H 18                  -0.13        1.82974
              H 14 -- H 15                  -0.13        1.82974
              H 8  -- H 9                   -0.13        1.82974
              H 21 -- H 24                  -0.13        1.82974
              H 20 -- H 21                  -0.13        1.82974
              H 18 -- H 22                  -0.28        1.83162
              H 14 -- H 22                  -0.28        1.83162
              H 16 -- H 24                  -0.28        1.83162
              H 16 -- H 20                  -0.28        1.83162
              H 6  -- H 10                  -0.28        1.83162
              H 2  -- H 10                  -0.28        1.83162
              H 4  -- H 12                  -0.28        1.83162
              H 4  -- H 8                   -0.28        1.83162
              H 7  -- H 20                  -0.06        1.83789
              H 5  -- H 18                  -0.06        1.83789
              H 1  -- H 14                  -0.06        1.83789
              H 11 -- H 24                  -0.06        1.83789
              H 8  -- H 19                  -0.06        1.83789
              H 12 -- H 23                  -0.06        1.83789
              H 6  -- H 17                  -0.06        1.83789
              H 2  -- H 13                  -0.06        1.83789
              H 12 -- H 13                  -0.10        1.85653
              H 8  -- H 17                  -0.10        1.85653
              H 11 -- H 14                  -0.10        1.85653
              H 2  -- H 23                  -0.10        1.85653
              H 6  -- H 19                  -0.10        1.85653
              H 5  -- H 20                  -0.10        1.85653
              H 7  -- H 18                  -0.10        1.85653
              H 1  -- H 24                  -0.10        1.85653
              H 1  -- H 17                  -0.29        1.88899
              H 5  -- H 13                  -0.29        1.88899
              H 11 -- H 19                  -0.29        1.88899
              H 7  -- H 23                  -0.29        1.88899
              H 2  -- H 12                  -0.36        1.88968
              H 6  -- H 8                   -0.36        1.88968
              H 14 -- H 24                  -0.36        1.88968
              H 18 -- H 20                  -0.36        1.88968
              H 10 -- H 11                  -0.16        1.89255
              H 4  -- H 5                   -0.16        1.89255
              H 1  -- H 4                   -0.16        1.89255
              H 7  -- H 10                  -0.16        1.89255
              H 22 -- H 23                  -0.16        1.89255
              H 19 -- H 22                  -0.16        1.89255
              H 13 -- H 16                  -0.16        1.89255
              H 16 -- H 17                  -0.16        1.89255
              H 2  -- H 15                  -0.15        1.90262
              H 6  -- H 15                  -0.15        1.90262
              H 12 -- H 21                  -0.15        1.90262
              H 9  -- H 24                  -0.15        1.90262
              H 8  -- H 21                  -0.15        1.90262
              H 3  -- H 14                  -0.15        1.90262
              H 3  -- H 18                  -0.15        1.90262
              H 9  -- H 20                  -0.15        1.90262
              H 6  -- H 24                  -0.13        1.90359
              H 2  -- H 20                  -0.13        1.90359
              H 12 -- H 18                  -0.13        1.90359
              H 8  -- H 14                  -0.13        1.90359
              H 2  -- H 16                  -0.22        1.93902
              H 12 -- H 22                  -0.22        1.93902
              H 6  -- H 16                  -0.22        1.93902
              H 10 -- H 24                  -0.22        1.93902
              H 8  -- H 22                  -0.22        1.93902
              H 4  -- H 18                  -0.22        1.93902
              H 4  -- H 14                  -0.22        1.93902
              H 10 -- H 20                  -0.22        1.93902
              H 1  -- H 15                  -0.34        1.96059
              H 5  -- H 15                  -0.34        1.96059
              H 11 -- H 21                  -0.34        1.96059
              H 7  -- H 21                  -0.34        1.96059
              H 9  -- H 23                  -0.34        1.96059
              H 9  -- H 19                  -0.34        1.96059
              H 3  -- H 13                  -0.34        1.96059
              H 3  -- H 17                  -0.34        1.96059
              H 13 -- H 20                  -0.08        2.11568
              H 18 -- H 23                  -0.08        2.11568
              H 17 -- H 24                  -0.08        2.11568
              H 6  -- H 11                  -0.08        2.11568
              H 14 -- H 19                  -0.08        2.11568
              H 1  -- H 8                   -0.08        2.11568
              H 5  -- H 12                  -0.08        2.11568
              H 2  -- H 7                   -0.08        2.11568
              H 1  -- H 23                  -0.09        2.22082
              H 7  -- H 17                  -0.09        2.22082
              H 5  -- H 19                  -0.09        2.22082
              H 11 -- H 13                  -0.09        2.22082
              H 2  -- H 5                   -0.01        2.24032
              H 1  -- H 6                   -0.01        2.24032
              H 8  -- H 11                  -0.01        2.24032
              H 7  -- H 12                  -0.01        2.24032
              H 19 -- H 24                  -0.01        2.24032
              H 20 -- H 23                  -0.01        2.24032
              H 14 -- H 17                  -0.01        2.24032
              H 13 -- H 18                  -0.01        2.24032
              H 9  -- H 15                  -0.01        2.25655
              H 3  -- H 21                  -0.01        2.25655
              H 5  -- H 17                  -0.08        2.31872
              H 7  -- H 19                  -0.08        2.31872
              H 1  -- H 13                  -0.08        2.31872
              H 11 -- H 23                  -0.08        2.31872
              H 10 -- H 16                   0.04        2.34078
              H 4  -- H 22                   0.04        2.34078
              H 7  -- H 11                  -0.04        2.44702
              H 1  -- H 5                   -0.04        2.44702
              H 13 -- H 17                  -0.04        2.44702
              H 19 -- H 23                  -0.04        2.44702
              H 12 -- H 14                   0.02        2.46364
              H 6  -- H 20                   0.02        2.46364
              H 2  -- H 24                   0.02        2.46364
              H 8  -- H 18                   0.02        2.46364
              H 4  -- H 21                   0.03        2.55745
              H 9  -- H 16                   0.03        2.55745
              H 10 -- H 15                   0.03        2.55745
              H 3  -- H 22                   0.03        2.55745
======================================================================


Writing analysis data to C2c.castep_bin

Writing model to C2c.check
 
 A BibTeX formatted list of references used in this run has been written to 
 C2c.bib
 
Initialisation time =      1.62 s
Calculation time    =   2195.93 s
Finalisation time   =      4.12 s
Total time          =   2201.67 s
Peak Memory Use     = 548352 kB
  
Overall parallel efficiency rating: Excellent (90%)                             
  
Data was distributed by:-
k-point (16-way); efficiency rating: Excellent (91%)                            
