 +-------------------------------------------------+
 |                                                 |
 |      CCC   AA    SSS  TTTTT  EEEEE  PPPP        |
 |     C     A  A  S       T    E      P   P       |
 |     C     AAAA   SS     T    EEE    PPPP        |
 |     C     A  A     S    T    E      P           |
 |      CCC  A  A  SSS     T    EEEEE  P           |
 |                                                 |
 +-------------------------------------------------+
 |                                                 |
 | Welcome to Academic Release CASTEP version 18.1 |          
 | Ab Initio Total Energy Program                  |
 |                                                 |
 | Authors:                                        |
 | M. Segall, M. Probert, C. Pickard, P. Hasnip,   |
 | S. Clark, K. Refson, J. R. Yates, M. Payne      |
 |                                                 |
 | Contributors:                                   |
 | P. Lindan, P. Haynes, J. White, V. Milman,      |
 | N. Govind, M. Gibson, P. Tulip, V. Cocula,      |
 | B. Montanari, D. Quigley, M. Glover,            |
 | L. Bernasconi, A. Perlov, M. Plummer,           |
 | E. McNellis, J. Meyer, J. Gale, D. Jochym       |
 | J. Aarons, B. Walker, R. Gillen, D. Jones       |
 | T. Green, I. J. Bush, C. J. Armstrong,          |
 | E. J. Higgins, E. L. Brown, M. S. McFly,        |
 | J. Wilkins, B-C. Shih, P. J. P. Byrne           |
 |                                                 |
 | Copyright (c) 2000 - 2017                       |
 |                                                 |
 |     Distributed under the terms of an           |
 |     Agreement between the United Kingdom        |
 |     Car-Parrinello (UKCP) Consortium,           |
 |     Daresbury Laboratory and Accelrys, Inc.     |
 |                                                 |
 | Please cite                                     |
 |                                                 |
 |     "First principles methods using CASTEP"     |
 |                                                 |
 |         Zeitschrift fuer Kristallographie       |
 |           220(5-6) pp. 567-570 (2005)           |
 |                                                 |
 | S. J. Clark, M. D. Segall, C. J. Pickard,       |
 | P. J. Hasnip, M. J. Probert, K. Refson,         |
 | M. C. Payne                                     |
 |                                                 |
 |       in all publications arising from          |
 |              your use of CASTEP                 |
 |                                                 |
 +-------------------------------------------------+


 Compiled for linux_x86_64_gfortran4.8 on Thu, 19 Jul 2018 15:42:32 +0100
 from code version 70483bd0ad64+  Sun, 10 Dec 2017 12:18:29 +0000
 Compiler: GNU Fortran 4.8.5; Optimisation: fast
 MATHLIBS: Intel MKL(2018.0.0) (LAPACK version 3.7.0)
 FFT Lib : mkl
 Fundamental constants values: CODATA 2014

 Run started: Mon, 22 Jun 2020 15:12:59 +0100

 Atomic calculation performed for Fe: 1s2 2s2 2p6 3s2 3p6 3d6 4s2

 Converged in 98 iterations to an ae energy of -34563.484 eV

   ============================================================                
   | Pseudopotential Report - Date of generation 22-06-2020   |                
   ------------------------------------------------------------                
   | Element: Fe Ionic charge:  8.00 Level of theory: LDA     |                
   | Atomic Solver: Koelling-Harmon                           |                
   |                                                          |                
   |               Reference Electronic Structure             |                
   |         Orbital         Occupation         Energy        |                
   |            3d              6.000           -0.285        |                
   |            4s              2.000           -0.202        |                
   |                                                          |                
   |                 Pseudopotential Definition               |                
   |        Beta     l      e      Rc     scheme   norm       |                
   |          1      0   -0.202   2.399     qc      0         |                
   |          2      0    0.250   2.399     qc      0         |                
   |          3      1    0.000   2.399     qc      0         |                
   |          4      1    0.250   2.399     qc      0         |                
   |          5      2   -0.285   1.997     qc      0         |                
   |          6      2    0.250   1.997     qc      0         |                
   |         loc     3    0.000   2.399     pn      0         |                
   |                                                          |                
   | Augmentation charge Rinner = 1.000                       |                
   | Partial core correction Rc = 1.000                       |                
   ------------------------------------------------------------                
   | "3|2.4|2.4|1.0|8|9|10|40:41:32U2U2(qc=5.5)"              |                
   ------------------------------------------------------------                
   |      Author: Chris J. Pickard, Cambridge University      |                
   ============================================================                

 Pseudo atomic calculation performed for Fe 3d6 4s2

 Converged in 29 iterations to a total energy of -847.0421 eV

 Calculation parallelised over 16 processes.
 Data is distributed by G-vector(8-way) and k-point(2-way)

 ************************************ Title ************************************
 

 ***************************** General Parameters ******************************
  
 output verbosity                               : normal  (1)
 write checkpoint data to                       : Fe.check
 type of calculation                            : band structure
 stress calculation                             : off
 density difference calculation                 : off
 electron localisation func (ELF) calculation   : off
 Hirshfeld analysis                             : off
 unlimited duration calculation
 timing information                             : on
 memory usage estimate                          : on
 write extra output files                       : on
 write final potential to formatted file        : off
 write final density to formatted file          : on
 write BibTeX reference list                    : on
 write OTFG pseudopotential files               : on
 write electrostatic potential file             : on
 write bands file                               : on
 checkpoint writing                             : both castep_bin and check files
  
 output         length unit                     : A
 output           mass unit                     : amu
 output           time unit                     : ps
 output         charge unit                     : e
 output           spin unit                     : hbar/2
 output         energy unit                     : eV
 output          force unit                     : eV/A
 output       velocity unit                     : A/ps
 output       pressure unit                     : GPa
 output     inv_length unit                     : 1/A
 output      frequency unit                     : cm-1
 output force constant unit                     : eV/A**2
 output         volume unit                     : A**3
 output   IR intensity unit                     : (D/A)**2/amu
 output         dipole unit                     : D
 output         efield unit                     : eV/A/e
 output        entropy unit                     : J/mol/K
  
 wavefunctions paging                           : none
 random number generator seed                   : randomised (151259576)
 data distribution                              : optimal for this architecture
 optimization strategy                          : maximize speed(+++)

 *********************** Exchange-Correlation Parameters ***********************
  
 using functional                               : Local Density Approximation
 relativistic treatment                         : Koelling-Harmon
 DFT+D: Semi-empirical dispersion correction    : off

 ************************* Pseudopotential Parameters **************************
  
 pseudopotential representation                 : reciprocal space
 <beta|phi> representation                      : reciprocal space
 spin-orbit coupling                            : off

 **************************** Basis Set Parameters *****************************
  
 basis set accuracy                             : MEDIUM
 plane wave basis set cut-off                   :   244.9025   eV
 size of standard grid                          :     1.7500
 size of   fine   gmax                          :    14.0305   1/A
 finite basis set correction                    : none

 **************************** Electronic Parameters ****************************
  
 number of  electrons                           :  8.000    
 net charge of system                           :  0.000    
 net spin   of system                           :  1.000    
 number of  up  spins                           :  4.500    
 number of down spins                           :  3.500    
 treating system as spin-polarized
 number of bands                                :          9

 ********************* Electronic Minimization Parameters **********************
  
 Method: Treating system as metallic with density mixing treatment of electrons,
         and number of  SD  steps               :          1
         and number of  CG  steps               :          4
  
 total energy / atom convergence tol.           : 0.1000E-04   eV
 eigen-energy convergence tolerance             : 0.1000E-05   eV
 max force / atom convergence tol.              : ignored
 convergence tolerance window                   :          3   cycles
 max. number of SCF cycles                      :         30
 number of fixed-spin iterations                :         10
 smearing scheme                                : Gaussian
 smearing width                                 : 0.2000       eV
 Fermi energy convergence tolerance             : 0.2721E-13   eV
 periodic dipole correction                     : NONE

 ************************** Density Mixing Parameters **************************
  
 density-mixing scheme                          : Broyden
 max. length of mixing history                  :         20
 charge density mixing amplitude                : 0.8000    
   spin density mixing amplitude                :  2.000    

 *********************** Population Analysis Parameters ************************
  
 Population analysis with cutoff                :  3.000       A
 Population analysis output                     : summary and pdos components

 ************************** Band Structure Parameters **************************
  
 max. number of iterations                      :         60
 max. CG steps in BS calc                       :         25
 number of bands / k-point                      :          6
 band convergence tolerance                     : 0.1000E-05   eV
 write orbitals file                            : on

 *******************************************************************************
  

                           -------------------------------
                                      Unit Cell
                           -------------------------------
        Real Lattice(A)                      Reciprocal Lattice(1/A)
    -1.4332000     1.4332000     1.4332000        0.000000000   2.192012736   2.192012736
     1.4332000    -1.4332000     1.4332000        2.192012736  -0.000000000   2.192012736
     1.4332000     1.4332000    -1.4332000        2.192012736   2.192012736  -0.000000000

                       Lattice parameters(A)       Cell Angles
                    a =      2.482375          alpha =  109.471221
                    b =      2.482375          beta  =  109.471221
                    c =      2.482375          gamma =  109.471221

                       Current cell volume =            11.775528       A**3
                                   density =             4.742462   AMU/A**3
                                           =             7.875044     g/cm^3

                           -------------------------------
                                     Cell Contents
                           -------------------------------
                         Total number of ions in cell =    1
                      Total number of species in cell =    1
                        Max number of any one species =    1

            xxxxxxxxxxxxxxxxxxxxxxxxxxxxxxxxxxxxxxxxxxxxxxxxxxxxxxxxxxxx
            x  Element    Atom        Fractional coordinates of atoms  x
            x            Number           u          v          w      x
            x----------------------------------------------------------x
            x  Fe           1         0.000000   0.000000   0.000000   x 
            xxxxxxxxxxxxxxxxxxxxxxxxxxxxxxxxxxxxxxxxxxxxxxxxxxxxxxxxxxxx


                         No user defined ionic velocities

                           -------------------------------
                                   Details of Species
                           -------------------------------

                               Mass of species in AMU
                                    Fe   55.8450000

                          Electric Quadrupole Moment (Barn)
                                    Fe    0.1600000 Isotope 57

                          Files used for pseudopotentials:
                                    Fe 3|2.4|2.4|1.0|8|9|10|40:41:32U2U2(qc=5.5)

                           -------------------------------
                              k-Points For BZ Sampling
                           -------------------------------
                       MP grid size for SCF calculation is  8  8  8
                            with an offset of   0.000  0.000  0.000
                       Number of kpoints used =            26

                           -------------------------------
                               Symmetry and Constraints
                           -------------------------------

                      Maximum deviation from symmetry = 0.470004E-15     ANG

                      Number of symmetry operations   =          48
                      Number of ionic constraints     =           3
                      Point group of crystal =    32: Oh, m-3m, 4/m -3 2/m
                      Space group of crystal =   229: Im-3m, -I 4 2 3

             Set iprint > 1 for details on symmetry rotations/translations

                         Centre of mass is constrained
             Set iprint > 1 for details of linear ionic constraints

                         Number of cell constraints= 5
                         Cell constraints are:  1 1 1 0 0 0

                         External pressure/stress (GPa)
                          0.00000   0.00000   0.00000
                                    0.00000   0.00000
                                              0.00000
  
+---------------- MEMORY AND SCRATCH DISK ESTIMATES PER PROCESS --------------+
|                                                     Memory          Disk    |
| Baseline code, static data and system overhead      408.0 MB         0.0 MB |
| BLAS internal memory storage                          0.0 MB         0.0 MB |
| Model and support data                               15.3 MB         0.0 MB |
| Electronic energy minimisation requirements           0.5 MB         0.0 MB |
| Force calculation requirements                        0.1 MB         0.0 MB |
|                                               ----------------------------- |
| Approx. total storage required per process          423.8 MB         0.0 MB |
|                                                                             |
| Requirements will fluctuate during execution and may exceed these estimates |
+-----------------------------------------------------------------------------+
Calculating total energy with cut-off of  244.902 eV.
------------------------------------------------------------------------ <-- SCF
SCF loop      Energy           Fermi           Energy gain       Timer   <-- SCF
                               energy          per atom          (sec)   <-- SCF
------------------------------------------------------------------------ <-- SCF
Initial  -6.84363952E+002  0.00000000E+000                        19.84  <-- SCF
      1  -8.46688776E+002  6.90440736E+000   1.62324823E+002      20.21  <-- SCF
      2  -8.56430705E+002  5.31652755E+000   9.74192981E+000      20.47  <-- SCF
      3  -8.56601419E+002  5.28566542E+000   1.70713830E-001      20.72  <-- SCF
      4  -8.56748305E+002  3.84711480E+000   1.46885782E-001      21.00  <-- SCF
      5  -8.56586655E+002  4.72490536E+000  -1.61649629E-001      21.26  <-- SCF
      6  -8.56587448E+002  4.68340534E+000   7.92733310E-004      21.54  <-- SCF
      7  -8.56587631E+002  4.69125326E+000   1.83267027E-004      21.81  <-- SCF
      8  -8.56587703E+002  4.69127951E+000   7.20347171E-005      22.01  <-- SCF
      9  -8.56587711E+002  4.69105602E+000   7.60092250E-006      22.18  <-- SCF
     10  -8.56669135E+002  4.67980141E+000   8.14235714E-002      22.36  <-- SCF
     11  -8.56829121E+002  4.73277125E+000   1.59986661E-001      22.64  <-- SCF
     12  -8.56872447E+002  4.78868764E+000   4.33258040E-002      22.91  <-- SCF
     13  -8.56874809E+002  4.68229253E+000   2.36163435E-003      23.17  <-- SCF
     14  -8.56874783E+002  4.72471464E+000  -2.56692488E-005      23.45  <-- SCF
     15  -8.56875061E+002  4.71406433E+000   2.77572595E-004      23.71  <-- SCF
     16  -8.56875084E+002  4.71466885E+000   2.32560286E-005      23.88  <-- SCF
     17  -8.56875087E+002  4.71633963E+000   3.47892855E-006      24.05  <-- SCF
     18  -8.56875089E+002  4.71659362E+000   1.99462690E-006      24.23  <-- SCF
------------------------------------------------------------------------ <-- SCF
 
Integrated Spin Density     =     2.22307     hbar/2                        
Integrated |Spin Density|   =     2.29048     hbar/2                        
 
Final energy, E             =  -856.8567907851     eV
Final free energy (E-TS)    =  -856.8750893729     eV
(energies not corrected for finite basis set)
 
NB est. 0K energy (E-0.5TS)      =  -856.8659400790     eV
 

Writing analysis data to Fe.castep_bin

Writing model to Fe.check
  
+---------------- MEMORY AND SCRATCH DISK ESTIMATES PER PROCESS --------------+
|                                                     Memory          Disk    |
| Baseline code, static data and system overhead      408.0 MB         0.0 MB |
| BLAS internal memory storage                          0.0 MB         0.0 MB |
| Model and support data                               15.9 MB         0.0 MB |
| Band structure calculation requirements               1.3 MB         0.0 MB |
| Force calculation requirements                        0.1 MB         0.0 MB |
|                                               ----------------------------- |
| Approx. total storage required per process          425.2 MB         0.0 MB |
|                                                                             |
| Requirements will fluctuate during execution and may exceed these estimates |
+-----------------------------------------------------------------------------+
  =====================================================================
  +  Fermi energy for spin  up  electrons is:     4.71659 eV          +
  +  Fermi energy for spin down electrons is:     4.71659 eV          +
  +                                                                   +
  +       B A N D   S T R U C T U R E   C A L C U L A T I O N         +
  +      (General k-point calculation - complex wavefunctions)        +
  +                                                                   +
  + Calculation re-parallelised over 16 processes.                    +
  + Data distributed by G-vector(8-way), k-point(2-way)               +
  +                                                                   +
  + ================================================================= +
  +                                                                   +
  +     Band Structure Calculation: Progress report on root process   +
  +                                                                   +
  +   There are  118 BS k-points. Root process contains   59 of them. +
  +                                                                   +
  +   Spin= 1 of  2, K-point=   1 of   59 completed, Time:     0.09s. +
  +   Spin= 1 of  2, K-point=   2 of   59 completed, Time:     0.08s. +
  +   Spin= 1 of  2, K-point=   3 of   59 completed, Time:     0.09s. +
  +   Spin= 1 of  2, K-point=   4 of   59 completed, Time:     0.09s. +
  +   Spin= 1 of  2, K-point=   5 of   59 completed, Time:     0.09s. +
  +   Spin= 1 of  2, K-point=   6 of   59 completed, Time:     0.08s. +
  +   Spin= 1 of  2, K-point=   7 of   59 completed, Time:     0.10s. +
  +   Spin= 1 of  2, K-point=   8 of   59 completed, Time:     0.09s. +
  +   Spin= 1 of  2, K-point=   9 of   59 completed, Time:     0.10s. +
  +   Spin= 1 of  2, K-point=  10 of   59 completed, Time:     0.10s. +
  +   Spin= 1 of  2, K-point=  11 of   59 completed, Time:     0.09s. +
  +   Spin= 1 of  2, K-point=  12 of   59 completed, Time:     0.09s. +
  +   Spin= 1 of  2, K-point=  13 of   59 completed, Time:     0.09s. +
  +   Spin= 1 of  2, K-point=  14 of   59 completed, Time:     0.08s. +
  +   Spin= 1 of  2, K-point=  15 of   59 completed, Time:     0.09s. +
  +   Spin= 1 of  2, K-point=  16 of   59 completed, Time:     0.09s. +
  +   Spin= 1 of  2, K-point=  17 of   59 completed, Time:     0.08s. +
  +   Spin= 1 of  2, K-point=  18 of   59 completed, Time:     0.09s. +
  +   Spin= 1 of  2, K-point=  19 of   59 completed, Time:     0.09s. +
  +   Spin= 1 of  2, K-point=  20 of   59 completed, Time:     0.06s. +
  +   Spin= 1 of  2, K-point=  21 of   59 completed, Time:     0.10s. +
  +   Spin= 1 of  2, K-point=  22 of   59 completed, Time:     0.10s. +
  +   Spin= 1 of  2, K-point=  23 of   59 completed, Time:     0.10s. +
  +   Spin= 1 of  2, K-point=  24 of   59 completed, Time:     0.10s. +
  +   Spin= 1 of  2, K-point=  25 of   59 completed, Time:     0.10s. +
  +   Spin= 1 of  2, K-point=  26 of   59 completed, Time:     0.09s. +
  +   Spin= 1 of  2, K-point=  27 of   59 completed, Time:     0.09s. +
  +   Spin= 1 of  2, K-point=  28 of   59 completed, Time:     0.09s. +
  +   Spin= 1 of  2, K-point=  29 of   59 completed, Time:     0.10s. +
  +   Spin= 1 of  2, K-point=  30 of   59 completed, Time:     0.09s. +
  +   Spin= 1 of  2, K-point=  31 of   59 completed, Time:     0.10s. +
  +   Spin= 1 of  2, K-point=  32 of   59 completed, Time:     0.09s. +
  +   Spin= 1 of  2, K-point=  33 of   59 completed, Time:     0.11s. +
  +   Spin= 1 of  2, K-point=  34 of   59 completed, Time:     0.10s. +
  +   Spin= 1 of  2, K-point=  35 of   59 completed, Time:     0.10s. +
  +   Spin= 1 of  2, K-point=  36 of   59 completed, Time:     0.09s. +
  +   Spin= 1 of  2, K-point=  37 of   59 completed, Time:     0.09s. +
  +   Spin= 1 of  2, K-point=  38 of   59 completed, Time:     0.09s. +
  +   Spin= 1 of  2, K-point=  39 of   59 completed, Time:     0.09s. +
  +   Spin= 1 of  2, K-point=  40 of   59 completed, Time:     0.09s. +
  +   Spin= 1 of  2, K-point=  41 of   59 completed, Time:     0.09s. +
  +   Spin= 1 of  2, K-point=  42 of   59 completed, Time:     0.08s. +
  +   Spin= 1 of  2, K-point=  43 of   59 completed, Time:     0.09s. +
  +   Spin= 1 of  2, K-point=  44 of   59 completed, Time:     0.09s. +
  +   Spin= 1 of  2, K-point=  45 of   59 completed, Time:     0.10s. +
  +   Spin= 1 of  2, K-point=  46 of   59 completed, Time:     0.10s. +
  +   Spin= 1 of  2, K-point=  47 of   59 completed, Time:     0.10s. +
  +   Spin= 1 of  2, K-point=  48 of   59 completed, Time:     0.11s. +
  +   Spin= 1 of  2, K-point=  49 of   59 completed, Time:     0.09s. +
  +   Spin= 1 of  2, K-point=  50 of   59 completed, Time:     0.11s. +
  +   Spin= 1 of  2, K-point=  51 of   59 completed, Time:     0.09s. +
  +   Spin= 1 of  2, K-point=  52 of   59 completed, Time:     0.11s. +
  +   Spin= 1 of  2, K-point=  53 of   59 completed, Time:     0.09s. +
  +   Spin= 1 of  2, K-point=  54 of   59 completed, Time:     0.09s. +
  +   Spin= 1 of  2, K-point=  55 of   59 completed, Time:     0.10s. +
  +   Spin= 1 of  2, K-point=  56 of   59 completed, Time:     0.10s. +
  +   Spin= 1 of  2, K-point=  57 of   59 completed, Time:     0.09s. +
  +   Spin= 1 of  2, K-point=  58 of   59 completed, Time:     0.09s. +
  +   Spin= 1 of  2, K-point=  59 of   59 completed, Time:     0.10s. +
  +   Spin= 2 of  2, K-point=   1 of   59 completed, Time:     0.08s. +
  +   Spin= 2 of  2, K-point=   2 of   59 completed, Time:     0.09s. +
  +   Spin= 2 of  2, K-point=   3 of   59 completed, Time:     0.09s. +
  +   Spin= 2 of  2, K-point=   4 of   59 completed, Time:     0.08s. +
  +   Spin= 2 of  2, K-point=   5 of   59 completed, Time:     0.08s. +
  +   Spin= 2 of  2, K-point=   6 of   59 completed, Time:     0.09s. +
  +   Spin= 2 of  2, K-point=   7 of   59 completed, Time:     0.08s. +
  +   Spin= 2 of  2, K-point=   8 of   59 completed, Time:     0.10s. +
  +   Spin= 2 of  2, K-point=   9 of   59 completed, Time:     0.09s. +
  +   Spin= 2 of  2, K-point=  10 of   59 completed, Time:     0.09s. +
  +   Spin= 2 of  2, K-point=  11 of   59 completed, Time:     0.10s. +
  +   Spin= 2 of  2, K-point=  12 of   59 completed, Time:     0.09s. +
  +   Spin= 2 of  2, K-point=  13 of   59 completed, Time:     0.08s. +
  +   Spin= 2 of  2, K-point=  14 of   59 completed, Time:     0.09s. +
  +   Spin= 2 of  2, K-point=  15 of   59 completed, Time:     0.09s. +
  +   Spin= 2 of  2, K-point=  16 of   59 completed, Time:     0.09s. +
  +   Spin= 2 of  2, K-point=  17 of   59 completed, Time:     0.09s. +
  +   Spin= 2 of  2, K-point=  18 of   59 completed, Time:     0.09s. +
  +   Spin= 2 of  2, K-point=  19 of   59 completed, Time:     0.09s. +
  +   Spin= 2 of  2, K-point=  20 of   59 completed, Time:     0.07s. +
  +   Spin= 2 of  2, K-point=  21 of   59 completed, Time:     0.10s. +
  +   Spin= 2 of  2, K-point=  22 of   59 completed, Time:     0.09s. +
  +   Spin= 2 of  2, K-point=  23 of   59 completed, Time:     0.09s. +
  +   Spin= 2 of  2, K-point=  24 of   59 completed, Time:     0.10s. +
  +   Spin= 2 of  2, K-point=  25 of   59 completed, Time:     0.09s. +
  +   Spin= 2 of  2, K-point=  26 of   59 completed, Time:     0.10s. +
  +   Spin= 2 of  2, K-point=  27 of   59 completed, Time:     0.09s. +
  +   Spin= 2 of  2, K-point=  28 of   59 completed, Time:     0.09s. +
  +   Spin= 2 of  2, K-point=  29 of   59 completed, Time:     0.09s. +
  +   Spin= 2 of  2, K-point=  30 of   59 completed, Time:     0.09s. +
  +   Spin= 2 of  2, K-point=  31 of   59 completed, Time:     0.09s. +
  +   Spin= 2 of  2, K-point=  32 of   59 completed, Time:     0.11s. +
  +   Spin= 2 of  2, K-point=  33 of   59 completed, Time:     0.10s. +
  +   Spin= 2 of  2, K-point=  34 of   59 completed, Time:     0.09s. +
  +   Spin= 2 of  2, K-point=  35 of   59 completed, Time:     0.10s. +
  +   Spin= 2 of  2, K-point=  36 of   59 completed, Time:     0.10s. +
  +   Spin= 2 of  2, K-point=  37 of   59 completed, Time:     0.10s. +
  +   Spin= 2 of  2, K-point=  38 of   59 completed, Time:     0.09s. +
  +   Spin= 2 of  2, K-point=  39 of   59 completed, Time:     0.09s. +
  +   Spin= 2 of  2, K-point=  40 of   59 completed, Time:     0.09s. +
  +   Spin= 2 of  2, K-point=  41 of   59 completed, Time:     0.09s. +
  +   Spin= 2 of  2, K-point=  42 of   59 completed, Time:     0.08s. +
  +   Spin= 2 of  2, K-point=  43 of   59 completed, Time:     0.09s. +
  +   Spin= 2 of  2, K-point=  44 of   59 completed, Time:     0.09s. +
  +   Spin= 2 of  2, K-point=  45 of   59 completed, Time:     0.09s. +
  +   Spin= 2 of  2, K-point=  46 of   59 completed, Time:     0.09s. +
  +   Spin= 2 of  2, K-point=  47 of   59 completed, Time:     0.09s. +
  +   Spin= 2 of  2, K-point=  48 of   59 completed, Time:     0.09s. +
  +   Spin= 2 of  2, K-point=  49 of   59 completed, Time:     0.10s. +
  +   Spin= 2 of  2, K-point=  50 of   59 completed, Time:     0.09s. +
  +   Spin= 2 of  2, K-point=  51 of   59 completed, Time:     0.09s. +
  +   Spin= 2 of  2, K-point=  52 of   59 completed, Time:     0.09s. +
  +   Spin= 2 of  2, K-point=  53 of   59 completed, Time:     0.09s. +
  +   Spin= 2 of  2, K-point=  54 of   59 completed, Time:     0.09s. +
  +   Spin= 2 of  2, K-point=  55 of   59 completed, Time:     0.09s. +
  +   Spin= 2 of  2, K-point=  56 of   59 completed, Time:     0.09s. +
  +   Spin= 2 of  2, K-point=  57 of   59 completed, Time:     0.10s. +
  +   Spin= 2 of  2, K-point=  58 of   59 completed, Time:     0.10s. +
  +   Spin= 2 of  2, K-point=  59 of   59 completed, Time:     0.10s. +
  +   Finished BS calculation on root process (waiting for others).   +
  +                                                                   +
  + ================================================================= +
  +                       Electronic energies                         +
  +                       -------------------                         +
  +                                                                   +
  +   Band number   Energy in eV                                      +
  + ================================================================= +
  +                                                                   +
  + ----------------------------------------------------------------- +
  +  Spin=1 kpt=    1 (  0.000000  0.000000  0.000000) kpt-group=  1  +
  + ----------------------------------------------------------------- +
  +                                                                   +
  +           1       -3.616151                                       +
  +           2        2.843303                                       +
  +           3        2.843437                                       +
  +           4        2.843437                                       +
  +           5        3.949250                                       +
  +           6        3.949250                                       +
  + ----------------------------------------------------------------- +
  +  Spin=1 kpt=    2 (  0.026316  0.026316  0.026316) kpt-group=  1  +
  + ----------------------------------------------------------------- +
  +                                                                   +
  +           1       -3.449121                                       +
  +           2        2.711599                                       +
  +           3        2.783907                                       +
  +           4        2.783907                                       +
  +           5        3.886782                                       +
  +           6        3.886782                                       +
  + ----------------------------------------------------------------- +
  +  Spin=1 kpt=    3 (  0.052632  0.052632  0.052632) kpt-group=  1  +
  + ----------------------------------------------------------------- +
  +                                                                   +
  +           1       -2.960304                                       +
  +           2        2.491770                                       +
  +           3        2.491770                                       +
  +           4        2.982562                                       +
  +           5        3.830938                                       +
  +           6        3.830938                                       +
  + ----------------------------------------------------------------- +
  +  Spin=1 kpt=    4 (  0.078947  0.078947  0.078947) kpt-group=  1  +
  + ----------------------------------------------------------------- +
  +                                                                   +
  +           1       -2.188238                                       +
  +           2        2.273545                                       +
  +           3        2.273545                                       +
  +           4        3.504906                                       +
  +           5        3.845351                                       +
  +           6        3.845351                                       +
  + ----------------------------------------------------------------- +
  +  Spin=1 kpt=    5 (  0.105263  0.105263  0.105263) kpt-group=  1  +
  + ----------------------------------------------------------------- +
  +                                                                   +
  +           1       -1.209485                                       +
  +           2        1.941251                                       +
  +           3        1.941251                                       +
  +           4        3.816608                                       +
  +           5        3.816608                                       +
  +           6        4.094154                                       +
  + ----------------------------------------------------------------- +
  +  Spin=1 kpt=    6 (  0.131579  0.131579  0.131579) kpt-group=  1  +
  + ----------------------------------------------------------------- +
  +                                                                   +
  +           1       -0.146027                                       +
  +           2        1.711309                                       +
  +           3        1.711309                                       +
  +           4        3.890792                                       +
  +           5        3.890792                                       +
  +           6        4.971273                                       +
  + ----------------------------------------------------------------- +
  +  Spin=1 kpt=    7 (  0.157895  0.157895  0.157895) kpt-group=  1  +
  + ----------------------------------------------------------------- +
  +                                                                   +
  +           1        0.818561                                       +
  +           2        1.612496                                       +
  +           3        1.612496                                       +
  +           4        3.979790                                       +
  +           5        3.979790                                       +
  +           6        6.144721                                       +
  + ----------------------------------------------------------------- +
  +  Spin=1 kpt=    8 (  0.184211  0.184211  0.184211) kpt-group=  1  +
  + ----------------------------------------------------------------- +
  +                                                                   +
  +           1        1.484654                                       +
  +           2        1.522628                                       +
  +           3        1.522628                                       +
  +           4        4.066003                                       +
  +           5        4.066003                                       +
  +           6        7.692231                                       +
  + ----------------------------------------------------------------- +
  +  Spin=1 kpt=    9 (  0.210526  0.210526  0.210526) kpt-group=  1  +
  + ----------------------------------------------------------------- +
  +                                                                   +
  +           1        1.560106                                       +
  +           2        1.560106                                       +
  +           3        1.799637                                       +
  +           4        4.121802                                       +
  +           5        4.121802                                       +
  +           6        9.680742                                       +
  + ----------------------------------------------------------------- +
  +  Spin=1 kpt=   10 (  0.236842  0.236842  0.236842) kpt-group=  1  +
  + ----------------------------------------------------------------- +
  +                                                                   +
  +           1        1.557607                                       +
  +           2        1.557607                                       +
  +           3        1.714244                                       +
  +           4        4.045083                                       +
  +           5        4.045083                                       +
  +           6       11.914879                                       +
  + ----------------------------------------------------------------- +
  +  Spin=1 kpt=   11 (  0.263158  0.263158  0.263158) kpt-group=  1  +
  + ----------------------------------------------------------------- +
  +                                                                   +
  +           1        1.489054                                       +
  +           2        1.672036                                       +
  +           3        1.672036                                       +
  +           4        4.045195                                       +
  +           5        4.045195                                       +
  +           6       12.557552                                       +
  + ----------------------------------------------------------------- +
  +  Spin=1 kpt=   12 (  0.289474  0.289474  0.289474) kpt-group=  1  +
  + ----------------------------------------------------------------- +
  +                                                                   +
  +           1        1.342280                                       +
  +           2        1.793385                                       +
  +           3        1.793385                                       +
  +           4        4.076085                                       +
  +           5        4.076085                                       +
  +           6       11.811839                                       +
  + ----------------------------------------------------------------- +
  +  Spin=1 kpt=   13 (  0.315789  0.315789  0.315789) kpt-group=  1  +
  + ----------------------------------------------------------------- +
  +                                                                   +
  +           1        1.116614                                       +
  +           2        1.859694                                       +
  +           3        1.859694                                       +
  +           4        4.207512                                       +
  +           5        4.207512                                       +
  +           6       11.385500                                       +
  + ----------------------------------------------------------------- +
  +  Spin=1 kpt=   14 (  0.342105  0.342105  0.342105) kpt-group=  1  +
  + ----------------------------------------------------------------- +
  +                                                                   +
  +           1        1.239931                                       +
  +           2        1.745015                                       +
  +           3        1.745015                                       +
  +           4        4.052404                                       +
  +           5        4.052404                                       +
  +           6       11.253309                                       +
  + ----------------------------------------------------------------- +
  +  Spin=1 kpt=   15 (  0.368421  0.368421  0.368421) kpt-group=  1  +
  + ----------------------------------------------------------------- +
  +                                                                   +
  +           1        1.513393                                       +
  +           2        1.513393                                       +
  +           3        1.772464                                       +
  +           4        4.131406                                       +
  +           5        4.131406                                       +
  +           6       11.451223                                       +
  + ----------------------------------------------------------------- +
  +  Spin=1 kpt=   16 (  0.394737  0.394737  0.394737) kpt-group=  1  +
  + ----------------------------------------------------------------- +
  +                                                                   +
  +           1        1.152786                                       +
  +           2        1.152786                                       +
  +           3        2.310099                                       +
  +           4        4.253579                                       +
  +           5        4.253579                                       +
  +           6       11.898146                                       +
  + ----------------------------------------------------------------- +
  +  Spin=1 kpt=   17 (  0.421053  0.421053  0.421053) kpt-group=  1  +
  + ----------------------------------------------------------------- +
  +                                                                   +
  +           1        0.788225                                       +
  +           2        0.788225                                       +
  +           3        3.094111                                       +
  +           4        4.438946                                       +
  +           5        4.438946                                       +
  +           6       12.529760                                       +
  + ----------------------------------------------------------------- +
  +  Spin=1 kpt=   18 (  0.447368  0.447368  0.447368) kpt-group=  1  +
  + ----------------------------------------------------------------- +
  +                                                                   +
  +           1        0.411886                                       +
  +           2        0.411886                                       +
  +           3        3.837597                                       +
  +           4        4.544167                                       +
  +           5        4.544167                                       +
  +           6       13.236923                                       +
  + ----------------------------------------------------------------- +
  +  Spin=1 kpt=   19 (  0.473684  0.473684  0.473684) kpt-group=  1  +
  + ----------------------------------------------------------------- +
  +                                                                   +
  +           1        0.218889                                       +
  +           2        0.218889                                       +
  +           3        4.470927                                       +
  +           4        4.666221                                       +
  +           5        4.666221                                       +
  +           6       13.905889                                       +
  + ----------------------------------------------------------------- +
  +  Spin=1 kpt=   20 (  0.500000  0.500000  0.500000) kpt-group=  1  +
  + ----------------------------------------------------------------- +
  +                                                                   +
  +           1        0.100526                                       +
  +           2        0.100526                                       +
  +           3        4.629058                                       +
  +           4        4.629323                                       +
  +           5        4.629323                                       +
  +           6       14.203257                                       +
  + ----------------------------------------------------------------- +
  +  Spin=1 kpt=   21 (  0.500000  0.462963  0.462963) kpt-group=  1  +
  + ----------------------------------------------------------------- +
  +                                                                   +
  +           1        0.216875                                       +
  +           2        0.221298                                       +
  +           3        4.495913                                       +
  +           4        4.618758                                       +
  +           5        4.695438                                       +
  +           6       13.510555                                       +
  + ----------------------------------------------------------------- +
  +  Spin=1 kpt=   22 (  0.500000  0.425926  0.425926) kpt-group=  1  +
  + ----------------------------------------------------------------- +
  +                                                                   +
  +           1        0.408637                                       +
  +           2        0.447780                                       +
  +           3        3.945667                                       +
  +           4        4.409003                                       +
  +           5        4.650375                                       +
  +           6       12.085102                                       +
  + ----------------------------------------------------------------- +
  +  Spin=1 kpt=   23 (  0.500000  0.388889  0.388889) kpt-group=  1  +
  + ----------------------------------------------------------------- +
  +                                                                   +
  +           1        0.692811                                       +
  +           2        0.738919                                       +
  +           3        3.214425                                       +
  +           4        4.096512                                       +
  +           5        4.573786                                       +
  +           6       10.570530                                       +
  + ----------------------------------------------------------------- +
  +  Spin=1 kpt=   24 (  0.500000  0.351852  0.351852) kpt-group=  1  +
  + ----------------------------------------------------------------- +
  +                                                                   +
  +           1        1.073581                                       +
  +           2        1.076163                                       +
  +           3        2.632048                                       +
  +           4        3.840030                                       +
  +           5        4.523152                                       +
  +           6        9.220054                                       +
  + ----------------------------------------------------------------- +
  +  Spin=1 kpt=   25 (  0.500000  0.314815  0.314815) kpt-group=  1  +
  + ----------------------------------------------------------------- +
  +                                                                   +
  +           1        1.215755                                       +
  +           2        1.377425                                       +
  +           3        2.323907                                       +
  +           4        3.729381                                       +
  +           5        4.428720                                       +
  +           6        8.117375                                       +
  + ----------------------------------------------------------------- +
  +  Spin=1 kpt=   26 (  0.500000  0.277778  0.277778) kpt-group=  1  +
  + ----------------------------------------------------------------- +
  +                                                                   +
  +           1        0.949621                                       +
  +           2        1.534020                                       +
  +           3        2.177584                                       +
  +           4        3.676358                                       +
  +           5        4.230611                                       +
  +           6        7.276636                                       +
  + ----------------------------------------------------------------- +
  +  Spin=1 kpt=   27 (  0.500000  0.240741  0.240741) kpt-group=  1  +
  + ----------------------------------------------------------------- +
  +                                                                   +
  +           1        0.844136                                       +
  +           2        1.585554                                       +
  +           3        2.094432                                       +
  +           4        3.856467                                       +
  +           5        4.122871                                       +
  +           6        6.855569                                       +
  + ----------------------------------------------------------------- +
  +  Spin=1 kpt=   28 (  0.500000  0.203704  0.203704) kpt-group=  1  +
  + ----------------------------------------------------------------- +
  +                                                                   +
  +           1        0.956379                                       +
  +           2        1.592193                                       +
  +           3        1.826101                                       +
  +           4        3.975006                                       +
  +           5        4.080882                                       +
  +           6        6.686757                                       +
  + ----------------------------------------------------------------- +
  +  Spin=1 kpt=   29 (  0.500000  0.166667  0.166667) kpt-group=  1  +
  + ----------------------------------------------------------------- +
  +                                                                   +
  +           1        1.081720                                       +
  +           2        1.572050                                       +
  +           3        1.572468                                       +
  +           4        4.008139                                       +
  +           5        4.008629                                       +
  +           6        6.615061                                       +
  + ----------------------------------------------------------------- +
  +  Spin=1 kpt=   30 (  0.500000  0.129630  0.129630) kpt-group=  1  +
  + ----------------------------------------------------------------- +
  +                                                                   +
  +           1        0.831097                                       +
  +           2        1.630131                                       +
  +           3        1.967487                                       +
  +           4        3.975379                                       +
  +           5        4.089282                                       +
  +           6        6.617275                                       +
  + ----------------------------------------------------------------- +
  +  Spin=1 kpt=   31 (  0.500000  0.092593  0.092593) kpt-group=  1  +
  + ----------------------------------------------------------------- +
  +                                                                   +
  +           1        0.497642                                       +
  +           2        1.547918                                       +
  +           3        2.711271                                       +
  +           4        3.837414                                       +
  +           5        4.044035                                       +
  +           6        6.459957                                       +
  + ----------------------------------------------------------------- +
  +  Spin=1 kpt=   32 (  0.500000  0.055556  0.055556) kpt-group=  1  +
  + ----------------------------------------------------------------- +
  +                                                                   +
  +           1        0.176469                                       +
  +           2        1.481312                                       +
  +           3        3.606324                                       +
  +           4        3.830786                                       +
  +           5        4.035178                                       +
  +           6        6.085193                                       +
  + ----------------------------------------------------------------- +
  +  Spin=1 kpt=   33 (  0.500000  0.018519  0.018519) kpt-group=  1  +
  + ----------------------------------------------------------------- +
  +                                                                   +
  +           1        0.064027                                       +
  +           2        1.518257                                       +
  +           3        3.884176                                       +
  +           4        4.132576                                       +
  +           5        4.597393                                       +
  +           6        5.477813                                       +
  + ----------------------------------------------------------------- +
  +  Spin=1 kpt=   34 (  0.468750  0.000000  0.000000) kpt-group=  1  +
  + ----------------------------------------------------------------- +
  +                                                                   +
  +           1        0.054920                                       +
  +           2        1.600586                                       +
  +           3        3.876609                                       +
  +           4        4.043207                                       +
  +           5        4.933463                                       +
  +           6        4.975559                                       +
  + ----------------------------------------------------------------- +
  +  Spin=1 kpt=   35 (  0.406250  0.000000  0.000000) kpt-group=  1  +
  + ----------------------------------------------------------------- +
  +                                                                   +
  +           1        0.037364                                       +
  +           2        1.670897                                       +
  +           3        3.720219                                       +
  +           4        4.000352                                       +
  +           5        4.142014                                       +
  +           6        4.708866                                       +
  + ----------------------------------------------------------------- +
  +  Spin=1 kpt=   36 (  0.343750  0.000000  0.000000) kpt-group=  1  +
  + ----------------------------------------------------------------- +
  +                                                                   +
  +           1       -0.281323                                       +
  +           2        1.807687                                       +
  +           3        2.936133                                       +
  +           4        3.862165                                       +
  +           5        3.984138                                       +
  +           6        4.323286                                       +
  + ----------------------------------------------------------------- +
  +  Spin=1 kpt=   37 (  0.281250  0.000000  0.000000) kpt-group=  1  +
  + ----------------------------------------------------------------- +
  +                                                                   +
  +           1       -0.951048                                       +
  +           2        1.993396                                       +
  +           3        2.475270                                       +
  +           4        3.751007                                       +
  +           5        3.860314                                       +
  +           6        3.914854                                       +
  + ----------------------------------------------------------------- +
  +  Spin=1 kpt=   38 (  0.218750  0.000000  0.000000) kpt-group=  1  +
  + ----------------------------------------------------------------- +
  +                                                                   +
  +           1       -1.844049                                       +
  +           2        2.203149                                       +
  +           3        2.442855                                       +
  +           4        3.404525                                       +
  +           5        3.686954                                       +
  +           6        3.861242                                       +
  + ----------------------------------------------------------------- +
  +  Spin=1 kpt=   39 (  0.156250  0.000000  0.000000) kpt-group=  1  +
  + ----------------------------------------------------------------- +
  +                                                                   +
  +           1       -2.666299                                       +
  +           2        2.543219                                       +
  +           3        2.543870                                       +
  +           4        2.971176                                       +
  +           5        3.702149                                       +
  +           6        3.875420                                       +
  + ----------------------------------------------------------------- +
  +  Spin=1 kpt=   40 (  0.093750  0.000000  0.000000) kpt-group=  1  +
  + ----------------------------------------------------------------- +
  +                                                                   +
  +           1       -3.265233                                       +
  +           2        2.628132                                       +
  +           3        2.716043                                       +
  +           4        2.843817                                       +
  +           5        3.850991                                       +
  +           6        3.870772                                       +
  + ----------------------------------------------------------------- +
  +  Spin=1 kpt=   41 (  0.031250  0.000000  0.000000) kpt-group=  1  +
  + ----------------------------------------------------------------- +
  +                                                                   +
  +           1       -3.576715                                       +
  +           2        2.833889                                       +
  +           3        2.844930                                       +
  +           4        2.866545                                       +
  +           5        3.939584                                       +
  +           6        3.951881                                       +
  + ----------------------------------------------------------------- +
  +  Spin=1 kpt=   42 (  0.030000  0.010000 -0.010000) kpt-group=  1  +
  + ----------------------------------------------------------------- +
  +                                                                   +
  +           1       -3.575769                                       +
  +           2        2.836647                                       +
  +           3        2.845016                                       +
  +           4        2.864122                                       +
  +           5        3.936447                                       +
  +           6        3.954777                                       +
  + ----------------------------------------------------------------- +
  +  Spin=1 kpt=   43 (  0.090000  0.030000 -0.030000) kpt-group=  1  +
  + ----------------------------------------------------------------- +
  +                                                                   +
  +           1       -3.256785                                       +
  +           2        2.651797                                       +
  +           3        2.736436                                       +
  +           4        2.915096                                       +
  +           5        3.807169                                       +
  +           6        3.942317                                       +
  + ----------------------------------------------------------------- +
  +  Spin=1 kpt=   44 (  0.150000  0.050000 -0.050000) kpt-group=  1  +
  + ----------------------------------------------------------------- +
  +                                                                   +
  +           1       -2.642994                                       +
  +           2        2.483308                                       +
  +           3        2.489691                                       +
  +           4        2.929366                                       +
  +           5        3.561557                                       +
  +           6        3.904808                                       +
  + ----------------------------------------------------------------- +
  +  Spin=1 kpt=   45 (  0.210000  0.070000 -0.070000) kpt-group=  1  +
  + ----------------------------------------------------------------- +
  +                                                                   +
  +           1       -1.795932                                       +
  +           2        2.261846                                       +
  +           3        2.408244                                       +
  +           4        3.341514                                       +
  +           5        3.419648                                       +
  +           6        4.008627                                       +
  + ----------------------------------------------------------------- +
  +  Spin=1 kpt=   46 (  0.270000  0.090000 -0.090000) kpt-group=  1  +
  + ----------------------------------------------------------------- +
  +                                                                   +
  +           1       -0.854335                                       +
  +           2        2.132456                                       +
  +           3        2.300784                                       +
  +           4        3.411580                                       +
  +           5        3.758351                                       +
  +           6        4.126833                                       +
  + ----------------------------------------------------------------- +
  +  Spin=1 kpt=   47 (  0.330000  0.110000 -0.110000) kpt-group=  1  +
  + ----------------------------------------------------------------- +
  +                                                                   +
  +           1       -0.073998                                       +
  +           2        2.045399                                       +
  +           3        2.272982                                       +
  +           4        3.494386                                       +
  +           5        4.197727                                       +
  +           6        4.557156                                       +
  + ----------------------------------------------------------------- +
  +  Spin=1 kpt=   48 (  0.390000  0.130000 -0.130000) kpt-group=  1  +
  + ----------------------------------------------------------------- +
  +                                                                   +
  +           1        0.377845                                       +
  +           2        2.105847                                       +
  +           3        2.340363                                       +
  +           4        3.557467                                       +
  +           5        4.602469                                       +
  +           6        5.660891                                       +
  + ----------------------------------------------------------------- +
  +  Spin=1 kpt=   49 (  0.450000  0.150000 -0.150000) kpt-group=  1  +
  + ----------------------------------------------------------------- +
  +                                                                   +
  +           1        0.482939                                       +
  +           2        2.133585                                       +
  +           3        2.336331                                       +
  +           4        3.524861                                       +
  +           5        4.842924                                       +
  +           6        7.027452                                       +
  + ----------------------------------------------------------------- +
  +  Spin=1 kpt=   50 (  0.510000  0.170000 -0.170000) kpt-group=  1  +
  + ----------------------------------------------------------------- +
  +                                                                   +
  +           1        0.564453                                       +
  +           2        2.157171                                       +
  +           3        2.248656                                       +
  +           4        3.465607                                       +
  +           5        4.903853                                       +
  +           6        7.925649                                       +
  + ----------------------------------------------------------------- +
  +  Spin=1 kpt=   51 (  0.570000  0.190000 -0.190000) kpt-group=  1  +
  + ----------------------------------------------------------------- +
  +                                                                   +
  +           1        0.641701                                       +
  +           2        1.852207                                       +
  +           3        2.434588                                       +
  +           4        3.433243                                       +
  +           5        4.745715                                       +
  +           6        7.316157                                       +
  + ----------------------------------------------------------------- +
  +  Spin=1 kpt=   52 (  0.630000  0.210000 -0.210000) kpt-group=  1  +
  + ----------------------------------------------------------------- +
  +                                                                   +
  +           1        0.755433                                       +
  +           2        1.612250                                       +
  +           3        2.655307                                       +
  +           4        3.316969                                       +
  +           5        4.411868                                       +
  +           6        6.345984                                       +
  + ----------------------------------------------------------------- +
  +  Spin=1 kpt=   53 (  0.690000  0.230000 -0.230000) kpt-group=  1  +
  + ----------------------------------------------------------------- +
  +                                                                   +
  +           1        0.558640                                       +
  +           2        1.682766                                       +
  +           3        2.884613                                       +
  +           4        3.130048                                       +
  +           5        3.980301                                       +
  +           6        5.596852                                       +
  + ----------------------------------------------------------------- +
  +  Spin=1 kpt=   54 (  0.750000  0.250000 -0.250000) kpt-group=  1  +
  + ----------------------------------------------------------------- +
  +                                                                   +
  +           1        0.167207                                       +
  +           2        1.901965                                       +
  +           3        2.904158                                       +
  +           4        2.904249                                       +
  +           5        3.537923                                       +
  +           6        4.931999                                       +
  + ----------------------------------------------------------------- +
  +  Spin=1 kpt=   55 (  0.704545  0.204545 -0.204545) kpt-group=  1  +
  + ----------------------------------------------------------------- +
  +                                                                   +
  +           1        0.250820                                       +
  +           2        1.876825                                       +
  +           3        2.708759                                       +
  +           4        3.052063                                       +
  +           5        3.876988                                       +
  +           6        5.063087                                       +
  + ----------------------------------------------------------------- +
  +  Spin=1 kpt=   56 (  0.659091  0.159091 -0.159091) kpt-group=  1  +
  + ----------------------------------------------------------------- +
  +                                                                   +
  +           1        0.318297                                       +
  +           2        1.969901                                       +
  +           3        2.335027                                       +
  +           4        3.319361                                       +
  +           5        4.238169                                       +
  +           6        5.170608                                       +
  + ----------------------------------------------------------------- +
  +  Spin=1 kpt=   57 (  0.613636  0.113636 -0.113636) kpt-group=  1  +
  + ----------------------------------------------------------------- +
  +                                                                   +
  +           1        0.259708                                       +
  +           2        1.943102                                       +
  +           3        2.461278                                       +
  +           4        3.574197                                       +
  +           5        4.576037                                       +
  +           6        5.319146                                       +
  + ----------------------------------------------------------------- +
  +  Spin=1 kpt=   58 (  0.568182  0.068182 -0.068182) kpt-group=  1  +
  + ----------------------------------------------------------------- +
  +                                                                   +
  +           1        0.125228                                       +
  +           2        1.640718                                       +
  +           3        3.270804                                       +
  +           4        3.744115                                       +
  +           5        4.830852                                       +
  +           6        5.382695                                       +
  + ----------------------------------------------------------------- +
  +  Spin=1 kpt=   59 (  0.522727  0.022727 -0.022727) kpt-group=  1  +
  + ----------------------------------------------------------------- +
  +                                                                   +
  +           1        0.042955                                       +
  +           2        1.512799                                       +
  +           3        3.779330                                       +
  +           4        4.005826                                       +
  +           5        4.963966                                       +
  +           6        5.195950                                       +
  + ----------------------------------------------------------------- +
  +  Spin=2 kpt=    1 (  0.000000  0.000000  0.000000) kpt-group=  1  +
  + ----------------------------------------------------------------- +
  +                                                                   +
  +           1       -3.230325                                       +
  +           2        4.685710                                       +
  +           3        4.685710                                       +
  +           4        4.689144                                       +
  +           5        6.192850                                       +
  +           6        6.192850                                       +
  + ----------------------------------------------------------------- +
  +  Spin=2 kpt=    2 (  0.026316  0.026316  0.026316) kpt-group=  1  +
  + ----------------------------------------------------------------- +
  +                                                                   +
  +           1       -3.062558                                       +
  +           2        4.585451                                       +
  +           3        4.620407                                       +
  +           4        4.620407                                       +
  +           5        6.128495                                       +
  +           6        6.128495                                       +
  + ----------------------------------------------------------------- +
  +  Spin=2 kpt=    3 (  0.052632  0.052632  0.052632) kpt-group=  1  +
  + ----------------------------------------------------------------- +
  +                                                                   +
  +           1       -2.569907                                       +
  +           2        4.322096                                       +
  +           3        4.322096                                       +
  +           4        4.882589                                       +
  +           5        6.061407                                       +
  +           6        6.061407                                       +
  + ----------------------------------------------------------------- +
  +  Spin=2 kpt=    4 (  0.078947  0.078947  0.078947) kpt-group=  1  +
  + ----------------------------------------------------------------- +
  +                                                                   +
  +           1       -1.784949                                       +
  +           2        4.067952                                       +
  +           3        4.067952                                       +
  +           4        5.433986                                       +
  +           5        6.066899                                       +
  +           6        6.066899                                       +
  + ----------------------------------------------------------------- +
  +  Spin=2 kpt=    5 (  0.105263  0.105263  0.105263) kpt-group=  1  +
  + ----------------------------------------------------------------- +
  +                                                                   +
  +           1       -0.768583                                       +
  +           2        3.688994                                       +
  +           3        3.688994                                       +
  +           4        6.048848                                       +
  +           5        6.048848                                       +
  +           6        6.049144                                       +
  + ----------------------------------------------------------------- +
  +  Spin=2 kpt=    6 (  0.131579  0.131579  0.131579) kpt-group=  1  +
  + ----------------------------------------------------------------- +
  +                                                                   +
  +           1        0.385467                                       +
  +           2        3.399340                                       +
  +           3        3.399340                                       +
  +           4        6.134885                                       +
  +           5        6.134885                                       +
  +           6        6.898850                                       +
  + ----------------------------------------------------------------- +
  +  Spin=2 kpt=    7 (  0.157895  0.157895  0.157895) kpt-group=  1  +
  + ----------------------------------------------------------------- +
  +                                                                   +
  +           1        1.529414                                       +
  +           2        3.231024                                       +
  +           3        3.231024                                       +
  +           4        6.240661                                       +
  +           5        6.240661                                       +
  +           6        7.948293                                       +
  + ----------------------------------------------------------------- +
  +  Spin=2 kpt=    8 (  0.184211  0.184211  0.184211) kpt-group=  1  +
  + ----------------------------------------------------------------- +
  +                                                                   +
  +           1        2.457851                                       +
  +           2        3.080314                                       +
  +           3        3.080314                                       +
  +           4        6.345152                                       +
  +           5        6.345152                                       +
  +           6        9.265461                                       +
  + ----------------------------------------------------------------- +
  +  Spin=2 kpt=    9 (  0.210526  0.210526  0.210526) kpt-group=  1  +
  + ----------------------------------------------------------------- +
  +                                                                   +
  +           1        3.017952                                       +
  +           2        3.055571                                       +
  +           3        3.055571                                       +
  +           4        6.418095                                       +
  +           5        6.418095                                       +
  +           6       10.996677                                       +
  + ----------------------------------------------------------------- +
  +  Spin=2 kpt=   10 (  0.236842  0.236842  0.236842) kpt-group=  1  +
  + ----------------------------------------------------------------- +
  +                                                                   +
  +           1        3.015714                                       +
  +           2        3.015714                                       +
  +           3        3.107035                                       +
  +           4        6.359042                                       +
  +           5        6.359042                                       +
  +           6       13.022001                                       +
  + ----------------------------------------------------------------- +
  +  Spin=2 kpt=   11 (  0.263158  0.263158  0.263158) kpt-group=  1  +
  + ----------------------------------------------------------------- +
  +                                                                   +
  +           1        2.959129                                       +
  +           2        3.094267                                       +
[...]
  +  Spin=2 kpt=   37 (  0.250000  0.000000  0.000000) kpt-group=  2  +
  + ----------------------------------------------------------------- +
  +                                                                   +
  +           1       -0.933359                                       +
  +           2        3.861607                                       +
  +           3        4.108964                                       +
  +           4        5.614154                                       +
  +           5        5.877352                                       +
  +           6        6.154488                                       +
  + ----------------------------------------------------------------- +
  +  Spin=2 kpt=   38 (  0.187500  0.000000  0.000000) kpt-group=  2  +
  + ----------------------------------------------------------------- +
  +                                                                   +
  +           1       -1.871936                                       +
  +           2        4.105108                                       +
  +           3        4.285168                                       +
  +           4        5.138127                                       +
  +           5        5.866265                                       +
  +           6        6.103153                                       +
  + ----------------------------------------------------------------- +
  +  Spin=2 kpt=   39 (  0.125000  0.000000  0.000000) kpt-group=  2  +
  + ----------------------------------------------------------------- +
  +                                                                   +
  +           1       -2.608764                                       +
  +           2        4.425392                                       +
  +           3        4.442082                                       +
  +           4        4.717983                                       +
  +           5        5.946989                                       +
  +           6        6.119714                                       +
  + ----------------------------------------------------------------- +
  +  Spin=2 kpt=   40 (  0.062500  0.000000  0.000000) kpt-group=  2  +
  + ----------------------------------------------------------------- +
  +                                                                   +
  +           1       -3.072511                                       +
  +           2        4.639803                                       +
  +           3        4.685623                                       +
  +           4        4.786948                                       +
  +           5        6.146017                                       +
  +           6        6.203412                                       +
  + ----------------------------------------------------------------- +
  +  Spin=2 kpt=   41 (  0.000000  0.000000  0.000000) kpt-group=  2  +
  + ----------------------------------------------------------------- +
  +                                                                   +
  +           1       -3.230325                                       +
  +           2        4.685710                                       +
  +           3        4.685710                                       +
  +           4        4.689144                                       +
  +           5        6.192850                                       +
  +           6        6.192850                                       +
  + ----------------------------------------------------------------- +
  +  Spin=2 kpt=   42 (  0.060000  0.020000 -0.020000) kpt-group=  2  +
  + ----------------------------------------------------------------- +
  +                                                                   +
  +           1       -3.068729                                       +
  +           2        4.612462                                       +
  +           3        4.648397                                       +
  +           4        4.753590                                       +
  +           5        6.123073                                       +
  +           6        6.197611                                       +
  + ----------------------------------------------------------------- +
  +  Spin=2 kpt=   43 (  0.120000  0.040000 -0.040000) kpt-group=  2  +
  + ----------------------------------------------------------------- +
  +                                                                   +
  +           1       -2.593758                                       +
  +           2        4.400162                                       +
  +           3        4.426510                                       +
  +           4        4.772085                                       +
  +           5        5.883257                                       +
  +           6        6.177143                                       +
  + ----------------------------------------------------------------- +
  +  Spin=2 kpt=   44 (  0.180000  0.060000 -0.060000) kpt-group=  2  +
  + ----------------------------------------------------------------- +
  +                                                                   +
  +           1       -1.838284                                       +
  +           2        4.144031                                       +
  +           3        4.277630                                       +
  +           4        5.086870                                       +
  +           5        5.624108                                       +
  +           6        6.223499                                       +
  + ----------------------------------------------------------------- +
  +  Spin=2 kpt=   45 (  0.240000  0.080000 -0.080000) kpt-group=  2  +
  + ----------------------------------------------------------------- +
  +                                                                   +
  +           1       -0.870263                                       +
  +           2        3.976821                                       +
  +           3        4.097675                                       +
  +           4        5.499541                                       +
  +           5        5.516568                                       +
  +           6        6.350962                                       +
  + ----------------------------------------------------------------- +
  +  Spin=2 kpt=   46 (  0.300000  0.100000 -0.100000) kpt-group=  2  +
  + ----------------------------------------------------------------- +
  +                                                                   +
  +           1        0.176617                                       +
  +           2        3.842085                                       +
  +           3        3.909273                                       +
  +           4        5.502687                                       +
  +           5        6.006785                                       +
  +           6        6.475226                                       +
  + ----------------------------------------------------------------- +
  +  Spin=2 kpt=   47 (  0.360000  0.120000 -0.120000) kpt-group=  2  +
  + ----------------------------------------------------------------- +
  +                                                                   +
  +           1        1.094276                                       +
  +           2        3.768433                                       +
  +           3        3.798040                                       +
  +           4        5.568735                                       +
  +           5        6.487915                                       +
  +           6        6.921517                                       +
  + ----------------------------------------------------------------- +
  +  Spin=2 kpt=   48 (  0.420000  0.140000 -0.140000) kpt-group=  2  +
  + ----------------------------------------------------------------- +
  +                                                                   +
  +           1        1.626323                                       +
  +           2        3.767585                                       +
  +           3        3.837358                                       +
  +           4        5.574836                                       +
  +           5        6.868811                                       +
  +           6        7.772682                                       +
  + ----------------------------------------------------------------- +
  +  Spin=2 kpt=   49 (  0.480000  0.160000 -0.160000) kpt-group=  2  +
  + ----------------------------------------------------------------- +
  +                                                                   +
  +           1        1.887206                                       +
  +           2        3.713542                                       +
  +           3        3.917928                                       +
  +           4        5.508186                                       +
  +           5        7.059654                                       +
  +           6        8.831030                                       +
  + ----------------------------------------------------------------- +
  +  Spin=2 kpt=   50 (  0.540000  0.180000 -0.180000) kpt-group=  2  +
  + ----------------------------------------------------------------- +
  +                                                                   +
  +           1        1.984807                                       +
  +           2        3.487239                                       +
  +           3        4.085166                                       +
  +           4        5.437275                                       +
  +           5        7.002501                                       +
  +           6        8.980623                                       +
  + ----------------------------------------------------------------- +
  +  Spin=2 kpt=   51 (  0.600000  0.200000 -0.200000) kpt-group=  2  +
  + ----------------------------------------------------------------- +
  +                                                                   +
  +           1        1.920140                                       +
  +           2        3.252818                                       +
  +           3        4.302839                                       +
  +           4        5.318117                                       +
  +           5        6.696802                                       +
  +           6        8.241163                                       +
  + ----------------------------------------------------------------- +
  +  Spin=2 kpt=   52 (  0.660000  0.220000 -0.220000) kpt-group=  2  +
  + ----------------------------------------------------------------- +
  +                                                                   +
  +           1        1.606839                                       +
  +           2        3.340427                                       +
  +           3        4.577789                                       +
  +           4        5.129693                                       +
  +           5        6.246847                                       +
  +           6        7.640531                                       +
  + ----------------------------------------------------------------- +
  +  Spin=2 kpt=   53 (  0.720000  0.240000 -0.240000) kpt-group=  2  +
  + ----------------------------------------------------------------- +
  +                                                                   +
  +           1        1.115912                                       +
  +           2        3.642846                                       +
  +           3        4.773718                                       +
  +           4        4.841550                                       +
  +           5        5.799393                                       +
  +           6        7.225941                                       +
  + ----------------------------------------------------------------- +
  +  Spin=2 kpt=   54 (  0.727273  0.227273 -0.227273) kpt-group=  2  +
  + ----------------------------------------------------------------- +
  +                                                                   +
  +           1        0.883965                                       +
  +           2        3.761536                                       +
  +           3        4.676380                                       +
  +           4        4.790522                                       +
  +           5        5.733714                                       +
  +           6        6.971834                                       +
  + ----------------------------------------------------------------- +
  +  Spin=2 kpt=   55 (  0.681818  0.181818 -0.181818) kpt-group=  2  +
  + ----------------------------------------------------------------- +
  +                                                                   +
  +           1        1.045363                                       +
  +           2        3.629811                                       +
  +           3        4.307923                                       +
  +           4        5.107032                                       +
  +           5        6.088811                                       +
  +           6        7.044385                                       +
  + ----------------------------------------------------------------- +
  +  Spin=2 kpt=   56 (  0.636364  0.136364 -0.136364) kpt-group=  2  +
  + ----------------------------------------------------------------- +
  +                                                                   +
  +           1        1.241818                                       +
  +           2        3.715038                                       +
  +           3        3.920876                                       +
  +           4        5.519960                                       +
  +           5        6.503739                                       +
  +           6        7.091156                                       +
  + ----------------------------------------------------------------- +
  +  Spin=2 kpt=   57 (  0.590909  0.090909 -0.090909) kpt-group=  2  +
  + ----------------------------------------------------------------- +
  +                                                                   +
  +           1        1.326051                                       +
  +           2        3.526475                                       +
  +           3        4.179240                                       +
  +           4        5.774623                                       +
  +           5        6.841135                                       +
  +           6        7.027966                                       +
  + ----------------------------------------------------------------- +
  +  Spin=2 kpt=   58 (  0.545455  0.045455 -0.045455) kpt-group=  2  +
  + ----------------------------------------------------------------- +
  +                                                                   +
  +           1        1.303756                                       +
  +           2        3.262841                                       +
  +           3        4.945143                                       +
  +           4        5.932138                                       +
  +           5        6.772880                                       +
  +           6        7.070275                                       +
  + ----------------------------------------------------------------- +
  +  Spin=2 kpt=   59 (  0.500000  0.000000  0.000000) kpt-group=  2  +
  + ----------------------------------------------------------------- +
  +                                                                   +
  +           1        1.335263                                       +
  +           2        3.296289                                       +
  +           3        5.494785                                       +
  +           4        6.075953                                       +
  +           5        6.513745                                       +
  +           6        7.166199                                       +
  =====================================================================

Writing model to Fe.orbitals
  + Calculation re-parallelised over 16 processes.                    +
  + Data distributed by G-vector(8-way), k-point(2-way)               +

 ******************** Symmetrised Forces ********************
 *                                                          *
 *               Cartesian components (eV/A)                *
 * -------------------------------------------------------- *
 *                         x            y            z      *
 *                                                          *
 * Fe              1      0.00000      0.00000      0.00000 *
 *                                                          *
 ************************************************************

 Pseudo atomic calculation performed for Fe 3d6 4s2

 Converged in 29 iterations to a total energy of -847.0421 eV

Charge spilling parameter for spin component 1 = 0.11%
Charge spilling parameter for spin component 2 = 0.38%

                   Orbital Populations                  
  ---------------------------------------------------------------
     Ion    Atom   Orbital              Up        Down      Spin
  ---------------------------------------------------------------
     Fe     1      Dzz                  0.957     0.374     0.583
     Fe     1      Dzy                  0.875     0.509     0.366
     Fe     1      Dzx                  0.879     0.490     0.389
     Fe     1      Dxx-yy               0.916     0.297     0.619
     Fe     1      Dxy                  0.887     0.498     0.390
     Fe     1      S                    0.322     0.343    -0.020
     Fe     1      Px                   0.123     0.162    -0.039
     Fe     1      Py                   0.085     0.123    -0.038
     Fe     1      Pz                   0.067     0.093    -0.026
  ---------------------------------------------------------------
                           Total:       5.111     2.889     2.222
  ---------------------------------------------------------------

     Atomic Populations (Mulliken)
     -----------------------------
Species          Ion Spin      s      p      d      f     Total  Charge(e)   Spin(hbar/2)
=========================================================================================
  Fe              1   up:     0.32   0.28   4.51   0.00   5.11     0.00        2.22
                  1   dn:     0.34   0.38   2.17   0.00   2.89
=========================================================================================

                 Bond                   Population        Spin       Length (A)
================================================================================
================================================================================


Writing analysis data to Fe.castep_bin

Writing model to Fe.check
 
 A BibTeX formatted list of references used in this run has been written to 
 Fe.bib
 
Initialisation time =     16.81 s
Calculation time    =     19.28 s
Finalisation time   =      0.07 s
Total time          =     36.16 s
Peak Memory Use     = 697656 kB
  
Overall parallel efficiency rating: Terrible (29%)                              
  
Data was distributed by:-
G-vector (8-way); efficiency rating: Terrible (32%)                             
k-point (2-way); efficiency rating: Satisfactory (66%)                          
  
Parallel notes:
1) Calculation only took 36.1 s, so efficiency estimates may be inaccurate.     
