 +-------------------------------------------------+
 |                                                 |
 |      CCC   AA    SSS  TTTTT  EEEEE  PPPP        |
 |     C     A  A  S       T    E      P   P       |
 |     C     AAAA   SS     T    EEE    PPPP        |
 |     C     A  A     S    T    E      P           |
 |      CCC  A  A  SSS     T    EEEEE  P           |
 |                                                 |
 +-------------------------------------------------+
 |                                                 |
 | Welcome to Academic Release CASTEP version 18.1 |          
 | Ab Initio Total Energy Program                  |
 |                                                 |
 | Authors:                                        |
 | M. Segall, M. Probert, C. Pickard, P. Hasnip,   |
 | S. Clark, K. Refson, J. R. Yates, M. Payne      |
 |                                                 |
 | Contributors:                                   |
 | P. Lindan, P. Haynes, J. White, V. Milman,      |
 | N. Govind, M. Gibson, P. Tulip, V. Cocula,      |
 | B. Montanari, D. Quigley, M. Glover,            |
 | L. Bernasconi, A. Perlov, M. Plummer,           |
 | E. McNellis, J. Meyer, J. Gale, D. Jochym       |
 | J. Aarons, B. Walker, R. Gillen, D. Jones       |
 | T. Green, I. J. Bush, C. J. Armstrong,          |
 | E. J. Higgins, E. L. Brown, M. S. McFly,        |
 | J. Wilkins, B-C. Shih, P. J. P. Byrne           |
 |                                                 |
 | Copyright (c) 2000 - 2017                       |
 |                                                 |
 |     Distributed under the terms of an           |
 |     Agreement between the United Kingdom        |
 |     Car-Parrinello (UKCP) Consortium,           |
 |     Daresbury Laboratory and Accelrys, Inc.     |
 |                                                 |
 | Please cite                                     |
 |                                                 |
 |     "First principles methods using CASTEP"     |
 |                                                 |
 |         Zeitschrift fuer Kristallographie       |
 |           220(5-6) pp. 567-570 (2005)           |
 |                                                 |
 | S. J. Clark, M. D. Segall, C. J. Pickard,       |
 | P. J. Hasnip, M. J. Probert, K. Refson,         |
 | M. C. Payne                                     |
 |                                                 |
 |       in all publications arising from          |
 |              your use of CASTEP                 |
 |                                                 |
 +-------------------------------------------------+


 Compiled for linux_x86_64_gfortran4.8 on Thu, 19 Jul 2018 15:42:32 +0100
 from code version 70483bd0ad64+  Sun, 10 Dec 2017 12:18:29 +0000
 Compiler: GNU Fortran 4.8.5; Optimisation: fast
 MATHLIBS: Intel MKL(2018.0.0) (LAPACK version 3.7.0)
 FFT Lib : mkl
 Fundamental constants values: CODATA 2014

 Run started: Tue, 28 Jul 2020 11:32:15 +0100

 Atomic calculation performed for H: 1s1

 Converged in 41 iterations to an ae energy of -12.488 eV

   ============================================================                
   | Pseudopotential Report - Date of generation 28-07-2020   |                
   ------------------------------------------------------------                
   | Element: H Ionic charge:  1.00 Level of theory: PBE      |                
   | Atomic Solver: Koelling-Harmon                           |                
   |                                                          |                
   |               Reference Electronic Structure             |                
   |         Orbital         Occupation         Energy        |                
   |            1s              1.000           -0.239        |                
   |                                                          |                
   |                 Pseudopotential Definition               |                
   |        Beta     l      e      Rc     scheme   norm       |                
   |         loc     0   -0.239   0.702     qc      1         |                
   |                                                          |                
   | No charge augmentation                                   |                
   | No partial core correction                               |                
   ------------------------------------------------------------                
   | "0|0.7|2|6|8|10L(qc=10)"                                 |                
   ------------------------------------------------------------                
   |      Author: Chris J. Pickard, Cambridge University      |                
   ============================================================                

 Pseudo atomic calculation performed for H 1s1

 Converged in 20 iterations to a total energy of -12.4843 eV

 Calculation parallelised over 15 processes.
 Data is distributed by G-vector(5-way) and k-point(3-way)

 ************************************ Title ************************************
 

 ***************************** General Parameters ******************************
  
 output verbosity                               : normal  (1)
 write checkpoint data to                       : Pbcn.check
 type of calculation                            : geometry optimization
 stress calculation                             : off
 density difference calculation                 : off
 electron localisation func (ELF) calculation   : off
 Hirshfeld analysis                             : off
 unlimited duration calculation
 timing information                             : on
 memory usage estimate                          : on
 write extra output files                       : on
 write final potential to formatted file        : off
 write final density to formatted file          : off
 write structure in CELL formatted file         : on
 write BibTeX reference list                    : on
 write OTFG pseudopotential files               : on
 write electrostatic potential file             : on
 write bands file                               : on
 checkpoint writing                             : both castep_bin and check files
  
 output         length unit                     : A
 output           mass unit                     : amu
 output           time unit                     : ps
 output         charge unit                     : e
 output           spin unit                     : hbar/2
 output         energy unit                     : eV
 output          force unit                     : eV/A
 output       velocity unit                     : A/ps
 output       pressure unit                     : GPa
 output     inv_length unit                     : 1/A
 output      frequency unit                     : cm-1
 output force constant unit                     : eV/A**2
 output         volume unit                     : A**3
 output   IR intensity unit                     : (D/A)**2/amu
 output         dipole unit                     : D
 output         efield unit                     : eV/A/e
 output        entropy unit                     : J/mol/K
  
 wavefunctions paging                           : none
 random number generator seed                   : randomised (113215519)
 data distribution                              : optimal for this architecture
 optimization strategy                          : maximize speed(+++)

 *********************** Exchange-Correlation Parameters ***********************
  
 using functional                               : Perdew Burke Ernzerhof
 relativistic treatment                         : Koelling-Harmon
 DFT+D: Semi-empirical dispersion correction    : off

 ************************* Pseudopotential Parameters **************************
  
 pseudopotential representation                 : reciprocal space
 <beta|phi> representation                      : reciprocal space
 spin-orbit coupling                            : off

 **************************** Basis Set Parameters *****************************
  
 plane wave basis set cut-off                   :  1200.0000   eV
 size of standard grid                          :     2.0000
 size of   fine   gmax                          :    35.4943   1/A
 finite basis set correction                    : automatic
 number of sample energies                      :          3
           sample  spacing                      :     5.0000   eV

 **************************** Electronic Parameters ****************************
  
 number of  electrons                           :  48.00    
 net charge of system                           :  0.000    
 treating system as non-spin-polarized
 number of bands                                :         24

 ********************* Electronic Minimization Parameters **********************
  
 Method: Treating system as non-metallic,
         and number of  SD  steps               :          1
         and number of  CG  steps               :          4
  
 total energy / atom convergence tol.           : 0.1000E-08   eV
 max force / atom convergence tol.              : ignored
 convergence tolerance window                   :          3   cycles
 max. number of SCF cycles                      :        100
 periodic dipole correction                     : NONE

 *********************** Population Analysis Parameters ************************
  
 Population analysis with cutoff                :  3.000       A
 Population analysis output                     : summary and pdos components

 ********************** Geometry Optimization Parameters ***********************
  
 optimization method                            : LBFGS
 max. no. of LBFGS updates                      : unbounded
 variable cell method                           : fixed basis quality
 max. number of steps                           :        100
 estimated bulk modulus                         :  500.0       GPa
 estimated <frequency>                          :  1668.       cm-1
 geom line minimiser                            : on
 with line minimiser tolerance                  :     0.4000
 total energy convergence tolerance             : 0.1000E-08   eV/atom
        max ionic |force| tolerance             : 0.1000E-04   eV/A
 max ionic |displacement| tolerance             : 0.1000E-04   A
   max |stress component| tolerance             : 0.1000E-04   GPa
 convergence tolerance window                   :          2   steps
 backup results every                           :       7000   seconds
 write geom trajectory file                     : on

 *******************************************************************************
  

                           -------------------------------
                                      Unit Cell
                           -------------------------------
        Real Lattice(A)                      Reciprocal Lattice(1/A)
     3.5452524    -0.0000000     0.0000000        1.772281496   0.000000000   0.000000000
    -0.0000000     6.1600945     0.0000000        0.000000000   1.019981971   0.000000000
     0.0000000     0.0000000     6.1089636        0.000000000   0.000000000   1.028519033

                       Lattice parameters(A)       Cell Angles
                    a =      3.545252          alpha =   90.000000
                    b =      6.160094          beta  =   90.000000
                    c =      6.108964          gamma =   90.000000

                       Current cell volume =           133.414205       A**3
                                   density =             0.362638   AMU/A**3
                                           =             0.602175     g/cm^3

                           -------------------------------
                                     Cell Contents
                           -------------------------------
                         Total number of ions in cell =   48
                      Total number of species in cell =    1
                        Max number of any one species =   48

            xxxxxxxxxxxxxxxxxxxxxxxxxxxxxxxxxxxxxxxxxxxxxxxxxxxxxxxxxxxx
            x  Element    Atom        Fractional coordinates of atoms  x
            x            Number           u          v          w      x
            x----------------------------------------------------------x
            x  H            1         0.413599   0.125236   0.024698   x 
            x  H            2         0.566573   0.203200   0.049464   x 
            x  H            3         0.563140   0.546733   0.003754   x 
            x  H            4         0.105618   0.169081   0.245570   x 
            x  H            5         0.297768   0.363772   0.237953   x 
            x  H            6         0.192852   0.467891   0.256733   x 
            x  H            7         0.192852   0.532109   0.756733   x 
            x  H            8         0.297768   0.636228   0.737953   x 
            x  H            9         0.105618   0.830919   0.745570   x 
            x  H           10         0.563140   0.453267   0.503754   x 
            x  H           11         0.566573   0.796800   0.549464   x 
            x  H           12         0.413599   0.874764   0.524698   x 
            x  H           13         0.307148   0.967891   0.256733   x 
            x  H           14         0.202232   0.863772   0.237953   x 
            x  H           15         0.394382   0.669081   0.245570   x 
            x  H           16        -0.063140   0.046733   0.003754   x 
            x  H           17        -0.066573   0.703200   0.049464   x 
            x  H           18         0.086401   0.625236   0.024698   x 
            x  H           19         0.692852   0.967891   0.243267   x 
            x  H           20         0.797768   0.863772   0.262047   x 
            x  H           21         0.605618   0.669081   0.254430   x 
            x  H           22         1.063140   0.046733   0.496246   x 
            x  H           23         1.066573   0.703200   0.450536   x 
            x  H           24         0.913599   0.625236   0.475302   x 
            x  H           25         0.807148   0.532109   0.743267   x 
            x  H           26         0.702232   0.636228   0.762047   x 
            x  H           27         0.894382   0.830919   0.754430   x 
            x  H           28         0.436860   0.453267  -0.003754   x 
            x  H           29         0.433427   0.796800   0.950536   x 
            x  H           30         0.586401   0.874764   0.975302   x 
            x  H           31         0.807148   0.467891   0.243267   x 
            x  H           32         0.702232   0.363772   0.262047   x 
            x  H           33         0.894382   0.169081   0.254430   x 
            x  H           34         0.436860   0.546733   0.496246   x 
            x  H           35         0.433427   0.203200   0.450536   x 
            x  H           36         0.586401   0.125236   0.475302   x 
            x  H           37         0.692852   0.032109   0.743267   x 
            x  H           38         0.797768   0.136228   0.762047   x 
            x  H           39         0.605618   0.330919   0.754430   x 
            x  H           40         0.063140  -0.046733  -0.003754   x 
            x  H           41         1.066573   0.296800   0.950536   x 
            x  H           42         0.913599   0.374764   0.975302   x 
            x  H           43         0.307148   0.032109   0.756733   x 
            x  H           44         0.202232   0.136228   0.737953   x 
            x  H           45         0.394382   0.330919   0.745570   x 
            x  H           46         0.936860  -0.046733   0.503754   x 
            x  H           47        -0.066573   0.296800   0.549464   x 
            x  H           48         0.086401   0.374764   0.524698   x 
            xxxxxxxxxxxxxxxxxxxxxxxxxxxxxxxxxxxxxxxxxxxxxxxxxxxxxxxxxxxx


                         No user defined ionic velocities

                           -------------------------------
                                   Details of Species
                           -------------------------------

                               Mass of species in AMU
                                    H    1.0078250

                          Electric Quadrupole Moment (Barn)
                                    H    0.0028600 Isotope  2

                          Files used for pseudopotentials:
                                    H 0|0.7|2|6|8|10L(qc=10)

                           -------------------------------
                              k-Points For BZ Sampling
                           -------------------------------
                       MP grid size for SCF calculation is  5  5  5
                            with an offset of   0.000  0.000  0.000
                       Number of kpoints used =            27

                           -------------------------------
                               Symmetry and Constraints
                           -------------------------------

                      Maximum deviation from symmetry = 0.184655E-13     ANG

                      Number of symmetry operations   =           8
                      Number of ionic constraints     =           3
                      Point group of crystal =     8: D2h, mmm, 2/m 2/m 2/m
                      Space group of crystal =    60: Pbcn, -P 2n 2ab

             Set iprint > 1 for details on symmetry rotations/translations

                         Centre of mass is constrained
             Set iprint > 1 for details of linear ionic constraints

                         Number of cell constraints= 3
                         Cell constraints are:  1 2 3 0 0 0

                         External pressure/stress (GPa)
                         60.00000   0.00000   0.00000
                                   60.00000   0.00000
                                             60.00000
  
+---------------- MEMORY AND SCRATCH DISK ESTIMATES PER PROCESS --------------+
|                                                     Memory          Disk    |
| Baseline code, static data and system overhead      415.0 MB         0.0 MB |
| BLAS internal memory storage                          0.0 MB         0.0 MB |
| Model and support data                               24.2 MB         0.0 MB |
| Electronic energy minimisation requirements          49.7 MB         0.0 MB |
| Force calculation requirements                        7.7 MB         0.0 MB |
|                                               ----------------------------- |
| Approx. total storage required per process          488.8 MB         0.0 MB |
|                                                                             |
| Requirements will fluctuate during execution and may exceed these estimates |
+-----------------------------------------------------------------------------+
Calculating finite basis set correction with  3 cut-off energies.
Calculating total energy with cut-off of 1190.000 eV.
------------------------------------------------------------------------ <-- SCF
SCF loop      Energy                           Energy gain       Timer   <-- SCF
                                               per atom          (sec)   <-- SCF
------------------------------------------------------------------------ <-- SCF
Initial   1.58424156E+003                                          9.25  <-- SCF
      1  -6.50108955E+002                    4.65489690E+001      28.53  <-- SCF
      2  -7.34391391E+002                    1.75588410E+000      48.17  <-- SCF
      3  -7.36810413E+002                    5.03962820E-002      68.08  <-- SCF
      4  -7.36813446E+002                    6.31835962E-005      87.54  <-- SCF
      5  -7.36813446E+002                    1.48152926E-008     107.47  <-- SCF
      6  -7.36813446E+002                    6.78331081E-012     130.26  <-- SCF
      7  -7.36813446E+002                    0.00000000E+000     165.14  <-- SCF
------------------------------------------------------------------------ <-- SCF
 
Final energy =  -736.8134464545     eV
(energy not corrected for finite basis set)
 
Calculating total energy with cut-off of 1195.000 eV.
------------------------------------------------------------------------ <-- SCF
SCF loop      Energy                           Energy gain       Timer   <-- SCF
                                               per atom          (sec)   <-- SCF
------------------------------------------------------------------------ <-- SCF
Initial  -7.36813446E+002                                        173.09  <-- SCF
      1  -7.36816811E+002                    7.00933841E-005     192.55  <-- SCF
      2  -7.36816811E+002                    3.32317780E-013     216.06  <-- SCF
      3  -7.36816811E+002                    4.22949902E-014     246.71  <-- SCF
------------------------------------------------------------------------ <-- SCF
 
Final energy =  -736.8168109369     eV
(energy not corrected for finite basis set)
 
Calculating total energy with cut-off of 1200.000 eV.
------------------------------------------------------------------------ <-- SCF
SCF loop      Energy                           Energy gain       Timer   <-- SCF
                                               per atom          (sec)   <-- SCF
------------------------------------------------------------------------ <-- SCF
Initial  -7.36816811E+002                                        254.76  <-- SCF
      1  -7.36820233E+002                    7.12869753E-005     275.74  <-- SCF
      2  -7.36820233E+002                    4.99483694E-013     300.26  <-- SCF
      3  -7.36820233E+002                    5.84073674E-014     327.47  <-- SCF
------------------------------------------------------------------------ <-- SCF
 
Final energy =  -736.8202327118     eV
(energy not corrected for finite basis set)
 
 For future reference: finite basis dEtot/dlog(Ecut) =      -0.803499eV
 Total energy corrected for finite basis set =    -736.820207 eV
 
+---------------- MEMORY AND SCRATCH DISK ESTIMATES PER PROCESS --------------+
|                                                     Memory          Disk    |
| Model and support data                               42.7 MB         0.0 MB |
| Electronic energy minimisation requirements          49.7 MB         0.0 MB |
| Geometry minimisation requirements                   58.9 MB         0.0 MB |
|                                               ----------------------------- |
| Approx. total storage required per process          151.3 MB         0.0 MB |
|                                                                             |
| Requirements will fluctuate during execution and may exceed these estimates |
+-----------------------------------------------------------------------------+
 

 ******************************** Symmetrised Forces ********************************
 *                                                                                  *
 *                           Cartesian components (eV/A)                            *
 * -------------------------------------------------------------------------------- *
 *                         x                    y                    z              *
 *                                                                                  *
 * H               1      0.00000             -0.00000             -0.00000         *
 * H               2      0.00000              0.00000             -0.00000         *
 * H               3     -0.00000              0.00000             -0.00000         *
 * H               4     -0.00000             -0.00000             -0.00000         *
 * H               5      0.00000              0.00000             -0.00000         *
 * H               6      0.00000              0.00000             -0.00000         *
 * H               7      0.00000             -0.00000             -0.00000         *
 * H               8      0.00000             -0.00000             -0.00000         *
 * H               9     -0.00000              0.00000             -0.00000         *
 * H              10     -0.00000             -0.00000             -0.00000         *
 * H              11      0.00000             -0.00000             -0.00000         *
 * H              12      0.00000              0.00000             -0.00000         *
 * H              13     -0.00000              0.00000             -0.00000         *
 * H              14     -0.00000              0.00000             -0.00000         *
 * H              15      0.00000             -0.00000             -0.00000         *
 * H              16      0.00000              0.00000             -0.00000         *
 * H              17     -0.00000              0.00000             -0.00000         *
 * H              18     -0.00000             -0.00000             -0.00000         *
 * H              19      0.00000              0.00000              0.00000         *
 * H              20      0.00000              0.00000              0.00000         *
 * H              21     -0.00000             -0.00000              0.00000         *
 * H              22     -0.00000              0.00000              0.00000         *
 * H              23      0.00000              0.00000              0.00000         *
 * H              24      0.00000             -0.00000              0.00000         *
 * H              25     -0.00000             -0.00000              0.00000         *
 * H              26     -0.00000             -0.00000              0.00000         *
 * H              27      0.00000              0.00000              0.00000         *
 * H              28      0.00000             -0.00000              0.00000         *
 * H              29     -0.00000             -0.00000              0.00000         *
 * H              30     -0.00000              0.00000              0.00000         *
 * H              31     -0.00000              0.00000              0.00000         *
 * H              32     -0.00000              0.00000              0.00000         *
 * H              33      0.00000             -0.00000              0.00000         *
 * H              34      0.00000              0.00000              0.00000         *
 * H              35     -0.00000              0.00000              0.00000         *
 * H              36     -0.00000             -0.00000              0.00000         *
 * H              37      0.00000             -0.00000              0.00000         *
 * H              38      0.00000             -0.00000              0.00000         *
 * H              39     -0.00000              0.00000              0.00000         *
 * H              40     -0.00000             -0.00000              0.00000         *
 * H              41      0.00000             -0.00000              0.00000         *
 * H              42      0.00000              0.00000              0.00000         *
 * H              43     -0.00000             -0.00000             -0.00000         *
 * H              44     -0.00000             -0.00000             -0.00000         *
 * H              45      0.00000              0.00000             -0.00000         *
 * H              46      0.00000             -0.00000             -0.00000         *
 * H              47     -0.00000             -0.00000             -0.00000         *
 * H              48     -0.00000              0.00000             -0.00000         *
 *                                                                                  *
 ************************************************************************************

 *********** Symmetrised Stress Tensor ***********
 *                                               *
 *          Cartesian components (GPa)           *
 * --------------------------------------------- *
 *             x             y             z     *
 *                                               *
 *  x    -59.970640      0.000000      0.000000  *
 *  y      0.000000    -59.970619      0.000000  *
 *  z      0.000000      0.000000    -59.970628  *
 *                                               *
 *  Pressure:   59.9706                          *
 *                                               *
 *************************************************
 LBFGS: finished iteration     0 with enthalpy= -6.86857848E+002 eV
  
 +-----------+-----------------+-----------------+------------+-----+ <-- LBFGS
 | Parameter |      value      |    tolerance    |    units   | OK? | <-- LBFGS
 +-----------+-----------------+-----------------+------------+-----+ <-- LBFGS
 |  dE/ion   |   0.000000E+000 |   1.000000E-009 |         eV | No  | <-- LBFGS
 |  |F|max   |   8.732112E-007 |   1.000000E-005 |       eV/A | Yes | <-- LBFGS
 |  |dR|max  |   0.000000E+000 |   1.000000E-005 |          A | No  | <-- LBFGS
 |   Smax    |   2.938113E-002 |   1.000000E-005 |        GPa | No  | <-- LBFGS
 +-----------+-----------------+-----------------+------------+-----+ <-- LBFGS
  

================================================================================
 Starting LBFGS iteration          1 ...
================================================================================
  
 +------------+-------------+-------------+-----------------+ <-- min LBFGS
 |    Step    |   lambda    |   F.delta'  |    enthalpy     | <-- min LBFGS
 +------------+-------------+-------------+-----------------+ <-- min LBFGS
 |  previous  |    0.000000 |    0.001557 |     -686.857848 | <-- min LBFGS
 +------------+-------------+-------------+-----------------+ <-- min LBFGS
  

--------------------------------------------------------------------------------
 LBFGS: starting iteration         1 with trial guess (lambda=  1.000000)
--------------------------------------------------------------------------------

                           -------------------------------
                                      Unit Cell
                           -------------------------------
        Real Lattice(A)              Reciprocal Lattice(1/A)
     3.5451831    -0.0000000     0.0000000        1.772316186   0.000000000   0.000000000
    -0.0000000     6.1599738     0.0000000        0.000000000   1.020001950   0.000000000
     0.0000000     0.0000000     6.1088440        0.000000000   0.000000000   1.028539173

                       Lattice parameters(A)       Cell Angles
                    a =      3.545183          alpha =   90.000000
                    b =      6.159974          beta  =   90.000000
                    c =      6.108844          gamma =   90.000000

                Current cell volume =           133.406369 A**3

                           -------------------------------
                                     Cell Contents
                           -------------------------------

            xxxxxxxxxxxxxxxxxxxxxxxxxxxxxxxxxxxxxxxxxxxxxxxxxxxxxxxxxxxxxxxxx
            x  Element         Atom        Fractional coordinates of atoms  x
            x                 Number           u          v          w      x
            x---------------------------------------------------------------x
            x  H                 1         0.413599   0.125236   0.024698   x
            x  H                 2         0.566573   0.203200   0.049464   x
            x  H                 3         0.563140   0.546733   0.003754   x
            x  H                 4         0.105618   0.169081   0.245570   x
            x  H                 5         0.297768   0.363772   0.237953   x
            x  H                 6         0.192852   0.467891   0.256733   x
            x  H                 7         0.192852   0.532109   0.756733   x
            x  H                 8         0.297768   0.636228   0.737953   x
            x  H                 9         0.105618   0.830919   0.745570   x
            x  H                10         0.563140   0.453267   0.503754   x
            x  H                11         0.566573   0.796800   0.549464   x
            x  H                12         0.413599   0.874764   0.524698   x
            x  H                13         0.307148   0.967891   0.256733   x
            x  H                14         0.202232   0.863772   0.237953   x
            x  H                15         0.394382   0.669081   0.245570   x
            x  H                16        -0.063140   0.046733   0.003754   x
            x  H                17        -0.066573   0.703200   0.049464   x
            x  H                18         0.086401   0.625236   0.024698   x
            x  H                19         0.692852   0.967891   0.243267   x
            x  H                20         0.797768   0.863772   0.262047   x
            x  H                21         0.605618   0.669081   0.254430   x
            x  H                22         1.063140   0.046733   0.496246   x
            x  H                23         1.066573   0.703200   0.450536   x
            x  H                24         0.913599   0.625236   0.475302   x
            x  H                25         0.807148   0.532109   0.743267   x
            x  H                26         0.702232   0.636228   0.762047   x
            x  H                27         0.894382   0.830919   0.754430   x
            x  H                28         0.436860   0.453267  -0.003754   x
            x  H                29         0.433427   0.796800   0.950536   x
            x  H                30         0.586401   0.874764   0.975302   x
            x  H                31         0.807148   0.467891   0.243267   x
            x  H                32         0.702232   0.363772   0.262047   x
            x  H                33         0.894382   0.169081   0.254430   x
            x  H                34         0.436860   0.546733   0.496246   x
            x  H                35         0.433427   0.203200   0.450536   x
            x  H                36         0.586401   0.125236   0.475302   x
            x  H                37         0.692852   0.032109   0.743267   x
            x  H                38         0.797768   0.136228   0.762047   x
            x  H                39         0.605618   0.330919   0.754430   x
            x  H                40         0.063140  -0.046733  -0.003754   x
            x  H                41         1.066573   0.296800   0.950536   x
            x  H                42         0.913599   0.374764   0.975302   x
            x  H                43         0.307148   0.032109   0.756733   x
            x  H                44         0.202232   0.136228   0.737953   x
            x  H                45         0.394382   0.330919   0.745570   x
            x  H                46         0.936860  -0.046733   0.503754   x
            x  H                47        -0.066573   0.296800   0.549464   x
            x  H                48         0.086401   0.374764   0.524698   x
            xxxxxxxxxxxxxxxxxxxxxxxxxxxxxxxxxxxxxxxxxxxxxxxxxxxxxxxxxxxxxxxxx


------------------------------------------------------------------------ <-- SCF
SCF loop      Energy                           Energy gain       Timer   <-- SCF
                                               per atom          (sec)   <-- SCF
------------------------------------------------------------------------ <-- SCF
Initial  -7.36817293E+002                                        339.19  <-- SCF
      1  -7.36817317E+002                    5.07373583E-007     360.75  <-- SCF
      2  -7.36817317E+002                    2.94050884E-012     382.87  <-- SCF
      3  -7.36817317E+002                    4.83371317E-014     413.03  <-- SCF
------------------------------------------------------------------------ <-- SCF
 
Final energy =  -736.8173170266     eV
(energy not corrected for finite basis set)
 

 ******************************** Symmetrised Forces ********************************
 *                                                                                  *
 *                           Cartesian components (eV/A)                            *
 * -------------------------------------------------------------------------------- *
 *                         x                    y                    z              *
 *                                                                                  *
 * H               1     -0.00032             -0.00028             -0.00009         *
 * H               2      0.00032              0.00028              0.00008         *
 * H               3      0.00028              0.00036              0.00003         *
 * H               4      0.00043             -0.00000             -0.00003         *
 * H               5      0.00022             -0.00037             -0.00007         *
 * H               6     -0.00021              0.00037              0.00007         *
 * H               7     -0.00021             -0.00037              0.00007         *
 * H               8      0.00022              0.00037             -0.00007         *
 * H               9      0.00043              0.00000             -0.00003         *
 * H              10      0.00028             -0.00036              0.00003         *
 * H              11      0.00032             -0.00028              0.00008         *
 * H              12     -0.00032              0.00028             -0.00009         *
 * H              13      0.00021              0.00037              0.00007         *
 * H              14     -0.00022             -0.00037             -0.00007         *
 * H              15     -0.00043             -0.00000             -0.00003         *
 * H              16     -0.00028              0.00036              0.00003         *
 * H              17     -0.00032              0.00028              0.00008         *
 * H              18      0.00032             -0.00028             -0.00009         *
 * H              19     -0.00021              0.00037             -0.00007         *
 * H              20      0.00022             -0.00037              0.00007         *
 * H              21      0.00043             -0.00000              0.00003         *
 * H              22      0.00028              0.00036             -0.00003         *
 * H              23      0.00032              0.00028             -0.00008         *
 * H              24     -0.00032             -0.00028              0.00009         *
 * H              25      0.00021             -0.00037             -0.00007         *
 * H              26     -0.00022              0.00037              0.00007         *
 * H              27     -0.00043              0.00000              0.00003         *
 * H              28     -0.00028             -0.00036             -0.00003         *
 * H              29     -0.00032             -0.00028             -0.00008         *
 * H              30      0.00032              0.00028              0.00009         *
 * H              31      0.00021              0.00037             -0.00007         *
 * H              32     -0.00022             -0.00037              0.00007         *
 * H              33     -0.00043             -0.00000              0.00003         *
 * H              34     -0.00028              0.00036             -0.00003         *
 * H              35     -0.00032              0.00028             -0.00008         *
 * H              36      0.00032             -0.00028              0.00009         *
 * H              37     -0.00021             -0.00037             -0.00007         *
 * H              38      0.00022              0.00037              0.00007         *
 * H              39      0.00043              0.00000              0.00003         *
 * H              40      0.00028             -0.00036             -0.00003         *
 * H              41      0.00032             -0.00028             -0.00008         *
 * H              42     -0.00032              0.00028              0.00009         *
 * H              43      0.00021             -0.00037              0.00007         *
 * H              44     -0.00022              0.00037             -0.00007         *
 * H              45     -0.00043              0.00000             -0.00003         *
 * H              46     -0.00028             -0.00036              0.00003         *
 * H              47     -0.00032             -0.00028              0.00008         *
 * H              48      0.00032              0.00028             -0.00009         *
 *                                                                                  *
 ************************************************************************************

 *********** Symmetrised Stress Tensor ***********
 *                                               *
 *          Cartesian components (GPa)           *
 * --------------------------------------------- *
 *             x             y             z     *
 *                                               *
 *  x    -59.984815      0.000000      0.000000  *
 *  y      0.000000    -59.984744      0.000000  *
 *  z      0.000000      0.000000    -59.980070  *
 *                                               *
 *  Pressure:   59.9832                          *
 *                                               *
 *************************************************
  
 +------------+-------------+-------------+-----------------+ <-- min LBFGS
 |    Step    |   lambda    |   F.delta'  |    enthalpy     | <-- min LBFGS
 +------------+-------------+-------------+-----------------+ <-- min LBFGS
 |  previous  |    0.000000 |    0.001557 |     -686.857848 | <-- min LBFGS
 | trial step |    1.000000 |    0.000890 |     -686.857852 | <-- min LBFGS
 +------------+-------------+-------------+-----------------+ <-- min LBFGS
  

--------------------------------------------------------------------------------
 LBFGS: improving iteration         1 with line minimization (lambda=  2.334067)
--------------------------------------------------------------------------------

                           -------------------------------
                                      Unit Cell
                           -------------------------------
        Real Lattice(A)              Reciprocal Lattice(1/A)
     3.5450905    -0.0000000     0.0000000        1.772362468   0.000000000   0.000000000
    -0.0000000     6.1598129     0.0000000        0.000000000   1.020028605   0.000000000
     0.0000000     0.0000000     6.1086844        0.000000000   0.000000000   1.028566042

                       Lattice parameters(A)       Cell Angles
                    a =      3.545090          alpha =   90.000000
                    b =      6.159813          beta  =   90.000000
                    c =      6.108684          gamma =   90.000000

                Current cell volume =           133.395914 A**3

                           -------------------------------
                                     Cell Contents
                           -------------------------------

            xxxxxxxxxxxxxxxxxxxxxxxxxxxxxxxxxxxxxxxxxxxxxxxxxxxxxxxxxxxxxxxxx
            x  Element         Atom        Fractional coordinates of atoms  x
            x                 Number           u          v          w      x
            x---------------------------------------------------------------x
            x  H                 1         0.413599   0.125236   0.024698   x
            x  H                 2         0.566573   0.203200   0.049464   x
            x  H                 3         0.563140   0.546733   0.003754   x
            x  H                 4         0.105618   0.169081   0.245570   x
            x  H                 5         0.297768   0.363772   0.237953   x
            x  H                 6         0.192852   0.467891   0.256733   x
            x  H                 7         0.192852   0.532109   0.756733   x
            x  H                 8         0.297768   0.636228   0.737953   x
            x  H                 9         0.105618   0.830919   0.745570   x
            x  H                10         0.563140   0.453267   0.503754   x
            x  H                11         0.566573   0.796800   0.549464   x
            x  H                12         0.413599   0.874764   0.524698   x
            x  H                13         0.307148   0.967891   0.256733   x
            x  H                14         0.202232   0.863772   0.237953   x
            x  H                15         0.394382   0.669081   0.245570   x
            x  H                16        -0.063140   0.046733   0.003754   x
            x  H                17        -0.066573   0.703200   0.049464   x
            x  H                18         0.086401   0.625236   0.024698   x
            x  H                19         0.692852   0.967891   0.243267   x
            x  H                20         0.797768   0.863772   0.262047   x
            x  H                21         0.605618   0.669081   0.254430   x
            x  H                22         1.063140   0.046733   0.496246   x
            x  H                23         1.066573   0.703200   0.450536   x
            x  H                24         0.913599   0.625236   0.475302   x
            x  H                25         0.807148   0.532109   0.743267   x
            x  H                26         0.702232   0.636228   0.762047   x
            x  H                27         0.894382   0.830919   0.754430   x
            x  H                28         0.436860   0.453267  -0.003754   x
            x  H                29         0.433427   0.796800   0.950536   x
            x  H                30         0.586401   0.874764   0.975302   x
            x  H                31         0.807148   0.467891   0.243267   x
            x  H                32         0.702232   0.363772   0.262047   x
            x  H                33         0.894382   0.169081   0.254430   x
            x  H                34         0.436860   0.546733   0.496246   x
            x  H                35         0.433427   0.203200   0.450536   x
            x  H                36         0.586401   0.125236   0.475302   x
            x  H                37         0.692852   0.032109   0.743267   x
            x  H                38         0.797768   0.136228   0.762047   x
            x  H                39         0.605618   0.330919   0.754430   x
            x  H                40         0.063140  -0.046733  -0.003754   x
            x  H                41         1.066573   0.296800   0.950536   x
            x  H                42         0.913599   0.374764   0.975302   x
            x  H                43         0.307148   0.032109   0.756733   x
            x  H                44         0.202232   0.136228   0.737953   x
            x  H                45         0.394382   0.330919   0.745570   x
            x  H                46         0.936860  -0.046733   0.503754   x
            x  H                47        -0.066573   0.296800   0.549464   x
            x  H                48         0.086401   0.374764   0.524698   x
            xxxxxxxxxxxxxxxxxxxxxxxxxxxxxxxxxxxxxxxxxxxxxxxxxxxxxxxxxxxxxxxxx


------------------------------------------------------------------------ <-- SCF
SCF loop      Energy                           Energy gain       Timer   <-- SCF
                                               per atom          (sec)   <-- SCF
------------------------------------------------------------------------ <-- SCF
Initial  -7.36813407E+002                                        425.03  <-- SCF
      1  -7.36813413E+002                    1.30541683E-007     446.16  <-- SCF
      2  -7.36813413E+002                    1.06543094E-012     473.12  <-- SCF
      3  -7.36813413E+002                    4.43090374E-014     506.47  <-- SCF
------------------------------------------------------------------------ <-- SCF
 
Final energy =  -736.8134127699     eV
(energy not corrected for finite basis set)
 

 ******************************** Symmetrised Forces ********************************
 *                                                                                  *
 *                           Cartesian components (eV/A)                            *
 * -------------------------------------------------------------------------------- *
 *                         x                    y                    z              *
 *                                                                                  *
 * H               1     -0.00074             -0.00067             -0.00022         *
 * H               2      0.00076              0.00067              0.00020         *
 * H               3      0.00065              0.00083              0.00007         *
 * H               4      0.00100              0.00000             -0.00008         *
 * H               5      0.00050             -0.00086             -0.00016         *
 * H               6     -0.00050              0.00087              0.00016         *
 * H               7     -0.00050             -0.00087              0.00016         *
 * H               8      0.00050              0.00086             -0.00016         *
 * H               9      0.00100             -0.00000             -0.00008         *
 * H              10      0.00065             -0.00083              0.00007         *
 * H              11      0.00076             -0.00067              0.00020         *
 * H              12     -0.00074              0.00067             -0.00022         *
 * H              13      0.00050              0.00087              0.00016         *
 * H              14     -0.00050             -0.00086             -0.00016         *
 * H              15     -0.00100              0.00000             -0.00008         *
 * H              16     -0.00065              0.00083              0.00007         *
 * H              17     -0.00076              0.00067              0.00020         *
 * H              18      0.00074             -0.00067             -0.00022         *
 * H              19     -0.00050              0.00087             -0.00016         *
 * H              20      0.00050             -0.00086              0.00016         *
 * H              21      0.00100              0.00000              0.00008         *
 * H              22      0.00065              0.00083             -0.00007         *
 * H              23      0.00076              0.00067             -0.00020         *
 * H              24     -0.00074             -0.00067              0.00022         *
 * H              25      0.00050             -0.00087             -0.00016         *
 * H              26     -0.00050              0.00086              0.00016         *
 * H              27     -0.00100             -0.00000              0.00008         *
 * H              28     -0.00065             -0.00083             -0.00007         *
 * H              29     -0.00076             -0.00067             -0.00020         *
 * H              30      0.00074              0.00067              0.00022         *
 * H              31      0.00050              0.00087             -0.00016         *
 * H              32     -0.00050             -0.00086              0.00016         *
 * H              33     -0.00100              0.00000              0.00008         *
 * H              34     -0.00065              0.00083             -0.00007         *
 * H              35     -0.00076              0.00067             -0.00020         *
 * H              36      0.00074             -0.00067              0.00022         *
 * H              37     -0.00050             -0.00087             -0.00016         *
 * H              38      0.00050              0.00086              0.00016         *
 * H              39      0.00100             -0.00000              0.00008         *
 * H              40      0.00065             -0.00083             -0.00007         *
 * H              41      0.00076             -0.00067             -0.00020         *
 * H              42     -0.00074              0.00067              0.00022         *
 * H              43      0.00050             -0.00087              0.00016         *
 * H              44     -0.00050              0.00086             -0.00016         *
 * H              45     -0.00100             -0.00000             -0.00008         *
 * H              46     -0.00065             -0.00083              0.00007         *
 * H              47     -0.00076             -0.00067              0.00020         *
 * H              48      0.00074              0.00067             -0.00022         *
 *                                                                                  *
 ************************************************************************************

 *********** Symmetrised Stress Tensor ***********
 *                                               *
 *          Cartesian components (GPa)           *
 * --------------------------------------------- *
 *             x             y             z     *
 *                                               *
 *  x    -60.003530      0.000000      0.000000  *
 *  y      0.000000    -60.003591      0.000000  *
 *  z      0.000000      0.000000    -59.992690  *
 *                                               *
 *  Pressure:   59.9999                          *
 *                                               *
 *************************************************
  
 +------------+-------------+-------------+-----------------+ <-- min LBFGS
 |    Step    |   lambda    |   F.delta'  |    enthalpy     | <-- min LBFGS
 +------------+-------------+-------------+-----------------+ <-- min LBFGS
 |  previous  |    0.000000 |    0.001557 |     -686.857848 | <-- min LBFGS
 | trial step |    1.000000 |    0.000890 |     -686.857852 | <-- min LBFGS
 |  line step |    2.334067 |  3.073E-006 |     -686.857851 | <-- min LBFGS
 +------------+-------------+-------------+-----------------+ <-- min LBFGS
  
 LBFGS: finished iteration     1 with enthalpy= -6.86857851E+002 eV
  
 +-----------+-----------------+-----------------+------------+-----+ <-- LBFGS
 | Parameter |      value      |    tolerance    |    units   | OK? | <-- LBFGS
 +-----------+-----------------+-----------------+------------+-----+ <-- LBFGS
 |  dE/ion   |   5.847825E-008 |   1.000000E-009 |         eV | No  | <-- LBFGS
 |  |F|max   |   1.053394E-003 |   1.000000E-005 |       eV/A | No  | <-- LBFGS
 |  |dR|max  |   1.976920E-007 |   1.000000E-005 |          A | Yes | <-- LBFGS
 |   Smax    |   7.310179E-003 |   1.000000E-005 |        GPa | No  | <-- LBFGS
 +-----------+-----------------+-----------------+------------+-----+ <-- LBFGS
  

================================================================================
 Starting LBFGS iteration          2 ...
================================================================================
  
 +------------+-------------+-------------+-----------------+ <-- min LBFGS
 |    Step    |   lambda    |   F.delta'  |    enthalpy     | <-- min LBFGS
 +------------+-------------+-------------+-----------------+ <-- min LBFGS
 |  previous  |    0.000000 |    0.000924 |     -686.857851 | <-- min LBFGS
 +------------+-------------+-------------+-----------------+ <-- min LBFGS
  

--------------------------------------------------------------------------------
 LBFGS: starting iteration         2 with trial guess (lambda=  1.000000)
--------------------------------------------------------------------------------
 
+---------------- MEMORY AND SCRATCH DISK ESTIMATES PER PROCESS --------------+
|                                                     Memory          Disk    |
| Model and support data                               42.7 MB         0.0 MB |
| Electronic energy minimisation requirements          49.8 MB         0.0 MB |
| Geometry minimisation requirements                   59.0 MB         0.0 MB |
|                                               ----------------------------- |
| Approx. total storage required per process          151.5 MB         0.0 MB |
|                                                                             |
| Requirements will fluctuate during execution and may exceed these estimates |
+-----------------------------------------------------------------------------+
 

                           -------------------------------
                                      Unit Cell
                           -------------------------------
        Real Lattice(A)              Reciprocal Lattice(1/A)
     3.5448611    -0.0000000     0.0000000        1.772477130   0.000000000   0.000000000
    -0.0000000     6.1594143     0.0000000        0.000000000   1.020094603   0.000000000
     0.0000000     0.0000000     6.1082448        0.000000000   0.000000000   1.028640061

                       Lattice parameters(A)       Cell Angles
                    a =      3.544861          alpha =   90.000000
                    b =      6.159414          beta  =   90.000000
                    c =      6.108245          gamma =   90.000000

                Current cell volume =           133.369057 A**3

                           -------------------------------
                                     Cell Contents
                           -------------------------------

            xxxxxxxxxxxxxxxxxxxxxxxxxxxxxxxxxxxxxxxxxxxxxxxxxxxxxxxxxxxxxxxxx
            x  Element         Atom        Fractional coordinates of atoms  x
            x                 Number           u          v          w      x
            x---------------------------------------------------------------x
            x  H                 1         0.413579   0.125225   0.024695   x
            x  H                 2         0.566594   0.203211   0.049467   x
            x  H                 3         0.563158   0.546746   0.003755   x
            x  H                 4         0.105645   0.169081   0.245569   x
            x  H                 5         0.297782   0.363758   0.237950   x
            x  H                 6         0.192838   0.467905   0.256736   x
            x  H                 7         0.192838   0.532095   0.756736   x
            x  H                 8         0.297782   0.636242   0.737950   x
            x  H                 9         0.105645   0.830919   0.745569   x
            x  H                10         0.563158   0.453254   0.503755   x
            x  H                11         0.566594   0.796789   0.549467   x
            x  H                12         0.413579   0.874775   0.524695   x
            x  H                13         0.307162   0.967905   0.256736   x
            x  H                14         0.202218   0.863758   0.237950   x
            x  H                15         0.394355   0.669081   0.245569   x
            x  H                16        -0.063158   0.046746   0.003755   x
            x  H                17        -0.066594   0.703211   0.049467   x
            x  H                18         0.086421   0.625225   0.024695   x
            x  H                19         0.692838   0.967905   0.243264   x
            x  H                20         0.797782   0.863758   0.262050   x
            x  H                21         0.605645   0.669081   0.254431   x
            x  H                22         1.063158   0.046746   0.496245   x
            x  H                23         1.066594   0.703211   0.450533   x
            x  H                24         0.913579   0.625225   0.475305   x
            x  H                25         0.807162   0.532095   0.743264   x
            x  H                26         0.702218   0.636242   0.762050   x
            x  H                27         0.894355   0.830919   0.754431   x
            x  H                28         0.436842   0.453254  -0.003755   x
            x  H                29         0.433406   0.796789   0.950533   x
            x  H                30         0.586421   0.874775   0.975305   x
            x  H                31         0.807162   0.467905   0.243264   x
            x  H                32         0.702218   0.363758   0.262050   x
            x  H                33         0.894355   0.169081   0.254431   x
            x  H                34         0.436842   0.546746   0.496245   x
            x  H                35         0.433406   0.203211   0.450533   x
            x  H                36         0.586421   0.125225   0.475305   x
            x  H                37         0.692838   0.032095   0.743264   x
            x  H                38         0.797782   0.136242   0.762050   x
            x  H                39         0.605645   0.330919   0.754431   x
            x  H                40         0.063158  -0.046746  -0.003755   x
            x  H                41         1.066594   0.296789   0.950533   x
            x  H                42         0.913579   0.374775   0.975305   x
            x  H                43         0.307162   0.032095   0.756736   x
            x  H                44         0.202218   0.136242   0.737950   x
            x  H                45         0.394355   0.330919   0.745569   x
            x  H                46         0.936842  -0.046746   0.503755   x
            x  H                47        -0.066594   0.296789   0.549467   x
            x  H                48         0.086421   0.374775   0.524695   x
            xxxxxxxxxxxxxxxxxxxxxxxxxxxxxxxxxxxxxxxxxxxxxxxxxxxxxxxxxxxxxxxxx


------------------------------------------------------------------------ <-- SCF
SCF loop      Energy                           Energy gain       Timer   <-- SCF
                                               per atom          (sec)   <-- SCF
------------------------------------------------------------------------ <-- SCF
Initial  -7.36803324E+002                                        518.16  <-- SCF
      1  -7.36803376E+002                    1.09787640E-006     540.06  <-- SCF
      2  -7.36803376E+002                    4.91649051E-011     562.23  <-- SCF
      3  -7.36803376E+002                    1.28899018E-013     592.50  <-- SCF
------------------------------------------------------------------------ <-- SCF
 
Final energy =  -736.8033764343     eV
(energy not corrected for finite basis set)
 

 ******************************** Symmetrised Forces ********************************
 *                                                                                  *
 *                           Cartesian components (eV/A)                            *
 * -------------------------------------------------------------------------------- *
 *                         x                    y                    z              *
 *                                                                                  *
 * H               1      0.00297              0.00262              0.00063         *
 * H               2     -0.00304             -0.00269             -0.00105         *
 * H               3     -0.00279             -0.00360             -0.00030         *
 * H               4     -0.00274              0.00009              0.00022         *
 * H               5     -0.00149              0.00238              0.00044         *
 * H               6      0.00128             -0.00245             -0.00049         *
 * H               7      0.00128              0.00245             -0.00049         *
 * H               8     -0.00149             -0.00238              0.00044         *
 * H               9     -0.00274             -0.00009              0.00022         *
 * H              10     -0.00279              0.00360             -0.00030         *
 * H              11     -0.00304              0.00269             -0.00105         *
 * H              12      0.00297             -0.00262              0.00063         *
 * H              13     -0.00128             -0.00245             -0.00049         *
 * H              14      0.00149              0.00238              0.00044         *
 * H              15      0.00274              0.00009              0.00022         *
 * H              16      0.00279             -0.00360             -0.00030         *
 * H              17      0.00304             -0.00269             -0.00105         *
 * H              18     -0.00297              0.00262              0.00063         *
 * H              19      0.00128             -0.00245              0.00049         *
 * H              20     -0.00149              0.00238             -0.00044         *
 * H              21     -0.00274              0.00009             -0.00022         *
 * H              22     -0.00279             -0.00360              0.00030         *
 * H              23     -0.00304             -0.00269              0.00105         *
 * H              24      0.00297              0.00262             -0.00063         *
 * H              25     -0.00128              0.00245              0.00049         *
 * H              26      0.00149             -0.00238             -0.00044         *
 * H              27      0.00274             -0.00009             -0.00022         *
 * H              28      0.00279              0.00360              0.00030         *
 * H              29      0.00304              0.00269              0.00105         *
 * H              30     -0.00297             -0.00262             -0.00063         *
 * H              31     -0.00128             -0.00245              0.00049         *
 * H              32      0.00149              0.00238             -0.00044         *
 * H              33      0.00274              0.00009             -0.00022         *
 * H              34      0.00279             -0.00360              0.00030         *
 * H              35      0.00304             -0.00269              0.00105         *
 * H              36     -0.00297              0.00262             -0.00063         *
 * H              37      0.00128              0.00245              0.00049         *
 * H              38     -0.00149             -0.00238             -0.00044         *
 * H              39     -0.00274             -0.00009             -0.00022         *
 * H              40     -0.00279              0.00360              0.00030         *
 * H              41     -0.00304              0.00269              0.00105         *
 * H              42      0.00297             -0.00262             -0.00063         *
 * H              43     -0.00128              0.00245             -0.00049         *
 * H              44      0.00149             -0.00238              0.00044         *
 * H              45      0.00274             -0.00009              0.00022         *
 * H              46      0.00279              0.00360             -0.00030         *
 * H              47      0.00304              0.00269             -0.00105         *
 * H              48     -0.00297             -0.00262              0.00063         *
 *                                                                                  *
 ************************************************************************************

 *********** Symmetrised Stress Tensor ***********
 *                                               *
 *          Cartesian components (GPa)           *
 * --------------------------------------------- *
 *             x             y             z     *
 *                                               *
 *  x    -59.985164      0.000000      0.000000  *
 *  y      0.000000    -59.985400      0.000000  *
 *  z      0.000000      0.000000    -60.029449  *
 *                                               *
 *  Pressure:   60.0000                          *
 *                                               *
 *************************************************
  
 +------------+-------------+-------------+-----------------+ <-- min LBFGS
 |    Step    |   lambda    |   F.delta'  |    enthalpy     | <-- min LBFGS
 +------------+-------------+-------------+-----------------+ <-- min LBFGS
 |  previous  |    0.000000 |    0.000924 |     -686.857851 | <-- min LBFGS
 | trial step |    1.000000 |   -0.003197 |     -686.857850 | <-- min LBFGS
 +------------+-------------+-------------+-----------------+ <-- min LBFGS
  

--------------------------------------------------------------------------------
 LBFGS: improving iteration         2 with line minimization (lambda=  0.224291)
--------------------------------------------------------------------------------

                           -------------------------------
                                      Unit Cell
                           -------------------------------
        Real Lattice(A)              Reciprocal Lattice(1/A)
     3.5450390    -0.0000000     0.0000000        1.772388184   0.000000000   0.000000000
    -0.0000000     6.1597235     0.0000000        0.000000000   1.020043407   0.000000000
     0.0000000     0.0000000     6.1085858        0.000000000   0.000000000   1.028582643

                       Lattice parameters(A)       Cell Angles
                    a =      3.545039          alpha =   90.000000
                    b =      6.159723          beta  =   90.000000
                    c =      6.108586          gamma =   90.000000

                Current cell volume =           133.389890 A**3

                           -------------------------------
                                     Cell Contents
                           -------------------------------

            xxxxxxxxxxxxxxxxxxxxxxxxxxxxxxxxxxxxxxxxxxxxxxxxxxxxxxxxxxxxxxxxx
            x  Element         Atom        Fractional coordinates of atoms  x
            x                 Number           u          v          w      x
            x---------------------------------------------------------------x
            x  H                 1         0.413595   0.125233   0.024698   x
            x  H                 2         0.566578   0.203203   0.049464   x
            x  H                 3         0.563144   0.546736   0.003754   x
            x  H                 4         0.105624   0.169081   0.245569   x
            x  H                 5         0.297771   0.363769   0.237952   x
            x  H                 6         0.192849   0.467894   0.256734   x
            x  H                 7         0.192849   0.532106   0.756734   x
            x  H                 8         0.297771   0.636231   0.737952   x
            x  H                 9         0.105624   0.830919   0.745569   x
            x  H                10         0.563144   0.453264   0.503754   x
            x  H                11         0.566578   0.796797   0.549464   x
            x  H                12         0.413595   0.874767   0.524698   x
            x  H                13         0.307151   0.967894   0.256734   x
            x  H                14         0.202229   0.863769   0.237952   x
            x  H                15         0.394376   0.669081   0.245569   x
            x  H                16        -0.063144   0.046736   0.003754   x
            x  H                17        -0.066578   0.703203   0.049464   x
            x  H                18         0.086405   0.625233   0.024698   x
            x  H                19         0.692849   0.967894   0.243266   x
            x  H                20         0.797771   0.863769   0.262048   x
            x  H                21         0.605624   0.669081   0.254431   x
            x  H                22         1.063144   0.046736   0.496246   x
            x  H                23         1.066578   0.703203   0.450536   x
            x  H                24         0.913595   0.625233   0.475302   x
            x  H                25         0.807151   0.532106   0.743266   x
            x  H                26         0.702229   0.636231   0.762048   x
            x  H                27         0.894376   0.830919   0.754431   x
            x  H                28         0.436856   0.453264  -0.003754   x
            x  H                29         0.433422   0.796797   0.950536   x
            x  H                30         0.586405   0.874767   0.975302   x
            x  H                31         0.807151   0.467894   0.243266   x
            x  H                32         0.702229   0.363769   0.262048   x
            x  H                33         0.894376   0.169081   0.254431   x
            x  H                34         0.436856   0.546736   0.496246   x
            x  H                35         0.433422   0.203203   0.450536   x
            x  H                36         0.586405   0.125233   0.475302   x
            x  H                37         0.692849   0.032106   0.743266   x
            x  H                38         0.797771   0.136231   0.762048   x
            x  H                39         0.605624   0.330919   0.754431   x
            x  H                40         0.063144  -0.046736  -0.003754   x
            x  H                41         1.066578   0.296797   0.950536   x
            x  H                42         0.913595   0.374767   0.975302   x
            x  H                43         0.307151   0.032106   0.756734   x
            x  H                44         0.202229   0.136231   0.737952   x
            x  H                45         0.394376   0.330919   0.745569   x
            x  H                46         0.936856  -0.046736   0.503754   x
            x  H                47        -0.066578   0.296797   0.549464   x
            x  H                48         0.086405   0.374767   0.524698   x
            xxxxxxxxxxxxxxxxxxxxxxxxxxxxxxxxxxxxxxxxxxxxxxxxxxxxxxxxxxxxxxxxx


------------------------------------------------------------------------ <-- SCF
SCF loop      Energy                           Energy gain       Timer   <-- SCF
                                               per atom          (sec)   <-- SCF
------------------------------------------------------------------------ <-- SCF
Initial  -7.36811070E+002                                        604.64  <-- SCF
      1  -7.36811154E+002                    1.74524368E-006     625.61  <-- SCF
      2  -7.36811154E+002                    4.04682494E-011     646.90  <-- SCF
      3  -7.36811154E+002                    1.28899018E-013     675.02  <-- SCF
------------------------------------------------------------------------ <-- SCF
 
Final energy =  -736.8111536904     eV
(energy not corrected for finite basis set)
 

 ******************************** Symmetrised Forces ********************************
 *                                                                                  *
 *                           Cartesian components (eV/A)                            *
 * -------------------------------------------------------------------------------- *
 *                         x                    y                    z              *
 *                                                                                  *
 * H               1      0.00009              0.00007             -0.00003         *
 * H               2     -0.00009             -0.00009             -0.00008         *
 * H               3     -0.00012             -0.00016             -0.00001         *
 * H               4      0.00016              0.00002             -0.00001         *
 * H               5      0.00005             -0.00014             -0.00002         *
 * H               6     -0.00010              0.00013              0.00001         *
 * H               7     -0.00010             -0.00013              0.00001         *
 * H               8      0.00005              0.00014             -0.00002         *
 * H               9      0.00016             -0.00002             -0.00001         *
 * H              10     -0.00012              0.00016             -0.00001         *
 * H              11     -0.00009              0.00009             -0.00008         *
 * H              12      0.00009             -0.00007             -0.00003         *
 * H              13      0.00010              0.00013              0.00001         *
 * H              14     -0.00005             -0.00014             -0.00002         *
 * H              15     -0.00016              0.00002             -0.00001         *
 * H              16      0.00012             -0.00016             -0.00001         *
 * H              17      0.00009             -0.00009             -0.00008         *
 * H              18     -0.00009              0.00007             -0.00003         *
 * H              19     -0.00010              0.00013             -0.00001         *
 * H              20      0.00005             -0.00014              0.00002         *
 * H              21      0.00016              0.00002              0.00001         *
 * H              22     -0.00012             -0.00016              0.00001         *
 * H              23     -0.00009             -0.00009              0.00008         *
 * H              24      0.00009              0.00007              0.00003         *
 * H              25      0.00010             -0.00013             -0.00001         *
 * H              26     -0.00005              0.00014              0.00002         *
 * H              27     -0.00016             -0.00002              0.00001         *
 * H              28      0.00012              0.00016              0.00001         *
 * H              29      0.00009              0.00009              0.00008         *
 * H              30     -0.00009             -0.00007              0.00003         *
 * H              31      0.00010              0.00013             -0.00001         *
 * H              32     -0.00005             -0.00014              0.00002         *
 * H              33     -0.00016              0.00002              0.00001         *
 * H              34      0.00012             -0.00016              0.00001         *
 * H              35      0.00009             -0.00009              0.00008         *
 * H              36     -0.00009              0.00007              0.00003         *
 * H              37     -0.00010             -0.00013             -0.00001         *
 * H              38      0.00005              0.00014              0.00002         *
 * H              39      0.00016             -0.00002              0.00001         *
 * H              40     -0.00012              0.00016              0.00001         *
 * H              41     -0.00009              0.00009              0.00008         *
 * H              42      0.00009             -0.00007              0.00003         *
 * H              43      0.00010             -0.00013              0.00001         *
 * H              44     -0.00005              0.00014             -0.00002         *
 * H              45     -0.00016             -0.00002             -0.00001         *
 * H              46      0.00012              0.00016             -0.00001         *
 * H              47      0.00009              0.00009             -0.00008         *
 * H              48     -0.00009             -0.00007             -0.00003         *
 *                                                                                  *
 ************************************************************************************

 *********** Symmetrised Stress Tensor ***********
 *                                               *
 *          Cartesian components (GPa)           *
 * --------------------------------------------- *
 *             x             y             z     *
 *                                               *
 *  x    -59.999337      0.000000      0.000000  *
 *  y      0.000000    -59.999466      0.000000  *
 *  z      0.000000      0.000000    -60.000893  *
 *                                               *
 *  Pressure:   59.9999                          *
 *                                               *
 *************************************************
  
[...]
              H 12 -- H 35                  -0.05        2.07433
              H 25 -- H 28                  -0.12        2.08497
              H 7  -- H 10                  -0.12        2.08497
              H 31 -- H 34                  -0.12        2.08497
              H 43 -- H 46                  -0.12        2.08497
              H 37 -- H 40                  -0.12        2.08497
              H 19 -- H 22                  -0.12        2.08497
              H 13 -- H 16                  -0.12        2.08497
              H 3  -- H 6                   -0.12        2.08497
              H 36 -- H 44                  -0.06        2.10560
              H 8  -- H 24                  -0.06        2.10560
              H 18 -- H 26                  -0.06        2.10560
              H 14 -- H 30                  -0.06        2.10560
              H 1  -- H 38                  -0.06        2.10560
              H 5  -- H 42                  -0.06        2.10560
              H 32 -- H 48                  -0.06        2.10560
              H 12 -- H 20                  -0.06        2.10560
              H 35 -- H 39                  -0.04        2.10655
              H 9  -- H 17                  -0.04        2.10655
              H 23 -- H 27                  -0.04        2.10655
              H 2  -- H 45                  -0.04        2.10655
              H 4  -- H 47                  -0.04        2.10655
              H 33 -- H 41                  -0.04        2.10655
              H 21 -- H 29                  -0.04        2.10655
              H 11 -- H 15                  -0.04        2.10655
              H 9  -- H 25                  -0.18        2.12310
              H 7  -- H 27                  -0.18        2.12310
              H 4  -- H 31                  -0.18        2.12310
              H 13 -- H 21                  -0.18        2.12310
              H 15 -- H 19                  -0.18        2.12310
              H 6  -- H 33                  -0.18        2.12310
              H 39 -- H 43                  -0.18        2.12310
              H 37 -- H 45                  -0.18        2.12310
              H 24 -- H 27                  -0.05        2.12532
              H 9  -- H 18                  -0.05        2.12532
              H 36 -- H 39                  -0.05        2.12532
              H 1  -- H 45                  -0.05        2.12532
              H 12 -- H 15                  -0.05        2.12532
              H 21 -- H 30                  -0.05        2.12532
              H 4  -- H 48                  -0.05        2.12532
              H 33 -- H 42                  -0.05        2.12532
              H 29 -- H 37                  -0.05        2.13299
              H 23 -- H 31                  -0.05        2.13299
              H 11 -- H 43                  -0.05        2.13299
              H 6  -- H 17                  -0.05        2.13299
              H 25 -- H 41                  -0.05        2.13299
              H 7  -- H 47                  -0.05        2.13299
              H 19 -- H 35                  -0.05        2.13299
              H 2  -- H 13                  -0.05        2.13299
              H 34 -- H 35                  -0.06        2.13444
              H 2  -- H 3                   -0.06        2.13444
              H 28 -- H 29                  -0.06        2.13444
              H 10 -- H 11                  -0.06        2.13444
              H 46 -- H 47                  -0.06        2.13444
              H 40 -- H 41                  -0.06        2.13444
              H 22 -- H 23                  -0.06        2.13444
              H 16 -- H 17                  -0.06        2.13444
              H 34 -- H 39                  -0.10        2.14769
              H 3  -- H 45                  -0.10        2.14769
              H 21 -- H 28                  -0.10        2.14769
              H 10 -- H 15                  -0.10        2.14769
              H 4  -- H 46                  -0.10        2.14769
              H 22 -- H 27                  -0.10        2.14769
              H 9  -- H 16                  -0.10        2.14769
              H 33 -- H 40                  -0.10        2.14769
              H 8  -- H 39                  -0.13        2.17669
              H 26 -- H 45                  -0.13        2.17669
              H 9  -- H 38                  -0.13        2.17669
              H 4  -- H 20                  -0.13        2.17669
              H 5  -- H 21                  -0.13        2.17669
              H 15 -- H 32                  -0.13        2.17669
              H 27 -- H 44                  -0.13        2.17669
              H 14 -- H 33                  -0.13        2.17669
              H 6  -- H 35                  -0.04        2.18801
              H 2  -- H 31                  -0.04        2.18801
              H 41 -- H 43                  -0.04        2.18801
              H 37 -- H 47                  -0.04        2.18801
              H 11 -- H 25                  -0.04        2.18801
              H 7  -- H 29                  -0.04        2.18801
              H 13 -- H 23                  -0.04        2.18801
              H 17 -- H 19                  -0.04        2.18801
              H 9  -- H 24                  -0.05        2.18956
              H 15 -- H 30                  -0.05        2.18956
              H 12 -- H 21                  -0.05        2.18956
              H 36 -- H 45                  -0.05        2.18956
              H 18 -- H 27                  -0.05        2.18956
              H 1  -- H 39                  -0.05        2.18956
              H 4  -- H 42                  -0.05        2.18956
              H 33 -- H 48                  -0.05        2.18956
              H 11 -- H 19                  -0.04        2.19304
              H 17 -- H 25                  -0.04        2.19304
              H 7  -- H 23                  -0.04        2.19304
              H 13 -- H 29                  -0.04        2.19304
              H 31 -- H 47                  -0.04        2.19304
              H 6  -- H 41                  -0.04        2.19304
              H 2  -- H 37                  -0.04        2.19304
              H 35 -- H 43                  -0.04        2.19304
              H 8  -- H 48                  -0.04        2.20284
              H 26 -- H 42                  -0.04        2.20284
              H 12 -- H 44                  -0.04        2.20284
              H 30 -- H 38                  -0.04        2.20284
              H 5  -- H 18                  -0.04        2.20284
              H 1  -- H 14                  -0.04        2.20284
              H 24 -- H 32                  -0.04        2.20284
              H 20 -- H 36                  -0.04        2.20284
              H 42 -- H 45                  -0.11        2.22426
              H 9  -- H 30                  -0.11        2.22426
              H 39 -- H 48                  -0.11        2.22426
              H 12 -- H 27                  -0.11        2.22426
              H 15 -- H 24                  -0.11        2.22426
              H 4  -- H 36                  -0.11        2.22426
              H 18 -- H 21                  -0.11        2.22426
              H 1  -- H 33                  -0.11        2.22426
              H 23 -- H 25                  -0.05        2.27026
              H 7  -- H 17                  -0.05        2.27026
              H 31 -- H 41                  -0.05        2.27026
              H 6  -- H 47                  -0.05        2.27026
              H 19 -- H 29                  -0.05        2.27026
              H 11 -- H 13                  -0.05        2.27026
              H 35 -- H 37                  -0.05        2.27026
              H 2  -- H 43                  -0.05        2.27026
              H 18 -- H 20                  -0.04        2.30392
              H 8  -- H 30                  -0.04        2.30392
              H 14 -- H 24                  -0.04        2.30392
              H 1  -- H 32                  -0.04        2.30392
              H 12 -- H 26                  -0.04        2.30392
              H 5  -- H 36                  -0.04        2.30392
              H 38 -- H 48                  -0.04        2.30392
              H 42 -- H 44                  -0.04        2.30392
              H 5  -- H 47                  -0.06        2.33652
              H 11 -- H 14                  -0.06        2.33652
              H 8  -- H 17                  -0.06        2.33652
              H 20 -- H 29                  -0.06        2.33652
              H 32 -- H 41                  -0.06        2.33652
              H 23 -- H 26                  -0.06        2.33652
              H 2  -- H 44                  -0.06        2.33652
              H 35 -- H 38                  -0.06        2.33652
              H 17 -- H 28                  -0.13        2.36107
              H 10 -- H 23                  -0.13        2.36107
              H 11 -- H 22                  -0.13        2.36107
              H 16 -- H 29                  -0.13        2.36107
              H 34 -- H 47                  -0.13        2.36107
              H 3  -- H 41                  -0.13        2.36107
              H 2  -- H 40                  -0.13        2.36107
              H 35 -- H 46                  -0.13        2.36107
              H 12 -- H 24                  -0.10        2.36544
              H 18 -- H 30                  -0.10        2.36544
              H 1  -- H 42                  -0.10        2.36544
              H 36 -- H 48                  -0.10        2.36544
              H 20 -- H 31                  -0.02        2.44136
              H 6  -- H 14                  -0.02        2.44136
              H 26 -- H 37                  -0.02        2.44136
              H 19 -- H 32                  -0.02        2.44136
              H 8  -- H 43                  -0.02        2.44136
              H 25 -- H 38                  -0.02        2.44136
              H 7  -- H 44                  -0.02        2.44136
              H 5  -- H 13                  -0.02        2.44136
              H 31 -- H 35                  -0.04        2.45290
              H 2  -- H 6                   -0.04        2.45290
              H 43 -- H 47                  -0.04        2.45290
              H 37 -- H 41                  -0.04        2.45290
              H 13 -- H 17                  -0.04        2.45290
              H 19 -- H 23                  -0.04        2.45290
              H 25 -- H 29                  -0.04        2.45290
              H 7  -- H 11                  -0.04        2.45290
              H 41 -- H 47                  -0.00        2.49513
              H 17 -- H 23                  -0.00        2.49513
              H 11 -- H 29                  -0.00        2.49513
              H 2  -- H 35                  -0.00        2.49513
              H 8  -- H 42                  -0.03        2.55948
              H 26 -- H 48                  -0.03        2.55948
              H 30 -- H 44                  -0.03        2.55948
              H 18 -- H 32                  -0.03        2.55948
              H 5  -- H 24                  -0.03        2.55948
              H 14 -- H 36                  -0.03        2.55948
              H 12 -- H 38                  -0.03        2.55948
              H 1  -- H 20                  -0.03        2.55948
              H 29 -- H 44                  -0.03        2.59415
              H 5  -- H 23                  -0.03        2.59415
              H 11 -- H 38                  -0.03        2.59415
              H 17 -- H 32                  -0.03        2.59415
              H 8  -- H 41                  -0.03        2.59415
              H 26 -- H 47                  -0.03        2.59415
              H 14 -- H 35                  -0.03        2.59415
              H 2  -- H 20                  -0.03        2.59415
              H 15 -- H 40                  -0.01        2.60050
              H 21 -- H 46                  -0.01        2.60050
              H 22 -- H 45                  -0.01        2.60050
              H 3  -- H 27                  -0.01        2.60050
              H 16 -- H 39                  -0.01        2.60050
              H 9  -- H 34                  -0.01        2.60050
              H 10 -- H 33                  -0.01        2.60050
              H 4  -- H 28                  -0.01        2.60050
              H 17 -- H 41                  -0.04        2.61811
              H 23 -- H 47                  -0.04        2.61811
              H 11 -- H 35                  -0.04        2.61811
              H 2  -- H 29                  -0.04        2.61811
              H 14 -- H 34                  -0.01        2.64476
              H 5  -- H 22                  -0.01        2.64476
              H 3  -- H 20                  -0.01        2.64476
              H 16 -- H 32                  -0.01        2.64476
              H 8  -- H 40                  -0.01        2.64476
              H 26 -- H 46                  -0.01        2.64476
              H 28 -- H 44                  -0.01        2.64476
              H 10 -- H 38                  -0.01        2.64476
              H 11 -- H 30                  -0.00        2.64627
              H 12 -- H 29                  -0.00        2.64627
              H 42 -- H 47                  -0.00        2.64627
              H 41 -- H 48                  -0.00        2.64627
              H 18 -- H 23                  -0.00        2.64627
              H 1  -- H 35                  -0.00        2.64627
              H 17 -- H 24                  -0.00        2.64627
              H 2  -- H 36                  -0.00        2.64627
              H 28 -- H 30                  -0.04        2.65298
              H 10 -- H 12                  -0.04        2.65298
              H 34 -- H 36                  -0.04        2.65298
              H 1  -- H 3                   -0.04        2.65298
              H 22 -- H 24                  -0.04        2.65298
              H 16 -- H 18                  -0.04        2.65298
              H 40 -- H 42                  -0.04        2.65298
              H 46 -- H 48                  -0.04        2.65298
              H 1  -- H 6                   -0.03        2.66018
              H 7  -- H 12                  -0.03        2.66018
              H 25 -- H 30                  -0.03        2.66018
              H 13 -- H 18                  -0.03        2.66018
              H 31 -- H 36                  -0.03        2.66018
              H 19 -- H 24                  -0.03        2.66018
              H 43 -- H 48                  -0.03        2.66018
              H 37 -- H 42                  -0.03        2.66018
              H 5  -- H 17                  -0.03        2.71397
              H 11 -- H 44                  -0.03        2.71397
              H 29 -- H 38                  -0.03        2.71397
              H 23 -- H 32                  -0.03        2.71397
              H 8  -- H 47                  -0.03        2.71397
              H 26 -- H 41                  -0.03        2.71397
              H 2  -- H 14                  -0.03        2.71397
              H 20 -- H 35                  -0.03        2.71397
              H 24 -- H 39                  -0.00        2.71765
              H 18 -- H 45                  -0.00        2.71765
              H 15 -- H 48                  -0.00        2.71765
              H 27 -- H 36                  -0.00        2.71765
              H 1  -- H 9                   -0.00        2.71765
              H 4  -- H 12                  -0.00        2.71765
              H 21 -- H 42                  -0.00        2.71765
              H 30 -- H 33                  -0.00        2.71765
              H 8  -- H 46                  -0.01        2.73811
              H 26 -- H 40                  -0.01        2.73811
              H 3  -- H 14                  -0.01        2.73811
              H 20 -- H 34                  -0.01        2.73811
              H 5  -- H 16                  -0.01        2.73811
              H 22 -- H 32                  -0.01        2.73811
              H 10 -- H 44                  -0.01        2.73811
              H 28 -- H 38                  -0.01        2.73811
              H 6  -- H 20                   0.00        2.81222
              H 26 -- H 43                   0.00        2.81222
              H 14 -- H 31                   0.00        2.81222
              H 13 -- H 32                   0.00        2.81222
              H 7  -- H 38                   0.00        2.81222
              H 8  -- H 37                   0.00        2.81222
              H 25 -- H 44                   0.00        2.81222
              H 5  -- H 19                   0.00        2.81222
              H 42 -- H 48                   0.00        2.82003
              H 12 -- H 30                   0.00        2.82003
              H 18 -- H 24                   0.00        2.82003
              H 1  -- H 36                   0.00        2.82003
              H 15 -- H 46                  -0.00        2.86044
              H 27 -- H 34                  -0.00        2.86044
              H 16 -- H 45                  -0.00        2.86044
              H 3  -- H 9                   -0.00        2.86044
              H 21 -- H 40                  -0.00        2.86044
              H 22 -- H 39                  -0.00        2.86044
              H 28 -- H 33                  -0.00        2.86044
              H 4  -- H 10                  -0.00        2.86044
              H 7  -- H 30                  -0.02        2.86084
              H 6  -- H 36                  -0.02        2.86084
              H 1  -- H 31                  -0.02        2.86084
              H 18 -- H 19                  -0.02        2.86084
              H 13 -- H 24                  -0.02        2.86084
              H 12 -- H 25                  -0.02        2.86084
              H 42 -- H 43                  -0.02        2.86084
              H 37 -- H 48                  -0.02        2.86084
              H 7  -- H 35                  -0.00        2.88619
              H 2  -- H 25                  -0.00        2.88619
              H 13 -- H 41                  -0.00        2.88619
              H 19 -- H 47                  -0.00        2.88619
              H 23 -- H 43                  -0.00        2.88619
              H 17 -- H 37                  -0.00        2.88619
              H 11 -- H 31                  -0.00        2.88619
              H 6  -- H 29                  -0.00        2.88619
              H 24 -- H 45                  -0.00        2.98614
              H 15 -- H 42                  -0.00        2.98614
              H 21 -- H 48                  -0.00        2.98614
              H 4  -- H 30                  -0.00        2.98614
              H 18 -- H 39                  -0.00        2.98614
              H 9  -- H 36                  -0.00        2.98614
              H 12 -- H 33                  -0.00        2.98614
              H 1  -- H 27                  -0.00        2.98614
======================================================================


Writing analysis data to Pbcn.castep_bin

Writing model to Pbcn.check
 
 A BibTeX formatted list of references used in this run has been written to 
 Pbcn.bib
 
Initialisation time =      3.21 s
Calculation time    =   2479.57 s
Finalisation time   =      2.09 s
Total time          =   2484.88 s
Peak Memory Use     = 544956 kB
  
Overall parallel efficiency rating: Poor (45%)                                  
  
Data was distributed by:-
G-vector (5-way); efficiency rating: Poor (46%)                                 
k-point (3-way); efficiency rating: Excellent (96%)                             
