 +-------------------------------------------------+
 |                                                 |
 |      CCC   AA    SSS  TTTTT  EEEEE  PPPP        |
 |     C     A  A  S       T    E      P   P       |
 |     C     AAAA   SS     T    EEE    PPPP        |
 |     C     A  A     S    T    E      P           |
 |      CCC  A  A  SSS     T    EEEEE  P           |
 |                                                 |
 +-------------------------------------------------+
 |                                                 |
 | Welcome to Academic Release CASTEP version 18.1 |          
 | Ab Initio Total Energy Program                  |
 |                                                 |
 | Authors:                                        |
 | M. Segall, M. Probert, C. Pickard, P. Hasnip,   |
 | S. Clark, K. Refson, J. R. Yates, M. Payne      |
 |                                                 |
 | Contributors:                                   |
 | P. Lindan, P. Haynes, J. White, V. Milman,      |
 | N. Govind, M. Gibson, P. Tulip, V. Cocula,      |
 | B. Montanari, D. Quigley, M. Glover,            |
 | L. Bernasconi, A. Perlov, M. Plummer,           |
 | E. McNellis, J. Meyer, J. Gale, D. Jochym       |
 | J. Aarons, B. Walker, R. Gillen, D. Jones       |
 | T. Green, I. J. Bush, C. J. Armstrong,          |
 | E. J. Higgins, E. L. Brown, M. S. McFly,        |
 | J. Wilkins, B-C. Shih, P. J. P. Byrne           |
 |                                                 |
 | Copyright (c) 2000 - 2017                       |
 |                                                 |
 |     Distributed under the terms of an           |
 |     Agreement between the United Kingdom        |
 |     Car-Parrinello (UKCP) Consortium,           |
 |     Daresbury Laboratory and Accelrys, Inc.     |
 |                                                 |
 | Please cite                                     |
 |                                                 |
 |     "First principles methods using CASTEP"     |
 |                                                 |
 |         Zeitschrift fuer Kristallographie       |
 |           220(5-6) pp. 567-570 (2005)           |
 |                                                 |
 | S. J. Clark, M. D. Segall, C. J. Pickard,       |
 | P. J. Hasnip, M. J. Probert, K. Refson,         |
 | M. C. Payne                                     |
 |                                                 |
 |       in all publications arising from          |
 |              your use of CASTEP                 |
 |                                                 |
 +-------------------------------------------------+


 Compiled for linux_x86_64_gfortran4.8 on Thu, 19 Jul 2018 15:42:32 +0100
 from code version 70483bd0ad64+  Sun, 10 Dec 2017 12:18:29 +0000
 Compiler: GNU Fortran 4.8.5; Optimisation: fast
 MATHLIBS: Intel MKL(2018.0.0) (LAPACK version 3.7.0)
 FFT Lib : mkl
 Fundamental constants values: CODATA 2014

 Run started: Fri, 14 Aug 2020 10:07:45 +0100

 Atomic calculation performed for H: 1s1

 Converged in 41 iterations to an ae energy of -12.488 eV

   ============================================================                
   | Pseudopotential Report - Date of generation 14-08-2020   |                
   ------------------------------------------------------------                
   | Element: H Ionic charge:  1.00 Level of theory: PBE      |                
   | Atomic Solver: Koelling-Harmon                           |                
   |                                                          |                
   |               Reference Electronic Structure             |                
   |         Orbital         Occupation         Energy        |                
   |            1s              1.000           -0.239        |                
   |                                                          |                
   |                 Pseudopotential Definition               |                
   |        Beta     l      e      Rc     scheme   norm       |                
   |          1      0   -0.239   0.599     qc      0         |                
   |          2      0    0.250   0.599     qc      0         |                
   |         loc     1    0.000   0.599     pn      0         |                
   |                                                          |                
   | Augmentation charge Rinner = 0.421                       |                
   | No partial core correction                               |                
   ------------------------------------------------------------                
   | "1|0.6|13|15|17|10(qc=8)"                                |                
   ------------------------------------------------------------                
   |      Author: Chris J. Pickard, Cambridge University      |                
   ============================================================                

 Pseudo atomic calculation performed for H 1s1

 Converged in 24 iterations to a total energy of -12.4866 eV

 Calculation parallelised over 16 processes.
 Data is distributed by k-point(16-way)

 ************************************ Title ************************************
 

 ***************************** General Parameters ******************************
  
 output verbosity                               : normal  (1)
 write checkpoint data to                       : Cmca-12.check
 type of calculation                            : geometry optimization
 stress calculation                             : on
 density difference calculation                 : off
 electron localisation func (ELF) calculation   : off
 Hirshfeld analysis                             : off
 unlimited duration calculation
 timing information                             : on
 memory usage estimate                          : on
 write extra output files                       : on
 write final potential to formatted file        : off
 write final density to formatted file          : off
 write structure in CELL formatted file         : on
 write BibTeX reference list                    : on
 write OTFG pseudopotential files               : on
 write electrostatic potential file             : on
 write bands file                               : on
 checkpoint writing                             : both castep_bin and check files
  
 output         length unit                     : A
 output           mass unit                     : amu
 output           time unit                     : ps
 output         charge unit                     : e
 output           spin unit                     : hbar/2
 output         energy unit                     : eV
 output          force unit                     : eV/A
 output       velocity unit                     : A/ps
 output       pressure unit                     : GPa
 output     inv_length unit                     : 1/A
 output      frequency unit                     : cm-1
 output force constant unit                     : eV/A**2
 output         volume unit                     : A**3
 output   IR intensity unit                     : (D/A)**2/amu
 output         dipole unit                     : D
 output         efield unit                     : eV/A/e
 output        entropy unit                     : J/mol/K
  
 wavefunctions paging                           : none
 random number generator seed                   : randomised (100745412)
 data distribution                              : optimal for this architecture
 optimization strategy                          : maximize speed(+++)

 *********************** Exchange-Correlation Parameters ***********************
  
 using functional                               : Perdew Burke Ernzerhof
 relativistic treatment                         : Koelling-Harmon
 DFT+D: Semi-empirical dispersion correction    : off

 ************************* Pseudopotential Parameters **************************
  
 pseudopotential representation                 : reciprocal space
 <beta|phi> representation                      : reciprocal space
 spin-orbit coupling                            : off

 **************************** Basis Set Parameters *****************************
  
 plane wave basis set cut-off                   :  1200.0000   eV
 size of standard grid                          :     2.0000
 size of   fine   gmax                          :    35.4943   1/A
 finite basis set correction                    : automatic
 number of sample energies                      :          3
           sample  spacing                      :     5.0000   eV

 **************************** Electronic Parameters ****************************
  
 number of  electrons                           :  24.00    
 net charge of system                           :  0.000    
 treating system as non-spin-polarized
 number of bands                                :         12

 ********************* Electronic Minimization Parameters **********************
  
 Method: Treating system as non-metallic,
         and number of  SD  steps               :          1
         and number of  CG  steps               :          4
  
 total energy / atom convergence tol.           : 0.1000E-10   eV
 eigen-energy convergence tolerance             : 0.2000E-10   eV
 max force / atom convergence tol.              : ignored
 convergence tolerance window                   :          3   cycles
 max. number of SCF cycles                      :        100
 periodic dipole correction                     : NONE

 ************************** Density Mixing Parameters **************************
  
 density-mixing scheme                          : Broyden
 max. length of mixing history                  :         20
 charge density mixing amplitude                : 0.8000    
 cut-off energy for mixing                      :  1200.       eV

 *********************** Population Analysis Parameters ************************
  
 Population analysis with cutoff                :  3.000       A
 Population analysis output                     : summary and pdos components

 ********************** Geometry Optimization Parameters ***********************
  
 optimization method                            : LBFGS
 max. no. of LBFGS updates                      : unbounded
 variable cell method                           : fixed basis quality
 max. number of steps                           :        200
 estimated bulk modulus                         :  500.0       GPa
 estimated <frequency>                          :  1668.       cm-1
 geom line minimiser                            : on
 with line minimiser tolerance                  :     0.4000
 total energy convergence tolerance             : 0.1000E-08   eV/atom
        max ionic |force| tolerance             : 0.1000E-04   eV/A
 max ionic |displacement| tolerance             : 0.1000E-04   A
   max |stress component| tolerance             : 0.1000E-04   GPa
 convergence tolerance window                   :          2   steps
 backup results every                           :      14400   seconds
 write geom trajectory file                     : on

 *******************************************************************************
  

                           -------------------------------
                                      Unit Cell
                           -------------------------------
        Real Lattice(A)                      Reciprocal Lattice(1/A)
     3.1922979    -0.0000000     0.0000000        1.968232768   0.000000000  -0.000000000
    -0.0000000     5.9716322     0.0000000        0.000000000   1.052172181  -0.000000001
     0.0000000     0.0000000     3.4944856       -0.000000000  -0.000000001   1.798028692

                       Lattice parameters(A)       Cell Angles
                    a =      3.192298          alpha =   90.000000
                    b =      5.971632          beta  =   90.000000
                    c =      3.494486          gamma =   90.000000

                       Current cell volume =            66.616178       A**3
                                   density =             0.363133   AMU/A**3
                                           =             0.602997     g/cm^3

                           -------------------------------
                                     Cell Contents
                           -------------------------------
                         Total number of ions in cell =   24
                      Total number of species in cell =    1
                        Max number of any one species =   24

            xxxxxxxxxxxxxxxxxxxxxxxxxxxxxxxxxxxxxxxxxxxxxxxxxxxxxxxxxxxx
            x  Element    Atom        Fractional coordinates of atoms  x
            x            Number           u          v          w      x
            x----------------------------------------------------------x
            x  H            1        -0.000000   0.006310   0.106400   x 
            x  H            2         0.000000   0.134976   0.467053   x 
            x  H            3        -0.000000   0.237743   0.347291   x 
            x  H            4         0.500000   0.237743   0.152709   x 
            x  H            5         0.500000   0.134976   0.032947   x 
            x  H            6         0.500000   0.006310   0.393600   x 
            x  H            7         0.500000   0.262257   0.652709   x 
            x  H            8         0.500000   0.365024   0.532947   x 
            x  H            9         0.500000   0.493690   0.893600   x 
            x  H           10         0.500000   0.762257   0.847291   x 
            x  H           11         0.500000   0.865024   0.967053   x 
            x  H           12         0.500000   0.993690   0.606400   x 
            x  H           13         0.500000   0.737743   0.347291   x 
            x  H           14         0.500000   0.634976   0.467053   x 
            x  H           15         0.500000   0.506310   0.106400   x 
            x  H           16         0.000000   0.737743   0.152709   x 
            x  H           17        -0.000000   0.634976   0.032947   x 
            x  H           18        -0.000000   0.506310   0.393600   x 
            x  H           19         0.000000   0.762257   0.652709   x 
            x  H           20         0.000000   0.865024   0.532947   x 
            x  H           21         0.000000   0.993690   0.893600   x 
            x  H           22        -0.000000   0.262257   0.847291   x 
            x  H           23         0.000000   0.365024   0.967053   x 
            x  H           24         0.000000   0.493690   0.606400   x 
            xxxxxxxxxxxxxxxxxxxxxxxxxxxxxxxxxxxxxxxxxxxxxxxxxxxxxxxxxxxx


                         No user defined ionic velocities

                           -------------------------------
                                   Details of Species
                           -------------------------------

                               Mass of species in AMU
                                    H    1.0078250

                          Electric Quadrupole Moment (Barn)
                                    H    0.0028600 Isotope  2

                          Files used for pseudopotentials:
                                    H 1|0.6|13|15|17|10(qc=8)

                           -------------------------------
                              k-Points For BZ Sampling
                           -------------------------------
                       MP grid size for SCF calculation is 10 10 10
                            with an offset of   0.000  0.000  0.000
                       Number of kpoints used =           500

                           -------------------------------
                               Symmetry and Constraints
                           -------------------------------

                      Cell is a supercell containing 2 primitive cells
                      Maximum deviation from symmetry =  0.00000         ANG

                      Number of symmetry operations   =           1
                      Number of ionic constraints     =           3
                      Point group of crystal =     1: C1, 1, 1
                      Space group of crystal =    64: Cmce, -C 2bc 2

             Set iprint > 1 for details on symmetry rotations/translations

                         Centre of mass is constrained
             Set iprint > 1 for details of linear ionic constraints

                         Number of cell constraints= 0
                         Cell constraints are:  1 2 3 4 5 6

                         External pressure/stress (GPa)
                         30.00000   0.00000   0.00000
                                   30.00000   0.00000
                                             30.00000
  
+---------------- MEMORY AND SCRATCH DISK ESTIMATES PER PROCESS --------------+
|                                                     Memory          Disk    |
| Baseline code, static data and system overhead      411.0 MB         0.0 MB |
| BLAS internal memory storage                          0.0 MB         0.0 MB |
| Model and support data                              112.5 MB         0.0 MB |
| Electronic energy minimisation requirements         103.9 MB         0.0 MB |
| Force calculation requirements                       13.2 MB         0.0 MB |
| Stress calculation requirements                      16.7 MB         0.0 MB |
|                                               ----------------------------- |
| Approx. total storage required per process          627.4 MB         0.0 MB |
|                                                                             |
| Requirements will fluctuate during execution and may exceed these estimates |
+-----------------------------------------------------------------------------+
Calculating finite basis set correction with  3 cut-off energies.
Calculating total energy with cut-off of 1190.000 eV.
------------------------------------------------------------------------ <-- SCF
SCF loop      Energy                           Energy gain       Timer   <-- SCF
                                               per atom          (sec)   <-- SCF
------------------------------------------------------------------------ <-- SCF
Initial   6.32244174E+002                                          9.32  <-- SCF
      1  -2.98057860E+002                    3.87625848E+001      31.89  <-- SCF
      2  -3.69608133E+002                    2.98126136E+000      47.85  <-- SCF
      3  -3.70758748E+002                    4.79423000E-002      62.20  <-- SCF
      4  -3.68478259E+002                   -9.50203825E-002      81.90  <-- SCF
      5  -3.68402131E+002                   -3.17201016E-003     101.90  <-- SCF
      6  -3.68404919E+002                    1.16184509E-004     121.39  <-- SCF
      7  -3.68405219E+002                    1.24896783E-005     141.16  <-- SCF
      8  -3.68405220E+002                    4.48331649E-008     160.74  <-- SCF
      9  -3.68405220E+002                    3.11860298E-009     180.21  <-- SCF
     10  -3.68405220E+002                    7.98811382E-011     194.14  <-- SCF
     11  -3.68405220E+002                    7.67956179E-012     208.23  <-- SCF
     12  -3.68405220E+002                   -7.65337918E-014     222.21  <-- SCF
------------------------------------------------------------------------ <-- SCF
 
Final energy =  -368.4052201984     eV
(energy not corrected for finite basis set)
 
Calculating total energy with cut-off of 1195.000 eV.
------------------------------------------------------------------------ <-- SCF
SCF loop      Energy                           Energy gain       Timer   <-- SCF
                                               per atom          (sec)   <-- SCF
------------------------------------------------------------------------ <-- SCF
Initial  -3.68405220E+002                                        228.48  <-- SCF
      1  -3.68405251E+002                    1.29624876E-006     246.54  <-- SCF
      2  -3.68405251E+002                    1.19231591E-012     261.82  <-- SCF
      3  -3.68405251E+002                    5.58450967E-010     277.03  <-- SCF
      4  -3.68405251E+002                    1.99853899E-011     292.33  <-- SCF
      5  -3.68405251E+002                    1.26884971E-013     307.50  <-- SCF
      6  -3.68405251E+002                    4.02809431E-015     322.91  <-- SCF
------------------------------------------------------------------------ <-- SCF
 
Final energy =  -368.4052513222     eV
(energy not corrected for finite basis set)
 
Calculating total energy with cut-off of 1200.000 eV.
------------------------------------------------------------------------ <-- SCF
SCF loop      Energy                           Energy gain       Timer   <-- SCF
                                               per atom          (sec)   <-- SCF
------------------------------------------------------------------------ <-- SCF
Initial  -3.68405251E+002                                        329.39  <-- SCF
      1  -3.68405285E+002                    1.38985467E-006     350.17  <-- SCF
      2  -3.68405285E+002                    1.12988045E-012     366.08  <-- SCF
      3  -3.68405285E+002                    6.13104150E-010     381.95  <-- SCF
      4  -3.68405285E+002                    2.13267453E-011     397.92  <-- SCF
      5  -3.68405285E+002                   -1.24870923E-013     413.76  <-- SCF
      6  -3.68405285E+002                    7.25056975E-014     429.66  <-- SCF
------------------------------------------------------------------------ <-- SCF
 
Final energy =  -368.4052846940     eV
(energy not corrected for finite basis set)
 
 For future reference: finite basis dEtot/dlog(Ecut) =      -0.007682eV
 Total energy corrected for finite basis set =    -368.405285 eV
 
+---------------- MEMORY AND SCRATCH DISK ESTIMATES PER PROCESS --------------+
|                                                     Memory          Disk    |
| Model and support data                              118.2 MB         0.0 MB |
| Electronic energy minimisation requirements         103.9 MB         0.0 MB |
| Geometry minimisation requirements                  143.5 MB         0.0 MB |
|                                               ----------------------------- |
| Approx. total storage required per process          365.7 MB         0.0 MB |
|                                                                             |
| Requirements will fluctuate during execution and may exceed these estimates |
+-----------------------------------------------------------------------------+
 

 ************************************** Forces **************************************
 *                                                                                  *
 *                           Cartesian components (eV/A)                            *
 * -------------------------------------------------------------------------------- *
 *                         x                    y                    z              *
 *                                                                                  *
 * H               1      0.00000             -0.00000             -0.00000         *
 * H               2     -0.00000             -0.00000              0.00000         *
 * H               3     -0.00000              0.00000             -0.00000         *
 * H               4      0.00000              0.00000              0.00000         *
 * H               5     -0.00000              0.00000              0.00000         *
 * H               6     -0.00000              0.00000             -0.00000         *
 * H               7     -0.00000              0.00000             -0.00000         *
 * H               8     -0.00000             -0.00000              0.00000         *
 * H               9     -0.00000             -0.00000             -0.00000         *
 * H              10      0.00000              0.00000              0.00000         *
 * H              11      0.00000             -0.00000             -0.00000         *
 * H              12     -0.00000              0.00000              0.00000         *
 * H              13     -0.00000              0.00000             -0.00000         *
 * H              14      0.00000             -0.00000              0.00000         *
 * H              15      0.00000             -0.00000              0.00000         *
 * H              16      0.00000              0.00000              0.00000         *
 * H              17      0.00000             -0.00000             -0.00000         *
 * H              18      0.00000             -0.00000              0.00000         *
 * H              19     -0.00000              0.00000             -0.00000         *
 * H              20      0.00000             -0.00000              0.00000         *
 * H              21     -0.00000              0.00000              0.00000         *
 * H              22      0.00000              0.00000              0.00000         *
 * H              23     -0.00000             -0.00000             -0.00000         *
 * H              24     -0.00000              0.00000             -0.00000         *
 *                                                                                  *
 ************************************************************************************

 ***************** Stress Tensor *****************
 *                                               *
 *          Cartesian components (GPa)           *
 * --------------------------------------------- *
 *             x             y             z     *
 *                                               *
 *  x    -59.999064      0.000000      0.000000  *
 *  y      0.000000    -59.999073      0.000002  *
 *  z      0.000000      0.000002    -59.999065  *
 *                                               *
 *  Pressure:   59.9991                          *
 *                                               *
 *************************************************
 LBFGS: finished iteration     0 with enthalpy= -3.55931720E+002 eV
  
 +-----------+-----------------+-----------------+------------+-----+ <-- LBFGS
 | Parameter |      value      |    tolerance    |    units   | OK? | <-- LBFGS
 +-----------+-----------------+-----------------+------------+-----+ <-- LBFGS
 |  dE/ion   |   0.000000E+000 |   1.000000E-009 |         eV | No  | <-- LBFGS
 |  |F|max   |   6.176856E-006 |   1.000000E-005 |       eV/A | Yes | <-- LBFGS
 |  |dR|max  |   0.000000E+000 |   1.000000E-005 |          A | No  | <-- LBFGS
 |   Smax    |   2.999907E+001 |   1.000000E-005 |        GPa | No  | <-- LBFGS
 +-----------+-----------------+-----------------+------------+-----+ <-- LBFGS
  

================================================================================
 Starting LBFGS iteration          1 ...
================================================================================
  
 +------------+-------------+-------------+-----------------+ <-- min LBFGS
 |    Step    |   lambda    |   F.delta'  |    enthalpy     | <-- min LBFGS
 +------------+-------------+-------------+-----------------+ <-- min LBFGS
 |  previous  |    0.000000 |    0.793939 |     -355.931720 | <-- min LBFGS
 +------------+-------------+-------------+-----------------+ <-- min LBFGS
  

--------------------------------------------------------------------------------
 LBFGS: starting iteration         1 with trial guess (lambda=  1.000000)
--------------------------------------------------------------------------------
 
+---------------- MEMORY AND SCRATCH DISK ESTIMATES PER PROCESS --------------+
|                                                     Memory          Disk    |
| Model and support data                              125.0 MB         0.0 MB |
| Electronic energy minimisation requirements         110.8 MB         0.0 MB |
| Geometry minimisation requirements                  152.9 MB         0.0 MB |
|                                               ----------------------------- |
| Approx. total storage required per process          388.7 MB         0.0 MB |
|                                                                             |
| Requirements will fluctuate during execution and may exceed these estimates |
+-----------------------------------------------------------------------------+
 

                           -------------------------------
                                      Unit Cell
                           -------------------------------
        Real Lattice(A)              Reciprocal Lattice(1/A)
     3.2561419    -0.0000000     0.0000000        1.929641149   0.000000000  -0.000000000
    -0.0000000     6.0910612    -0.0000000        0.000000000   1.031541979   0.000000001
     0.0000000    -0.0000000     3.5643731       -0.000000000   0.000000001   1.762774305

                       Lattice parameters(A)       Cell Angles
                    a =      3.256142          alpha =   90.000000
                    b =      6.091061          beta  =   90.000000
                    c =      3.564373          gamma =   90.000000

                Current cell volume =            70.693492 A**3

                           -------------------------------
                                     Cell Contents
                           -------------------------------

            xxxxxxxxxxxxxxxxxxxxxxxxxxxxxxxxxxxxxxxxxxxxxxxxxxxxxxxxxxxxxxxxx
            x  Element         Atom        Fractional coordinates of atoms  x
            x                 Number           u          v          w      x
            x---------------------------------------------------------------x
            x  H                 1        -0.000000   0.006310   0.106400   x
            x  H                 2         0.000000   0.134976   0.467053   x
            x  H                 3        -0.000000   0.237744   0.347291   x
            x  H                 4         0.500000   0.237743   0.152709   x
            x  H                 5         0.500000   0.134976   0.032947   x
            x  H                 6         0.500000   0.006310   0.393600   x
            x  H                 7         0.500000   0.262257   0.652709   x
            x  H                 8         0.500000   0.365024   0.532947   x
            x  H                 9         0.500000   0.493690   0.893600   x
            x  H                10         0.500000   0.762257   0.847291   x
            x  H                11         0.500000   0.865024   0.967053   x
            x  H                12         0.500000   0.993690   0.606400   x
            x  H                13         0.500000   0.737743   0.347291   x
            x  H                14         0.500000   0.634976   0.467053   x
            x  H                15         0.500000   0.506310   0.106400   x
            x  H                16         0.000000   0.737744   0.152709   x
            x  H                17        -0.000000   0.634976   0.032947   x
            x  H                18        -0.000000   0.506310   0.393600   x
            x  H                19         0.000000   0.762257   0.652709   x
            x  H                20         0.000000   0.865024   0.532947   x
            x  H                21         0.000000   0.993690   0.893600   x
            x  H                22        -0.000000   0.262257   0.847291   x
            x  H                23         0.000000   0.365024   0.967053   x
            x  H                24         0.000000   0.493690   0.606400   x
            xxxxxxxxxxxxxxxxxxxxxxxxxxxxxxxxxxxxxxxxxxxxxxxxxxxxxxxxxxxxxxxxx


------------------------------------------------------------------------ <-- SCF
SCF loop      Energy                           Energy gain       Timer   <-- SCF
                                               per atom          (sec)   <-- SCF
------------------------------------------------------------------------ <-- SCF
Initial  -3.69690277E+002                                        478.87  <-- SCF
      1  -3.69782485E+002                    3.84198722E-003     500.96  <-- SCF
      2  -3.69782758E+002                    1.13580645E-005     525.74  <-- SCF
      3  -3.69777489E+002                   -2.19521478E-004     549.94  <-- SCF
      4  -3.69777346E+002                   -5.96968975E-006     574.11  <-- SCF
      5  -3.69777352E+002                    2.62762797E-007     598.30  <-- SCF
      6  -3.69777353E+002                    2.79970459E-008     622.46  <-- SCF
      7  -3.69777353E+002                    1.25523475E-010     639.80  <-- SCF
      8  -3.69777353E+002                    1.02555281E-011     657.04  <-- SCF
      9  -3.69777353E+002                    4.02809431E-013     674.27  <-- SCF
     10  -3.69777353E+002                    9.66742633E-014     691.55  <-- SCF
------------------------------------------------------------------------ <-- SCF
 
Final energy =  -369.7773528101     eV
(energy not corrected for finite basis set)
 

 ************************************** Forces **************************************
 *                                                                                  *
 *                           Cartesian components (eV/A)                            *
 * -------------------------------------------------------------------------------- *
 *                         x                    y                    z              *
 *                                                                                  *
 * H               1      0.00000             -0.03155             -0.43225         *
 * H               2     -0.00000              0.35808             -0.24657         *
 * H               3      0.00000             -0.36511              0.24771         *
 * H               4      0.00000             -0.36509             -0.24762         *
 * H               5     -0.00000              0.35805              0.24657         *
 * H               6      0.00000             -0.03155              0.43231         *
 * H               7     -0.00000              0.36507             -0.24769         *
 * H               8     -0.00000             -0.35804              0.24654         *
 * H               9     -0.00000              0.03156              0.43226         *
 * H              10     -0.00000              0.36507              0.24761         *
 * H              11      0.00000             -0.35803             -0.24655         *
 * H              12     -0.00000              0.03155             -0.43231         *
 * H              13     -0.00000             -0.36509              0.24770         *
 * H              14      0.00000              0.35806             -0.24656         *
 * H              15      0.00000             -0.03156             -0.43226         *
 * H              16      0.00000             -0.36511             -0.24764         *
 * H              17      0.00000              0.35808              0.24658         *
 * H              18      0.00000             -0.03155              0.43229         *
 * H              19      0.00000              0.36507             -0.24769         *
 * H              20     -0.00000             -0.35804              0.24654         *
 * H              21     -0.00000              0.03156              0.43225         *
 * H              22      0.00000              0.36508              0.24762         *
 * H              23     -0.00000             -0.35805             -0.24656         *
 * H              24     -0.00000              0.03155             -0.43229         *
 *                                                                                  *
 ************************************************************************************

 ***************** Stress Tensor *****************
 *                                               *
 *          Cartesian components (GPa)           *
 * --------------------------------------------- *
 *             x             y             z     *
 *                                               *
 *  x    -51.502638      0.000000      0.000000  *
 *  y      0.000000    -47.081795     -0.000012  *
 *  z      0.000000     -0.000012    -46.099978  *
 *                                               *
 *  Pressure:   48.2281                          *
 *                                               *
 *************************************************
  
 +------------+-------------+-------------+-----------------+ <-- min LBFGS
 |    Step    |   lambda    |   F.delta'  |    enthalpy     | <-- min LBFGS
 +------------+-------------+-------------+-----------------+ <-- min LBFGS
 |  previous  |    0.000000 |    0.793939 |     -355.931720 | <-- min LBFGS
 | trial step |    1.000000 |    0.501905 |     -356.540331 | <-- min LBFGS
 +------------+-------------+-------------+-----------------+ <-- min LBFGS
  

--------------------------------------------------------------------------------
 LBFGS: improving iteration         1 with line minimization (lambda=  2.215448)
--------------------------------------------------------------------------------
 
+---------------- MEMORY AND SCRATCH DISK ESTIMATES PER PROCESS --------------+
|                                                     Memory          Disk    |
| Model and support data                              130.3 MB         0.0 MB |
| Electronic energy minimisation requirements         117.9 MB         0.0 MB |
| Geometry minimisation requirements                  162.9 MB         0.0 MB |
|                                               ----------------------------- |
| Approx. total storage required per process          411.1 MB         0.0 MB |
|                                                                             |
| Requirements will fluctuate during execution and may exceed these estimates |
+-----------------------------------------------------------------------------+
 

                           -------------------------------
                                      Unit Cell
                           -------------------------------
        Real Lattice(A)              Reciprocal Lattice(1/A)
     3.3337409    -0.0000000     0.0000000        1.884725170   0.000000000  -0.000000000
    -0.0000000     6.2362208    -0.0000000        0.000000000   1.007530918   0.000000002
     0.0000000    -0.0000000     3.6493177       -0.000000000   0.000000003   1.721742461

                       Lattice parameters(A)       Cell Angles
                    a =      3.333741          alpha =   90.000000
                    b =      6.236221          beta  =   90.000000
                    c =      3.649318          gamma =   90.000000

                Current cell volume =            75.869112 A**3

                           -------------------------------
                                     Cell Contents
                           -------------------------------

            xxxxxxxxxxxxxxxxxxxxxxxxxxxxxxxxxxxxxxxxxxxxxxxxxxxxxxxxxxxxxxxxx
            x  Element         Atom        Fractional coordinates of atoms  x
            x                 Number           u          v          w      x
            x---------------------------------------------------------------x
            x  H                 1        -0.000000   0.006310   0.106400   x
            x  H                 2         0.000000   0.134976   0.467053   x
            x  H                 3        -0.000000   0.237744   0.347291   x
            x  H                 4         0.500000   0.237743   0.152709   x
            x  H                 5         0.500000   0.134976   0.032947   x
            x  H                 6         0.500000   0.006310   0.393600   x
            x  H                 7         0.500000   0.262257   0.652709   x
            x  H                 8         0.500000   0.365024   0.532947   x
            x  H                 9         0.500000   0.493690   0.893600   x
            x  H                10         0.500000   0.762257   0.847291   x
            x  H                11         0.500000   0.865024   0.967053   x
            x  H                12         0.500000   0.993690   0.606400   x
            x  H                13         0.500000   0.737743   0.347291   x
            x  H                14         0.500000   0.634976   0.467053   x
            x  H                15         0.500000   0.506310   0.106400   x
            x  H                16         0.000000   0.737744   0.152709   x
            x  H                17        -0.000000   0.634976   0.032947   x
            x  H                18        -0.000000   0.506310   0.393600   x
            x  H                19         0.000000   0.762257   0.652709   x
            x  H                20         0.000000   0.865024   0.532947   x
            x  H                21         0.000000   0.993690   0.893600   x
            x  H                22        -0.000000   0.262257   0.847291   x
            x  H                23         0.000000   0.365024   0.967053   x
            x  H                24         0.000000   0.493690   0.606400   x
            xxxxxxxxxxxxxxxxxxxxxxxxxxxxxxxxxxxxxxxxxxxxxxxxxxxxxxxxxxxxxxxxx


------------------------------------------------------------------------ <-- SCF
SCF loop      Energy                           Energy gain       Timer   <-- SCF
                                               per atom          (sec)   <-- SCF
------------------------------------------------------------------------ <-- SCF
Initial  -3.71011874E+002                                        743.61  <-- SCF
      1  -3.71142027E+002                    5.42302356E-003     767.71  <-- SCF
      2  -3.71142433E+002                    1.69296437E-005     794.78  <-- SCF
      3  -3.71134797E+002                   -3.18157014E-004     821.22  <-- SCF
      4  -3.71134589E+002                   -8.68869894E-006     847.55  <-- SCF
      5  -3.71134599E+002                    4.40146810E-007     873.89  <-- SCF
      6  -3.71134601E+002                    4.85232578E-008     900.23  <-- SCF
      7  -3.71134601E+002                    2.30759453E-010     921.97  <-- SCF
      8  -3.71134601E+002                    1.93328386E-011     940.70  <-- SCF
      9  -3.71134601E+002                    3.88711101E-013     959.24  <-- SCF
     10  -3.71134601E+002                    1.87306385E-013     977.93  <-- SCF
------------------------------------------------------------------------ <-- SCF
 
Final energy =  -371.1346006424     eV
(energy not corrected for finite basis set)
 

 ************************************** Forces **************************************
 *                                                                                  *
 *                           Cartesian components (eV/A)                            *
 * -------------------------------------------------------------------------------- *
 *                         x                    y                    z              *
 *                                                                                  *
 * H               1      0.00000             -0.06701             -0.90986         *
 * H               2     -0.00000              0.75367             -0.51856         *
 * H               3      0.00000             -0.76829              0.52136         *
 * H               4      0.00000             -0.76824             -0.52124         *
 * H               5     -0.00000              0.75362              0.51854         *
 * H               6      0.00000             -0.06701              0.90995         *
 * H               7     -0.00000              0.76821             -0.52131         *
 * H               8      0.00000             -0.75360              0.51850         *
 * H               9     -0.00000              0.06702              0.90990         *
 * H              10     -0.00000              0.76819              0.52120         *
 * H              11      0.00000             -0.75357             -0.51851         *
 * H              12     -0.00000              0.06701             -0.90995         *
 * H              13     -0.00000             -0.76825              0.52134         *
 * H              14      0.00000              0.75364             -0.51853         *
 * H              15      0.00000             -0.06702             -0.90990         *
 * H              16     -0.00000             -0.76829             -0.52127         *
 * H              17      0.00000              0.75368              0.51858         *
 * H              18      0.00000             -0.06701              0.90990         *
 * H              19      0.00000              0.76821             -0.52131         *
 * H              20     -0.00000             -0.75360              0.51851         *
 * H              21     -0.00000              0.06702              0.90986         *
 * H              22      0.00000              0.76822              0.52122         *
 * H              23     -0.00000             -0.75361             -0.51853         *
 * H              24     -0.00000              0.06701             -0.90990         *
 *                                                                                  *
 ************************************************************************************

 ***************** Stress Tensor *****************
 *                                               *
 *          Cartesian components (GPa)           *
 * --------------------------------------------- *
 *             x             y             z     *
 *                                               *
 *  x    -42.847011      0.000000     -0.000000  *
 *  y      0.000000    -33.986823     -0.000017  *
 *  z     -0.000000     -0.000017    -32.045367  *
 *                                               *
 *  Pressure:   36.2931                          *
 *                                               *
 *************************************************
  
 +------------+-------------+-------------+-----------------+ <-- min LBFGS
 |    Step    |   lambda    |   F.delta'  |    enthalpy     | <-- min LBFGS
 +------------+-------------+-------------+-----------------+ <-- min LBFGS
 |  previous  |    0.000000 |    0.793939 |     -355.931720 | <-- min LBFGS
 | trial step |    1.000000 |    0.501905 |     -356.540331 | <-- min LBFGS
 |  line step |    2.215448 |    0.181634 |     -356.928468 | <-- min LBFGS
 +------------+-------------+-------------+-----------------+ <-- min LBFGS
  
 LBFGS: finished iteration     1 with enthalpy= -3.56928468E+002 eV
  
 +-----------+-----------------+-----------------+------------+-----+ <-- LBFGS
 | Parameter |      value      |    tolerance    |    units   | OK? | <-- LBFGS
 +-----------+-----------------+-----------------+------------+-----+ <-- LBFGS
 |  dE/ion   |   4.153116E-002 |   1.000000E-009 |         eV | No  | <-- LBFGS
 |  |F|max   |   9.284849E-001 |   1.000000E-005 |       eV/A | No  | <-- LBFGS
 |  |dR|max  |   1.386225E-006 |   1.000000E-005 |          A | Yes | <-- LBFGS
 |   Smax    |   1.284701E+001 |   1.000000E-005 |        GPa | No  | <-- LBFGS
 +-----------+-----------------+-----------------+------------+-----+ <-- LBFGS
  

================================================================================
 Starting LBFGS iteration          2 ...
================================================================================
  
 +------------+-------------+-------------+-----------------+ <-- min LBFGS
 |    Step    |   lambda    |   F.delta'  |    enthalpy     | <-- min LBFGS
 +------------+-------------+-------------+-----------------+ <-- min LBFGS
 |  previous  |    0.000000 |    0.579518 |     -356.928468 | <-- min LBFGS
 +------------+-------------+-------------+-----------------+ <-- min LBFGS
  

--------------------------------------------------------------------------------
 LBFGS: starting iteration         2 with trial guess (lambda=  0.409505)
--------------------------------------------------------------------------------
 
+---------------- MEMORY AND SCRATCH DISK ESTIMATES PER PROCESS --------------+
|                                                     Memory          Disk    |
| Model and support data                              142.4 MB         0.0 MB |
| Electronic energy minimisation requirements         133.0 MB         0.0 MB |
| Geometry minimisation requirements                  183.9 MB         0.0 MB |
|                                               ----------------------------- |
| Approx. total storage required per process          459.4 MB         0.0 MB |
|                                                                             |
| Requirements will fluctuate during execution and may exceed these estimates |
+-----------------------------------------------------------------------------+
 

                           -------------------------------
                                      Unit Cell
                           -------------------------------
        Real Lattice(A)              Reciprocal Lattice(1/A)
     3.4861030    -0.0000000     0.0000000        1.802352149   0.000000000  -0.000000000
    -0.0000000     6.5008094     0.0000000        0.000000000   0.966523533  -0.000000002
     0.0000000     0.0000000     3.8015308       -0.000000000  -0.000000004   1.652804000

                       Lattice parameters(A)       Cell Angles
                    a =      3.486103          alpha =   90.000000
                    b =      6.500809          beta  =   90.000000
                    c =      3.801531          gamma =   90.000000

                Current cell volume =            86.152160 A**3

                           -------------------------------
                                     Cell Contents
                           -------------------------------

            xxxxxxxxxxxxxxxxxxxxxxxxxxxxxxxxxxxxxxxxxxxxxxxxxxxxxxxxxxxxxxxxx
            x  Element         Atom        Fractional coordinates of atoms  x
            x                 Number           u          v          w      x
            x---------------------------------------------------------------x
            x  H                 1        -0.000000   0.005706   0.092395   x
            x  H                 2         0.000000   0.141764   0.459072   x
            x  H                 3        -0.000000   0.230824   0.355315   x
            x  H                 4         0.500000   0.230824   0.144686   x
            x  H                 5         0.500000   0.141764   0.040929   x
            x  H                 6         0.500000   0.005706   0.407606   x
            x  H                 7         0.500000   0.269176   0.644685   x
            x  H                 8         0.500000   0.358236   0.540928   x
            x  H                 9         0.500000   0.494294   0.907605   x
            x  H                10         0.500000   0.769176   0.855314   x
            x  H                11         0.500000   0.858236   0.959072   x
            x  H                12         0.500000   0.994294   0.592394   x
            x  H                13         0.500000   0.730824   0.355315   x
            x  H                14         0.500000   0.641764   0.459072   x
            x  H                15         0.500000   0.505706   0.092395   x
            x  H                16         0.000000   0.730824   0.144686   x
            x  H                17        -0.000000   0.641764   0.040929   x
            x  H                18        -0.000000   0.505706   0.407606   x
            x  H                19         0.000000   0.769176   0.644685   x
            x  H                20         0.000000   0.858236   0.540928   x
            x  H                21         0.000000   0.994294   0.907605   x
            x  H                22        -0.000000   0.269176   0.855314   x
            x  H                23         0.000000   0.358236   0.959071   x
            x  H                24         0.000000   0.494294   0.592394   x
            xxxxxxxxxxxxxxxxxxxxxxxxxxxxxxxxxxxxxxxxxxxxxxxxxxxxxxxxxxxxxxxxx


------------------------------------------------------------------------ <-- SCF
SCF loop      Energy                           Energy gain       Timer   <-- SCF
                                               per atom          (sec)   <-- SCF
------------------------------------------------------------------------ <-- SCF
Initial  -3.67024056E+002                                       1033.45  <-- SCF
      1  -3.74158931E+002                    2.97286448E-001    1060.12  <-- SCF
      2  -3.74192621E+002                    1.40375636E-003    1089.57  <-- SCF
      3  -3.73298252E+002                   -3.72653677E-002    1118.18  <-- SCF
      4  -3.73264440E+002                   -1.40885022E-003    1147.59  <-- SCF
      5  -3.73265303E+002                    3.59602697E-005    1176.60  <-- SCF
      6  -3.73265435E+002                    5.50475417E-006    1205.21  <-- SCF
      7  -3.73265437E+002                    5.63977713E-008    1234.18  <-- SCF
      8  -3.73265437E+002                    1.33268574E-008    1262.84  <-- SCF
      9  -3.73265437E+002                    3.43064736E-010    1288.94  <-- SCF
     10  -3.73265437E+002                    2.22713334E-011    1309.21  <-- SCF
     11  -3.73265437E+002                    7.91520531E-013    1329.43  <-- SCF
     12  -3.73265437E+002                   -8.05618861E-015    1349.69  <-- SCF
------------------------------------------------------------------------ <-- SCF
 
Final energy =  -373.2654368629     eV
(energy not corrected for finite basis set)
 

 ************************************** Forces **************************************
 *                                                                                  *
 *                           Cartesian components (eV/A)                            *
 * -------------------------------------------------------------------------------- *
 *                         x                    y                    z              *
 *                                                                                  *
 * H               1     -0.00000              0.18103              1.43426         *
 * H               2      0.00000             -1.37707              0.97239         *
 * H               3     -0.00000              1.27113             -0.83281         *
 * H               4      0.00000              1.27094              0.83262         *
 * H               5     -0.00000             -1.37687             -0.97219         *
 * H               6     -0.00000              0.18108             -1.43469         *
 * H               7      0.00000             -1.27114              0.83270         *
 * H               8      0.00000              1.37707             -0.97230         *
 * H               9      0.00000             -0.18116             -1.43433         *
 * H              10      0.00000             -1.27084             -0.83255         *
 * H              11     -0.00000              1.37676              0.97212         *
 * H              12      0.00000             -0.18108              1.43469         *
 * H              13      0.00000              1.27122             -0.83276         *
 * H              14     -0.00000             -1.37716              0.97235         *
 * H              15     -0.00000              0.18116              1.43433         *
 * H              16      0.00000              1.27120              0.83270         *
 * H              17     -0.00000             -1.37713             -0.97226         *
 * H              18     -0.00000              0.18119             -1.43459         *
 * H              19     -0.00000             -1.27098              0.83270         *
 * H              20      0.00000              1.37691             -0.97229         *
 * H              21      0.00000             -0.18103             -1.43427         *
 * H              22     -0.00000             -1.27106             -0.83260         *
 * H              23      0.00000              1.37699              0.97217         *
 * H              24      0.00000             -0.18119              1.43459         *
 *                                                                                  *
 ************************************************************************************

 ***************** Stress Tensor *****************
 *                                               *
 *          Cartesian components (GPa)           *
 * --------------------------------------------- *
 *             x             y             z     *
 *                                               *
 *  x    -29.264308     -0.000000     -0.000000  *
 *  y     -0.000000    -42.301085      0.000343  *
 *  z     -0.000000      0.000343    -42.608073  *
 *                                               *
 *  Pressure:   38.0578                          *
 *                                               *
 *************************************************
  
 +------------+-------------+-------------+-----------------+ <-- min LBFGS
 |    Step    |   lambda    |   F.delta'  |    enthalpy     | <-- min LBFGS
 +------------+-------------+-------------+-----------------+ <-- min LBFGS
 |  previous  |    0.000000 |    0.579518 |     -356.928468 | <-- min LBFGS
 | trial step |    0.409505 |   -0.556898 |     -357.133852 | <-- min LBFGS
 +------------+-------------+-------------+-----------------+ <-- min LBFGS
  

--------------------------------------------------------------------------------
 LBFGS: improving iteration         2 with line minimization (lambda=  0.208828)
--------------------------------------------------------------------------------

                           -------------------------------
                                      Unit Cell
                           -------------------------------
        Real Lattice(A)              Reciprocal Lattice(1/A)
     3.4114383    -0.0000000     0.0000000        1.841799500   0.000000000  -0.000000000
    -0.0000000     6.3711484     0.0000000        0.000000000   0.986193534  -0.000000000
     0.0000000     0.0000000     3.7269391       -0.000000000  -0.000000001   1.685883543

                       Lattice parameters(A)       Cell Angles
                    a =      3.411438          alpha =   90.000000
                    b =      6.371148          beta  =   90.000000
                    c =      3.726939          gamma =   90.000000

                Current cell volume =            81.004199 A**3

                           -------------------------------
                                     Cell Contents
                           -------------------------------

            xxxxxxxxxxxxxxxxxxxxxxxxxxxxxxxxxxxxxxxxxxxxxxxxxxxxxxxxxxxxxxxxx
            x  Element         Atom        Fractional coordinates of atoms  x
            x                 Number           u          v          w      x
            x---------------------------------------------------------------x
            x  H                 1        -0.000000   0.006002   0.099258   x
            x  H                 2         0.000000   0.138438   0.462983   x
            x  H                 3        -0.000000   0.234215   0.351383   x
            x  H                 4         0.500000   0.234215   0.148618   x
            x  H                 5         0.500000   0.138438   0.037017   x
            x  H                 6         0.500000   0.006002   0.400743   x
            x  H                 7         0.500000   0.265785   0.648617   x
            x  H                 8         0.500000   0.361562   0.537017   x
            x  H                 9         0.500000   0.493998   0.900742   x
            x  H                10         0.500000   0.765785   0.851382   x
            x  H                11         0.500000   0.861562   0.962983   x
            x  H                12         0.500000   0.993998   0.599257   x
            x  H                13         0.500000   0.734215   0.351383   x
            x  H                14         0.500000   0.638438   0.462983   x
            x  H                15         0.500000   0.506002   0.099258   x
            x  H                16         0.000000   0.734215   0.148618   x
            x  H                17        -0.000000   0.638438   0.037017   x
            x  H                18        -0.000000   0.506002   0.400743   x
            x  H                19         0.000000   0.765785   0.648617   x
            x  H                20         0.000000   0.861562   0.537017   x
            x  H                21         0.000000   0.993998   0.900742   x
            x  H                22        -0.000000   0.265785   0.851382   x
            x  H                23         0.000000   0.361562   0.962983   x
            x  H                24         0.000000   0.493998   0.599257   x
            xxxxxxxxxxxxxxxxxxxxxxxxxxxxxxxxxxxxxxxxxxxxxxxxxxxxxxxxxxxxxxxxx


------------------------------------------------------------------------ <-- SCF
SCF loop      Energy                           Energy gain       Timer   <-- SCF
                                               per atom          (sec)   <-- SCF
------------------------------------------------------------------------ <-- SCF
Initial  -3.70884980E+002                                       1411.38  <-- SCF
      1  -3.72809597E+002                    8.01923478E-002    1436.11  <-- SCF
      2  -3.72816997E+002                    3.08328296E-004    1463.85  <-- SCF
      3  -3.72581710E+002                   -9.80359869E-003    1490.59  <-- SCF
      4  -3.72573941E+002                   -3.23703503E-004    1517.44  <-- SCF
      5  -3.72574048E+002                    4.45898611E-006    1544.77  <-- SCF
      6  -3.72574063E+002                    6.15206560E-007    1571.37  <-- SCF
      7  -3.72574063E+002                    9.53864010E-009    1598.29  <-- SCF
      8  -3.72574063E+002                    2.03643127E-009    1624.88  <-- SCF
      9  -3.72574063E+002                    3.85448344E-011    1643.77  <-- SCF
     10  -3.72574063E+002                    2.32219637E-012    1662.64  <-- SCF
     11  -3.72574063E+002                    4.61216798E-013    1681.61  <-- SCF
------------------------------------------------------------------------ <-- SCF
 
Final energy =  -372.5740634466     eV
(energy not corrected for finite basis set)
 

 ************************************** Forces **************************************
 *                                                                                  *
 *                           Cartesian components (eV/A)                            *
 * -------------------------------------------------------------------------------- *
 *                         x                    y                    z              *
 *                                                                                  *
 * H               1     -0.00000              0.03553              0.06376         *
 * H               2      0.00000             -0.14544              0.11555         *
 * H               3      0.00000              0.07333             -0.03154         *
 * H               4     -0.00000              0.07328              0.03159         *
 * H               5     -0.00000             -0.14539             -0.11540         *
 * H               6      0.00000              0.03554             -0.06395         *
 * H               7     -0.00000             -0.07332              0.03154         *
 * H               8      0.00000              0.14543             -0.11554         *
 * H               9     -0.00000             -0.03553             -0.06376         *
 * H              10     -0.00000             -0.07328             -0.03159         *
 * H              11     -0.00000              0.14539              0.11540         *
 * H              12      0.00000             -0.03554              0.06395         *
 * H              13      0.00000              0.07333             -0.03154         *
 * H              14     -0.00000             -0.14544              0.11555         *
 * H              15      0.00000              0.03553              0.06376         *
 * H              16     -0.00000              0.07329              0.03160         *
 * H              17      0.00000             -0.14540             -0.11541         *
 * H              18      0.00000              0.03554             -0.06395         *
 * H              19     -0.00000             -0.07332              0.03153         *
 * H              20      0.00000              0.14543             -0.11554         *
 * H              21     -0.00000             -0.03553             -0.06376         *
 * H              22     -0.00000             -0.07328             -0.03159         *
 * H              23     -0.00000              0.14539              0.11540         *
 * H              24      0.00000             -0.03554              0.06395         *
 *                                                                                  *
 ************************************************************************************

 ***************** Stress Tensor *****************
 *                                               *
 *          Cartesian components (GPa)           *
 * --------------------------------------------- *
 *             x             y             z     *
 *                                               *
 *  x    -35.405994     -0.000000     -0.000000  *
 *  y     -0.000000    -37.260192      0.000156  *
 *  z     -0.000000      0.000156    -36.174229  *
 *                                               *
 *  Pressure:   36.2801                          *
 *                                               *
 *************************************************
  
 +------------+-------------+-------------+-----------------+ <-- min LBFGS
 |    Step    |   lambda    |   F.delta'  |    enthalpy     | <-- min LBFGS
 +------------+-------------+-------------+-----------------+ <-- min LBFGS
 |  previous  |    0.000000 |    0.579518 |     -356.928468 | <-- min LBFGS
 | trial step |    0.409505 |   -0.556898 |     -357.133852 | <-- min LBFGS
 |  line step |    0.208828 |    0.099249 |     -357.406410 | <-- min LBFGS
 +------------+-------------+-------------+-----------------+ <-- min LBFGS
  
 LBFGS: finished iteration     2 with enthalpy= -3.57406410E+002 eV
  
 +-----------+-----------------+-----------------+------------+-----+ <-- LBFGS
 | Parameter |      value      |    tolerance    |    units   | OK? | <-- LBFGS
 +-----------+-----------------+-----------------+------------+-----+ <-- LBFGS
 |  dE/ion   |   1.991426E-002 |   1.000000E-009 |         eV | No  | <-- LBFGS
 |  |F|max   |   1.857508E-001 |   1.000000E-005 |       eV/A | No  | <-- LBFGS
 |  |dR|max  |   2.716776E-002 |   1.000000E-005 |          A | No  | <-- LBFGS
 |   Smax    |   7.260192E+000 |   1.000000E-005 |        GPa | No  | <-- LBFGS
 +-----------+-----------------+-----------------+------------+-----+ <-- LBFGS
  

================================================================================
 Starting LBFGS iteration          3 ...
================================================================================
  
 +------------+-------------+-------------+-----------------+ <-- min LBFGS
 |    Step    |   lambda    |   F.delta'  |    enthalpy     | <-- min LBFGS
 +------------+-------------+-------------+-----------------+ <-- min LBFGS
 |  previous  |    0.000000 |    0.173010 |     -357.406410 | <-- min LBFGS
 +------------+-------------+-------------+-----------------+ <-- min LBFGS
  

--------------------------------------------------------------------------------
 LBFGS: starting iteration         3 with trial guess (lambda=  1.000000)
--------------------------------------------------------------------------------

                           -------------------------------
                                      Unit Cell
                           -------------------------------
        Real Lattice(A)              Reciprocal Lattice(1/A)
     3.4745762    -0.0000000     0.0000000        1.808331439   0.000000000  -0.000000000
    -0.0000000     6.4913744    -0.0000008        0.000000000   0.967928350   0.000000126
     0.0000000    -0.0000005     3.7927845       -0.000000000   0.000000215   1.656615414

                       Lattice parameters(A)       Cell Angles
                    a =      3.474576          alpha =   90.000015
                    b =      6.491374          beta  =   90.000000
                    c =      3.792785          gamma =   90.000000

                Current cell volume =            85.545401 A**3

                           -------------------------------
                                     Cell Contents
                           -------------------------------

            xxxxxxxxxxxxxxxxxxxxxxxxxxxxxxxxxxxxxxxxxxxxxxxxxxxxxxxxxxxxxxxxx
            x  Element         Atom        Fractional coordinates of atoms  x
            x                 Number           u          v          w      x
            x---------------------------------------------------------------x
            x  H                 1        -0.000000   0.006506   0.095994   x
            x  H                 2         0.000000   0.138083   0.463952   x
            x  H                 3        -0.000000   0.233010   0.353432   x
            x  H                 4         0.500000   0.233009   0.146572   x
            x  H                 5         0.500000   0.138083   0.036053   x
            x  H                 6         0.500000   0.006506   0.404000   x
            x  H                 7         0.500000   0.266990   0.646569   x
            x  H                 8         0.500000   0.361918   0.536048   x
            x  H                 9         0.500000   0.493494   0.904006   x
            x  H                10         0.500000   0.766991   0.853428   x
            x  H                11         0.500000   0.861917   0.963947   x
            x  H                12         0.500000   0.993494   0.596000   x
            x  H                13         0.500000   0.733010   0.353432   x
            x  H                14         0.500000   0.638082   0.463952   x
            x  H                15         0.500000   0.506506   0.095994   x
            x  H                16         0.000000   0.733009   0.146572   x
            x  H                17        -0.000000   0.638083   0.036053   x
            x  H                18        -0.000000   0.506506   0.404000   x
            x  H                19         0.000000   0.766990   0.646569   x
            x  H                20         0.000000   0.861918   0.536048   x
            x  H                21         0.000000   0.993494   0.904006   x
            x  H                22        -0.000000   0.266991   0.853428   x
            x  H                23         0.000000   0.361917   0.963947   x
            x  H                24         0.000000   0.493494   0.596000   x
            xxxxxxxxxxxxxxxxxxxxxxxxxxxxxxxxxxxxxxxxxxxxxxxxxxxxxxxxxxxxxxxxx


------------------------------------------------------------------------ <-- SCF
SCF loop      Energy                           Energy gain       Timer   <-- SCF
                                               per atom          (sec)   <-- SCF
------------------------------------------------------------------------ <-- SCF
Initial  -3.73242945E+002                                       1739.83  <-- SCF
      1  -3.73545344E+002                    1.25999335E-002    1765.25  <-- SCF
      2  -3.73546730E+002                    5.77739873E-005    1793.22  <-- SCF
      3  -3.73511506E+002                   -1.46768348E-003    1820.54  <-- SCF
      4  -3.73510627E+002                   -3.66424901E-005    1847.77  <-- SCF
      5  -3.73510656E+002                    1.21181699E-006    1875.09  <-- SCF
      6  -3.73510659E+002                    1.54398512E-007    1902.55  <-- SCF
      7  -3.73510659E+002                    1.96109785E-009    1929.93  <-- SCF
      8  -3.73510659E+002                    4.94964172E-010    1957.28  <-- SCF
      9  -3.73510659E+002                    8.53553183E-012    1976.67  <-- SCF
     10  -3.73510659E+002                    8.45899804E-013    1996.21  <-- SCF
------------------------------------------------------------------------ <-- SCF
 
Final energy =  -373.5106594695     eV
(energy not corrected for finite basis set)
 

 ************************************** Forces **************************************
 *                                                                                  *
 *                           Cartesian components (eV/A)                            *
 * -------------------------------------------------------------------------------- *
 *                         x                    y                    z              *
 *                                                                                  *
 * H               1     -0.00000              0.08822              0.44270         *
 * H               2      0.00000              0.05536             -0.01543         *
 * H               3      0.00000             -0.13048              0.10350         *
 * H               4     -0.00000             -0.13012             -0.10323         *
 * H               5     -0.00000              0.05501              0.01526         *
 * H               6     -0.00000              0.08801             -0.44113         *
 * H               7      0.00000              0.13041             -0.10352         *
 * H               8     -0.00000             -0.05545              0.01544         *
 * H               9      0.00000             -0.08826             -0.44270         *
 * H              10     -0.00000              0.13014              0.10325         *
 * H              11      0.00000             -0.05503             -0.01528         *
 * H              12      0.00000             -0.08801              0.44113         *
 * H              13     -0.00000             -0.13041              0.10351         *
 * H              14      0.00000              0.05545             -0.01543         *
 * H              15     -0.00000              0.08826              0.44270         *
 * H              16     -0.00000             -0.13001             -0.10322         *
 * H              17      0.00000              0.05506              0.01526         *
 * H              18     -0.00000              0.08805             -0.44112         *
 * H              19      0.00000              0.13050             -0.10351         *
 * H              20     -0.00000             -0.05538              0.01544         *
 * H              21     -0.00000             -0.08822             -0.44270         *
 * H              22      0.00000              0.13002              0.10322         *
 * H              23     -0.00000             -0.05506             -0.01527         *
 * H              24      0.00000             -0.08805              0.44112         *
 *                                                                                  *
 ************************************************************************************

 ***************** Stress Tensor *****************
 *                                               *
 *          Cartesian components (GPa)           *
 * --------------------------------------------- *
 *             x             y             z     *
 *                                               *
 *  x    -30.703777      0.000000     -0.000000  *
 *  y      0.000000    -30.460987     -0.001681  *
 *  z     -0.000000     -0.001681    -32.333001  *
 *                                               *
 *  Pressure:   31.1659                          *
 *                                               *
 *************************************************
  
 +------------+-------------+-------------+-----------------+ <-- min LBFGS
 |    Step    |   lambda    |   F.delta'  |    enthalpy     | <-- min LBFGS
 +------------+-------------+-------------+-----------------+ <-- min LBFGS
 |  previous  |    0.000000 |    0.173010 |     -357.406410 | <-- min LBFGS
 | trial step |    1.000000 |    0.004809 |     -357.492687 | <-- min LBFGS
 +------------+-------------+-------------+-----------------+ <-- min LBFGS
  
 LBFGS: finished iteration     3 with enthalpy= -3.57492687E+002 eV
  
 +-----------+-----------------+-----------------+------------+-----+ <-- LBFGS
 | Parameter |      value      |    tolerance    |    units   | OK? | <-- LBFGS
 +-----------+-----------------+-----------------+------------+-----+ <-- LBFGS
 |  dE/ion   |   3.594888E-003 |   1.000000E-009 |         eV | No  | <-- LBFGS
 |  |F|max   |   4.514098E-001 |   1.000000E-005 |       eV/A | No  | <-- LBFGS
 |  |dR|max  |   1.280437E-002 |   1.000000E-005 |          A | No  | <-- LBFGS
 |   Smax    |   2.333001E+000 |   1.000000E-005 |        GPa | No  | <-- LBFGS
 +-----------+-----------------+-----------------+------------+-----+ <-- LBFGS
  

================================================================================
 Starting LBFGS iteration          4 ...
================================================================================
  
 +------------+-------------+-------------+-----------------+ <-- min LBFGS
 |    Step    |   lambda    |   F.delta'  |    enthalpy     | <-- min LBFGS
 +------------+-------------+-------------+-----------------+ <-- min LBFGS
 |  previous  |    0.000000 |    0.139073 |     -357.492687 | <-- min LBFGS
 +------------+-------------+-------------+-----------------+ <-- min LBFGS
  

--------------------------------------------------------------------------------
 LBFGS: starting iteration         4 with trial guess (lambda=  1.000000)
--------------------------------------------------------------------------------
 
+---------------- MEMORY AND SCRATCH DISK ESTIMATES PER PROCESS --------------+
|                                                     Memory          Disk    |
| Model and support data                              153.2 MB         0.0 MB |
| Electronic energy minimisation requirements         143.4 MB         0.0 MB |
| Geometry minimisation requirements                  197.9 MB         0.0 MB |
|                                               ----------------------------- |
| Approx. total storage required per process          494.5 MB         0.0 MB |
|                                                                             |
| Requirements will fluctuate during execution and may exceed these estimates |
+-----------------------------------------------------------------------------+
 

                           -------------------------------
                                      Unit Cell
                           -------------------------------
        Real Lattice(A)              Reciprocal Lattice(1/A)
     3.5614838    -0.0000000     0.0000000        1.764204360   0.000000000  -0.000000000
    -0.0000000     6.6524869     0.0000062        0.000000000   0.944486686  -0.000000887
     0.0000000     0.0000037     3.8862835       -0.000000000  -0.000001513   1.616759381

                       Lattice parameters(A)       Cell Angles
                    a =      3.561484          alpha =   89.999893
                    b =      6.652487          beta  =   90.000000
                    c =      3.886284          gamma =   90.000000

                Current cell volume =            92.076645 A**3

                           -------------------------------
                                     Cell Contents
                           -------------------------------

[...]
 
Final energy =  -374.1562407474     eV
(energy not corrected for finite basis set)
 

 ************************************** Forces **************************************
 *                                                                                  *
 *                           Cartesian components (eV/A)                            *
 * -------------------------------------------------------------------------------- *
 *                         x                    y                    z              *
 *                                                                                  *
 * H               1      0.00000             -0.14487             -0.02321         *
 * H               2     -0.00000             -0.12309              0.11707         *
 * H               3      0.00000              0.13458             -0.07125         *
 * H               4     -0.00000             -0.06477             -0.03399         *
 * H               5     -0.00000              0.07283              0.03266         *
 * H               6     -0.00000              0.00910             -0.04074         *
 * H               7     -0.00000             -0.01380             -0.01795         *
 * H               8     -0.00000              0.00343             -0.01286         *
 * H               9      0.00000              0.26532              0.08828         *
 * H              10     -0.00000              0.03701              0.01644         *
 * H              11     -0.00000             -0.04700             -0.01361         *
 * H              12      0.00000             -0.00740              0.04067         *
 * H              13     -0.00000              0.13428             -0.08078         *
 * H              14      0.00000             -0.12471              0.11168         *
 * H              15     -0.00000             -0.26425             -0.08992         *
 * H              16     -0.00000             -0.04027             -0.01261         *
 * H              17      0.00000              0.05068              0.02421         *
 * H              18      0.00000             -0.04320             -0.00635         *
 * H              19     -0.00000             -0.11340              0.05509         *
 * H              20      0.00000              0.10114             -0.10025         *
 * H              21      0.00000              0.14324              0.02294         *
 * H              22     -0.00000              0.07218              0.03394         *
 * H              23     -0.00000             -0.08015             -0.04578         *
 * H              24      0.00000              0.04312              0.00630         *
 *                                                                                  *
 ************************************************************************************

 ***************** Stress Tensor *****************
 *                                               *
 *          Cartesian components (GPa)           *
 * --------------------------------------------- *
 *             x             y             z     *
 *                                               *
 *  x    -29.610491      0.000000      0.000000  *
 *  y      0.000000    -30.478032      0.640703  *
 *  z      0.000000      0.640703    -30.133722  *
 *                                               *
 *  Pressure:   30.0741                          *
 *                                               *
 *************************************************
  
 +------------+-------------+-------------+-----------------+ <-- min LBFGS
 |    Step    |   lambda    |   F.delta'  |    enthalpy     | <-- min LBFGS
 +------------+-------------+-------------+-----------------+ <-- min LBFGS
 |  previous  |    0.000000 |    0.006510 |     -357.781951 | <-- min LBFGS
 | trial step |    1.000000 |    0.003767 |     -357.784964 | <-- min LBFGS
 |  line step |    2.373391 |   -0.001514 |     -357.786093 | <-- min LBFGS
 +------------+-------------+-------------+-----------------+ <-- min LBFGS
  
 LBFGS: finished iteration    31 with enthalpy= -3.57786093E+002 eV
  
 +-----------+-----------------+-----------------+------------+-----+ <-- LBFGS
 | Parameter |      value      |    tolerance    |    units   | OK? | <-- LBFGS
 +-----------+-----------------+-----------------+------------+-----+ <-- LBFGS
 |  dE/ion   |   1.725716E-004 |   1.000000E-009 |         eV | No  | <-- LBFGS
 |  |F|max   |   2.796230E-001 |   1.000000E-005 |       eV/A | No  | <-- LBFGS
 |  |dR|max  |   2.660846E-002 |   1.000000E-005 |          A | No  | <-- LBFGS
 |   Smax    |   6.407029E-001 |   1.000000E-005 |        GPa | No  | <-- LBFGS
 +-----------+-----------------+-----------------+------------+-----+ <-- LBFGS
  

================================================================================
 Starting LBFGS iteration         32 ...
================================================================================
  
 +------------+-------------+-------------+-----------------+ <-- min LBFGS
 |    Step    |   lambda    |   F.delta'  |    enthalpy     | <-- min LBFGS
 +------------+-------------+-------------+-----------------+ <-- min LBFGS
 |  previous  |    0.000000 |    0.007372 |     -357.786093 | <-- min LBFGS
 +------------+-------------+-------------+-----------------+ <-- min LBFGS
  

--------------------------------------------------------------------------------
 LBFGS: starting iteration        32 with trial guess (lambda=  1.000000)
--------------------------------------------------------------------------------

                           -------------------------------
                                      Unit Cell
                           -------------------------------
        Real Lattice(A)              Reciprocal Lattice(1/A)
     3.3322944     0.0000000    -0.0000000        1.885543256  -0.000000000   0.000000000
     0.0000000     7.8571227    -0.0012409       -0.000000000   0.799680257   0.000479857
    -0.0000000    -0.0019954     3.3253184        0.000000000   0.000298418   1.889499047

                       Lattice parameters(A)       Cell Angles
                    a =      3.332294          alpha =   90.043430
                    b =      7.857123          beta  =   90.000000
                    c =      3.325319          gamma =   90.000000

                Current cell volume =            87.064297 A**3

                           -------------------------------
                                     Cell Contents
                           -------------------------------

            xxxxxxxxxxxxxxxxxxxxxxxxxxxxxxxxxxxxxxxxxxxxxxxxxxxxxxxxxxxxxxxxx
            x  Element         Atom        Fractional coordinates of atoms  x
            x                 Number           u          v          w      x
            x---------------------------------------------------------------x
            x  H                 1        -0.000000   0.041925   0.051717   x
            x  H                 2        -0.000000   0.130518   0.563381   x
            x  H                 3         0.000000   0.201900   0.422365   x
            x  H                 4         0.500000   0.203950   0.068030   x
            x  H                 5         0.500000   0.128075  -0.062228   x
            x  H                 6         0.500000   0.039411   0.439911   x
            x  H                 7         0.500000   0.297727   0.574912   x
            x  H                 8         0.500000   0.369504   0.437097   x
            x  H                 9         0.500000   0.457610   0.948793   x
            x  H                10         0.500000   0.796042   0.930957   x
            x  H                11         0.500000   0.871994   1.063587   x
            x  H                12         0.500000   0.960535   0.560194   x
            x  H                13         0.500000   0.703420   0.424425   x
            x  H                14         0.500000   0.629367   0.563911   x
            x  H                15         0.500000   0.542364   0.051369   x
            x  H                16        -0.000000   0.703621   0.067611   x
            x  H                17         0.000000   0.628387  -0.064288   x
            x  H                18         0.000000   0.539681   0.439940   x
            x  H                19        -0.000000   0.797456   0.577257   x
            x  H                20         0.000000   0.870151   0.436587   x
            x  H                21         0.000000   0.958138   0.948174   x
            x  H                22         0.000000   0.295648   0.931832   x
            x  H                23        -0.000000   0.372248   1.064512   x
            x  H                24        -0.000000   0.460328   0.559952   x
            xxxxxxxxxxxxxxxxxxxxxxxxxxxxxxxxxxxxxxxxxxxxxxxxxxxxxxxxxxxxxxxxx


------------------------------------------------------------------------ <-- SCF
SCF loop      Energy                           Energy gain       Timer   <-- SCF
                                               per atom          (sec)   <-- SCF
------------------------------------------------------------------------ <-- SCF
Initial  -3.73690942E+002                                      33011.24  <-- SCF
      1  -3.74082797E+002                    1.63272735E-002   33060.26  <-- SCF
      2  -3.74084212E+002                    5.89681611E-005   33112.32  <-- SCF
      3  -3.74091419E+002                    3.00288067E-004   33164.85  <-- SCF
      4  -3.74092840E+002                    5.92292751E-005   33217.39  <-- SCF
      5  -3.74092878E+002                    1.58070647E-006   33272.90  <-- SCF
      6  -3.74092881E+002                    1.05219438E-007   33330.88  <-- SCF
      7  -3.74092881E+002                   -3.80221892E-009   33386.51  <-- SCF
      8  -3.74092881E+002                   -1.05980370E-009   33440.57  <-- SCF
      9  -3.74092881E+002                   -2.01404715E-015   33487.00  <-- SCF
     10  -3.74092881E+002                    4.26575187E-012   33524.44  <-- SCF
------------------------------------------------------------------------ <-- SCF
 
Final energy =  -374.0928805165     eV
(energy not corrected for finite basis set)
 

 ************************************** Forces **************************************
 *                                                                                  *
 *                           Cartesian components (eV/A)                            *
 * -------------------------------------------------------------------------------- *
 *                         x                    y                    z              *
 *                                                                                  *
 * H               1      0.00000             -0.20095             -0.02210         *
 * H               2     -0.00000             -0.21201              0.19319         *
 * H               3      0.00000              0.22679             -0.12823         *
 * H               4      0.00000              0.05882              0.06635         *
 * H               5     -0.00000             -0.04682             -0.07333         *
 * H               6     -0.00000             -0.02042             -0.02749         *
 * H               7      0.00000             -0.35594              0.24188         *
 * H               8     -0.00000              0.34416             -0.29036         *
 * H               9      0.00000              0.36429              0.10296         *
 * H              10      0.00000              0.08461              0.03705         *
 * H              11     -0.00000             -0.09851             -0.03564         *
 * H              12      0.00000              0.02338              0.03072         *
 * H              13      0.00000             -0.14672              0.15684         *
 * H              14     -0.00000              0.15612             -0.11139         *
 * H              15     -0.00000             -0.36357             -0.09840         *
 * H              16     -0.00000              0.09084              0.10114         *
 * H              17      0.00000             -0.07854             -0.08553         *
 * H              18      0.00000             -0.10061              0.01791         *
 * H              19     -0.00000             -0.01553             -0.04364         *
 * H              20     -0.00000              0.00402             -0.02193         *
 * H              21      0.00000              0.20211              0.01989         *
 * H              22     -0.00000              0.20685              0.11686         *
 * H              23      0.00000             -0.21956             -0.13017         *
 * H              24      0.00000              0.09718             -0.01658         *
 *                                                                                  *
 ************************************************************************************

 ***************** Stress Tensor *****************
 *                                               *
 *          Cartesian components (GPa)           *
 * --------------------------------------------- *
 *             x             y             z     *
 *                                               *
 *  x    -29.819899      0.000000     -0.000000  *
 *  y      0.000000    -31.053396      0.597175  *
 *  z     -0.000000      0.597175    -30.256656  *
 *                                               *
 *  Pressure:   30.3767                          *
 *                                               *
 *************************************************
  
 +------------+-------------+-------------+-----------------+ <-- min LBFGS
 |    Step    |   lambda    |   F.delta'  |    enthalpy     | <-- min LBFGS
 +------------+-------------+-------------+-----------------+ <-- min LBFGS
 |  previous  |    0.000000 |    0.007372 |     -357.786093 | <-- min LBFGS
 | trial step |    1.000000 |   -0.000342 |     -357.790502 | <-- min LBFGS
 +------------+-------------+-------------+-----------------+ <-- min LBFGS
  
 LBFGS: finished iteration    32 with enthalpy= -3.57790502E+002 eV
  
 +-----------+-----------------+-----------------+------------+-----+ <-- LBFGS
 | Parameter |      value      |    tolerance    |    units   | OK? | <-- LBFGS
 +-----------+-----------------+-----------------+------------+-----+ <-- LBFGS
 |  dE/ion   |   1.837270E-004 |   1.000000E-009 |         eV | No  | <-- LBFGS
 |  |F|max   |   4.502776E-001 |   1.000000E-005 |       eV/A | No  | <-- LBFGS
 |  |dR|max  |   1.671238E-002 |   1.000000E-005 |          A | No  | <-- LBFGS
 |   Smax    |   1.053396E+000 |   1.000000E-005 |        GPa | No  | <-- LBFGS
 +-----------+-----------------+-----------------+------------+-----+ <-- LBFGS
  

================================================================================
 Starting LBFGS iteration         33 ...
================================================================================
  
 +------------+-------------+-------------+-----------------+ <-- min LBFGS
 |    Step    |   lambda    |   F.delta'  |    enthalpy     | <-- min LBFGS
 +------------+-------------+-------------+-----------------+ <-- min LBFGS
 |  previous  |    0.000000 |    0.007324 |     -357.790502 | <-- min LBFGS
 +------------+-------------+-------------+-----------------+ <-- min LBFGS
  

--------------------------------------------------------------------------------
 LBFGS: starting iteration        33 with trial guess (lambda=  0.116857)
--------------------------------------------------------------------------------

                           -------------------------------
                                      Unit Cell
                           -------------------------------
        Real Lattice(A)              Reciprocal Lattice(1/A)
     3.2650080     0.0000000    -0.0000000        1.924401199  -0.000000000   0.000000000
     0.0000000     8.1217111    -0.0015807       -0.000000000   0.773628395   0.000639507
    -0.0000000    -0.0026965     3.2620495        0.000000000   0.000374887   1.926146854

                       Lattice parameters(A)       Cell Angles
                    a =      3.265008          alpha =   90.058514
                    b =      8.121711          beta  =   90.000000
                    c =      3.262051          gamma =   90.000000

                Current cell volume =            86.501225 A**3

                           -------------------------------
                                     Cell Contents
                           -------------------------------

            xxxxxxxxxxxxxxxxxxxxxxxxxxxxxxxxxxxxxxxxxxxxxxxxxxxxxxxxxxxxxxxxx
            x  Element         Atom        Fractional coordinates of atoms  x
            x                 Number           u          v          w      x
            x---------------------------------------------------------------x
            x  H                 1        -0.000000   0.042284   0.045715   x
            x  H                 2        -0.000000   0.131823   0.561151   x
            x  H                 3         0.000000   0.200809   0.418791   x
            x  H                 4         0.500000   0.203756   0.066921   x
            x  H                 5         0.500000   0.128010  -0.058521   x
            x  H                 6         0.500000   0.039237   0.442762   x
            x  H                 7         0.500000   0.298603   0.577516   x
            x  H                 8         0.500000   0.368229   0.439747   x
            x  H                 9         0.500000   0.457438   0.954547   x
            x  H                10         0.500000   0.796517   0.931716   x
            x  H                11         0.500000   0.871782   1.060344   x
            x  H                12         0.500000   0.960710   0.557381   x
            x  H                13         0.500000   0.703093   0.421580   x
            x  H                14         0.500000   0.630091   0.561607   x
            x  H                15         0.500000   0.542530   0.045662   x
            x  H                16        -0.000000   0.703201   0.066316   x
            x  H                17         0.000000   0.628601  -0.061069   x
            x  H                18         0.000000   0.539667   0.442780   x
            x  H                19        -0.000000   0.798175   0.580588   x
            x  H                20         0.000000   0.869234   0.438946   x
            x  H                21         0.000000   0.957782   0.954134   x
            x  H                22         0.000000   0.295981   0.932798   x
            x  H                23        -0.000000   0.372118   1.061514   x
            x  H                24        -0.000000   0.460327   0.557073   x
            xxxxxxxxxxxxxxxxxxxxxxxxxxxxxxxxxxxxxxxxxxxxxxxxxxxxxxxxxxxxxxxxx


------------------------------------------------------------------------ <-- SCF
SCF loop      Energy                           Energy gain       Timer   <-- SCF
                                               per atom          (sec)   <-- SCF
------------------------------------------------------------------------ <-- SCF
Initial  -3.73402101E+002                                      33645.73  <-- SCF
      1  -3.73981041E+002                    2.41225022E-002   33703.53  <-- SCF
      2  -3.73983205E+002                    9.01717152E-005   33769.44  <-- SCF
      3  -3.73996233E+002                    5.42833421E-004   33834.02  <-- SCF
      4  -3.73998471E+002                    9.32381339E-005   33897.40  <-- SCF
      5  -3.73998521E+002                    2.07967343E-006   33956.26  <-- SCF
      6  -3.73998525E+002                    1.58130207E-007   34013.62  <-- SCF
      7  -3.73998525E+002                   -1.46388198E-009   34075.29  <-- SCF
      8  -3.73998525E+002                   -9.82444145E-010   34136.25  <-- SCF
