 +-------------------------------------------------+
 |                                                 |
 |      CCC   AA    SSS  TTTTT  EEEEE  PPPP        |
 |     C     A  A  S       T    E      P   P       |
 |     C     AAAA   SS     T    EEE    PPPP        |
 |     C     A  A     S    T    E      P           |
 |      CCC  A  A  SSS     T    EEEEE  P           |
 |                                                 |
 +-------------------------------------------------+
 |                                                 |
 | Welcome to Academic Release CASTEP version 18.1 |          
 | Ab Initio Total Energy Program                  |
 |                                                 |
 | Authors:                                        |
 | M. Segall, M. Probert, C. Pickard, P. Hasnip,   |
 | S. Clark, K. Refson, J. R. Yates, M. Payne      |
 |                                                 |
 | Contributors:                                   |
 | P. Lindan, P. Haynes, J. White, V. Milman,      |
 | N. Govind, M. Gibson, P. Tulip, V. Cocula,      |
 | B. Montanari, D. Quigley, M. Glover,            |
 | L. Bernasconi, A. Perlov, M. Plummer,           |
 | E. McNellis, J. Meyer, J. Gale, D. Jochym       |
 | J. Aarons, B. Walker, R. Gillen, D. Jones       |
 | T. Green, I. J. Bush, C. J. Armstrong,          |
 | E. J. Higgins, E. L. Brown, M. S. McFly,        |
 | J. Wilkins, B-C. Shih, P. J. P. Byrne           |
 |                                                 |
 | Copyright (c) 2000 - 2017                       |
 |                                                 |
 |     Distributed under the terms of an           |
 |     Agreement between the United Kingdom        |
 |     Car-Parrinello (UKCP) Consortium,           |
 |     Daresbury Laboratory and Accelrys, Inc.     |
 |                                                 |
 | Please cite                                     |
 |                                                 |
 |     "First principles methods using CASTEP"     |
 |                                                 |
 |         Zeitschrift fuer Kristallographie       |
 |           220(5-6) pp. 567-570 (2005)           |
 |                                                 |
 | S. J. Clark, M. D. Segall, C. J. Pickard,       |
 | P. J. Hasnip, M. J. Probert, K. Refson,         |
 | M. C. Payne                                     |
 |                                                 |
 |       in all publications arising from          |
 |              your use of CASTEP                 |
 |                                                 |
 +-------------------------------------------------+


 Compiled for linux_x86_64_gfortran4.8 on Thu, 19 Jul 2018 15:42:32 +0100
 from code version 70483bd0ad64+  Sun, 10 Dec 2017 12:18:29 +0000
 Compiler: GNU Fortran 4.8.5; Optimisation: fast
 MATHLIBS: Intel MKL(2018.0.0) (LAPACK version 3.7.0)
 FFT Lib : mkl
 Fundamental constants values: CODATA 2014

 Run started: Tue, 11 Aug 2020 18:40:21 +0100

 Atomic calculation performed for H: 1s1

 Converged in 41 iterations to an ae energy of -12.488 eV

   ============================================================                
   | Pseudopotential Report - Date of generation 11-08-2020   |                
   ------------------------------------------------------------                
   | Element: H Ionic charge:  1.00 Level of theory: PBE      |                
   | Atomic Solver: Koelling-Harmon                           |                
   |                                                          |                
   |               Reference Electronic Structure             |                
   |         Orbital         Occupation         Energy        |                
   |            1s              1.000           -0.239        |                
   |                                                          |                
   |                 Pseudopotential Definition               |                
   |        Beta     l      e      Rc     scheme   norm       |                
   |         loc     0   -0.239   0.702     qc      1         |                
   |                                                          |                
   | No charge augmentation                                   |                
   | No partial core correction                               |                
   ------------------------------------------------------------                
   | "0|0.7|2|6|8|10L(qc=10)"                                 |                
   ------------------------------------------------------------                
   |      Author: Chris J. Pickard, Cambridge University      |                
   ============================================================                

 Pseudo atomic calculation performed for H 1s1

 Converged in 24 iterations to a total energy of -12.4843 eV

 Calculation parallelised over 16 processes.
 Data is distributed by k-point(16-way)

 ************************************ Title ************************************
 

 ***************************** General Parameters ******************************
  
 output verbosity                               : normal  (1)
 write checkpoint data to                       : C2c.check
 type of calculation                            : geometry optimization
 stress calculation                             : on
 density difference calculation                 : off
 electron localisation func (ELF) calculation   : off
 Hirshfeld analysis                             : off
 unlimited duration calculation
 timing information                             : on
 memory usage estimate                          : on
 write extra output files                       : on
 write final potential to formatted file        : off
 write final density to formatted file          : off
 write structure in CELL formatted file         : on
 write BibTeX reference list                    : on
 write OTFG pseudopotential files               : on
 write electrostatic potential file             : on
 write bands file                               : on
 checkpoint writing                             : both castep_bin and check files
  
 output         length unit                     : A
 output           mass unit                     : amu
 output           time unit                     : ps
 output         charge unit                     : e
 output           spin unit                     : hbar/2
 output         energy unit                     : eV
 output          force unit                     : eV/A
 output       velocity unit                     : A/ps
 output       pressure unit                     : GPa
 output     inv_length unit                     : 1/A
 output      frequency unit                     : cm-1
 output force constant unit                     : eV/A**2
 output         volume unit                     : A**3
 output   IR intensity unit                     : (D/A)**2/amu
 output         dipole unit                     : D
 output         efield unit                     : eV/A/e
 output        entropy unit                     : J/mol/K
  
 wavefunctions paging                           : none
 random number generator seed                   : randomised (184021283)
 data distribution                              : optimal for this architecture
 optimization strategy                          : maximize speed(+++)

 *********************** Exchange-Correlation Parameters ***********************
  
 using functional                               : Perdew Burke Ernzerhof
 relativistic treatment                         : Koelling-Harmon
 DFT+D: Semi-empirical dispersion correction    : off

 ************************* Pseudopotential Parameters **************************
  
 pseudopotential representation                 : reciprocal space
 <beta|phi> representation                      : reciprocal space
 spin-orbit coupling                            : off

 **************************** Basis Set Parameters *****************************
  
 plane wave basis set cut-off                   :  1200.0000   eV
 size of standard grid                          :     2.0000
 size of   fine   gmax                          :    35.4943   1/A
 finite basis set correction                    : automatic
 number of sample energies                      :          3
           sample  spacing                      :     5.0000   eV

 **************************** Electronic Parameters ****************************
  
 number of  electrons                           :  24.00    
 net charge of system                           :  0.000    
 treating system as non-spin-polarized
 number of bands                                :         12

 ********************* Electronic Minimization Parameters **********************
  
 Method: Treating system as non-metallic,
         and number of  SD  steps               :          1
         and number of  CG  steps               :          4
  
 total energy / atom convergence tol.           : 0.1000E-10   eV
 eigen-energy convergence tolerance             : 0.2000E-10   eV
 max force / atom convergence tol.              : ignored
 convergence tolerance window                   :          3   cycles
 max. number of SCF cycles                      :        100
 periodic dipole correction                     : NONE

 ************************** Density Mixing Parameters **************************
  
 density-mixing scheme                          : Broyden
 max. length of mixing history                  :         20
 charge density mixing amplitude                : 0.8000    
 cut-off energy for mixing                      :  1200.       eV

 *********************** Population Analysis Parameters ************************
  
 Population analysis with cutoff                :  3.000       A
 Population analysis output                     : summary and pdos components

 ********************** Geometry Optimization Parameters ***********************
  
 optimization method                            : LBFGS
 max. no. of LBFGS updates                      : unbounded
 variable cell method                           : fixed basis quality
 max. number of steps                           :         60
 estimated bulk modulus                         :  500.0       GPa
 estimated <frequency>                          :  1668.       cm-1
 geom line minimiser                            : on
 with line minimiser tolerance                  :     0.4000
 total energy convergence tolerance             : 0.1000E-08   eV/atom
        max ionic |force| tolerance             : 0.1000E-04   eV/A
 max ionic |displacement| tolerance             : 0.1000E-04   A
   max |stress component| tolerance             : 0.1000E-04   GPa
 convergence tolerance window                   :          2   steps
 backup results every                           :      14400   seconds
 write geom trajectory file                     : on

 *******************************************************************************
  

                           -------------------------------
                                      Unit Cell
                           -------------------------------
        Real Lattice(A)                      Reciprocal Lattice(1/A)
     5.4189658     0.0000000    -0.0012799        1.159835389   0.000000000   1.502507302
     0.0000000     3.0947985     0.0000000        0.000000000   2.030240509   0.000000000
    -3.6022831     0.0000000     2.7807222        0.000533835   0.000000000   2.260243171

                       Lattice parameters(A)       Cell Angles
                    a =      5.418966          alpha =   90.000000
                    b =      3.094799          beta  =  142.347787
                    c =      4.550699          gamma =   90.000000

                       Current cell volume =            46.620132       A**3
                                   density =             0.518887   AMU/A**3
                                           =             0.861631     g/cm^3

                           -------------------------------
                                     Cell Contents
                           -------------------------------
                         Total number of ions in cell =   24
                      Total number of species in cell =    1
                        Max number of any one species =   24

            xxxxxxxxxxxxxxxxxxxxxxxxxxxxxxxxxxxxxxxxxxxxxxxxxxxxxxxxxxxx
            x  Element    Atom        Fractional coordinates of atoms  x
            x            Number           u          v          w      x
            x----------------------------------------------------------x
            x  H            1         0.262198  -0.083823   0.256997   x 
            x  H            2         0.344657   0.303569   0.221611   x 
            x  H            3         0.500000   0.101492   0.750000   x 
            x  H            4         0.500000   0.340624   0.750000   x 
            x  H            5         0.737802  -0.083823   0.243003   x 
            x  H            6         0.655343   0.303569   0.278389   x 
            x  H            7         0.762198   0.416177   0.256997   x 
            x  H            8         0.844657   0.803569   0.221611   x 
            x  H            9         0.000000   0.601492   0.750000   x 
            x  H           10         0.000000   0.840624   0.750000   x 
            x  H           11         0.237802   0.416177   0.243003   x 
            x  H           12         0.155343   0.803569   0.278389   x 
            x  H           13         0.237802   0.583823   0.743003   x 
            x  H           14         0.155343   0.196431   0.778389   x 
            x  H           15         0.000000   0.398508   0.250000   x 
            x  H           16         0.000000   0.159376   0.250000   x 
            x  H           17         0.762198   0.583823   0.756997   x 
            x  H           18         0.844657   0.196431   0.721611   x 
            x  H           19         0.737802   1.083823   0.743003   x 
            x  H           20         0.655343   0.696431   0.778389   x 
            x  H           21         0.500000   0.898508   0.250000   x 
            x  H           22         0.500000   0.659376   0.250000   x 
            x  H           23         0.262198   1.083823   0.756997   x 
            x  H           24         0.344657   0.696431   0.721611   x 
            xxxxxxxxxxxxxxxxxxxxxxxxxxxxxxxxxxxxxxxxxxxxxxxxxxxxxxxxxxxx


                         No user defined ionic velocities

                           -------------------------------
                                   Details of Species
                           -------------------------------

                               Mass of species in AMU
                                    H    1.0079400

                          Electric Quadrupole Moment (Barn)
                                    H    0.0028600 Isotope  2

                          Files used for pseudopotentials:
                                    H 0|0.7|2|6|8|10L(qc=10)

                           -------------------------------
                              k-Points For BZ Sampling
                           -------------------------------
                       MP grid size for SCF calculation is 10 10 10
                            with an offset of   0.000  0.000  0.000
                       Number of kpoints used =           250

                           -------------------------------
                               Symmetry and Constraints
                           -------------------------------

                      Cell is a supercell containing 2 primitive cells
                      Maximum deviation from symmetry = 0.326412E-14     ANG

                      Number of symmetry operations   =           8
                      Number of ionic constraints     =           3
                      Point group of crystal =     5: C2h, 2/m, 2/m
                      Space group of crystal =    15: C2/c, -C 2yc

             Set iprint > 1 for details on symmetry rotations/translations

                         Centre of mass is constrained
             Set iprint > 1 for details of linear ionic constraints

                         Number of cell constraints= 2
                         Cell constraints are:  1 2 3 0 5 0

                         External pressure/stress (GPa)
                        120.00000   0.00000   0.00000
                                  120.00000   0.00000
                                            120.00000
  
+---------------- MEMORY AND SCRATCH DISK ESTIMATES PER PROCESS --------------+
|                                                     Memory          Disk    |
| Baseline code, static data and system overhead      413.0 MB         0.0 MB |
| BLAS internal memory storage                          0.0 MB         0.0 MB |
| Model and support data                               52.4 MB         0.0 MB |
| Electronic energy minimisation requirements          49.9 MB         0.0 MB |
| Force calculation requirements                       14.2 MB         0.0 MB |
| Stress calculation requirements                      18.0 MB         0.0 MB |
|                                               ----------------------------- |
| Approx. total storage required per process          515.2 MB         0.0 MB |
|                                                                             |
| Requirements will fluctuate during execution and may exceed these estimates |
+-----------------------------------------------------------------------------+
Calculating finite basis set correction with  3 cut-off energies.
Calculating total energy with cut-off of 1190.000 eV.
------------------------------------------------------------------------ <-- SCF
SCF loop      Energy                           Energy gain       Timer   <-- SCF
                                               per atom          (sec)   <-- SCF
------------------------------------------------------------------------ <-- SCF
Initial   5.72817518E+002                                          2.91  <-- SCF
      1  -2.95538637E+002                    3.61815065E+001       6.86  <-- SCF
      2  -3.56945442E+002                    2.55861690E+000       9.66  <-- SCF
      3  -3.56555220E+002                   -1.62592788E-002      13.52  <-- SCF
      4  -3.56516839E+002                   -1.59918195E-003      17.30  <-- SCF
      5  -3.56517684E+002                    3.52042648E-005      21.17  <-- SCF
      6  -3.56517750E+002                    2.73218806E-006      25.43  <-- SCF
      7  -3.56517750E+002                    5.51836836E-009      29.38  <-- SCF
      8  -3.56517750E+002                    6.44547454E-010      33.38  <-- SCF
      9  -3.56517750E+002                    9.98765983E-012      36.07  <-- SCF
     10  -3.56517750E+002                    8.62012182E-013      38.69  <-- SCF
     11  -3.56517750E+002                    3.82668959E-014      41.55  <-- SCF
------------------------------------------------------------------------ <-- SCF
 
Final energy =  -356.5177498723     eV
(energy not corrected for finite basis set)
 
Calculating total energy with cut-off of 1195.000 eV.
------------------------------------------------------------------------ <-- SCF
SCF loop      Energy                           Energy gain       Timer   <-- SCF
                                               per atom          (sec)   <-- SCF
------------------------------------------------------------------------ <-- SCF
Initial  -3.56517750E+002                                         43.05  <-- SCF
      1  -3.56519608E+002                    7.74321844E-005      46.36  <-- SCF
      2  -3.56519608E+002                    1.29958407E-010      50.27  <-- SCF
      3  -3.56519609E+002                    2.84071120E-008      54.32  <-- SCF
      4  -3.56519609E+002                    1.40253813E-009      58.10  <-- SCF
      5  -3.56519609E+002                    6.68542812E-011      60.85  <-- SCF
      6  -3.56519609E+002                    4.39263684E-012      63.81  <-- SCF
      7  -3.56519609E+002                    8.66040276E-014      66.65  <-- SCF
------------------------------------------------------------------------ <-- SCF
 
Final energy =  -356.5196089650     eV
(energy not corrected for finite basis set)
 
Calculating total energy with cut-off of 1200.000 eV.
------------------------------------------------------------------------ <-- SCF
SCF loop      Energy                           Energy gain       Timer   <-- SCF
                                               per atom          (sec)   <-- SCF
------------------------------------------------------------------------ <-- SCF
Initial  -3.56519609E+002                                         67.97  <-- SCF
      1  -3.56521400E+002                    7.46193096E-005      71.46  <-- SCF
      2  -3.56521400E+002                    1.22830694E-010      75.53  <-- SCF
      3  -3.56521400E+002                    2.72686698E-008      79.83  <-- SCF
      4  -3.56521401E+002                    1.31194629E-009      84.00  <-- SCF
      5  -3.56521401E+002                    6.23992089E-011      87.02  <-- SCF
      6  -3.56521401E+002                    3.89315315E-012      89.88  <-- SCF
      7  -3.56521401E+002                    2.03418762E-013      92.90  <-- SCF
------------------------------------------------------------------------ <-- SCF
 
Final energy =  -356.5214005189     eV
(energy not corrected for finite basis set)
 
 For future reference: finite basis dEtot/dlog(Ecut) =      -0.438095eV
 Total energy corrected for finite basis set =    -356.521397 eV
 
+---------------- MEMORY AND SCRATCH DISK ESTIMATES PER PROCESS --------------+
|                                                     Memory          Disk    |
| Model and support data                               57.7 MB         0.0 MB |
| Electronic energy minimisation requirements          49.9 MB         0.0 MB |
| Geometry minimisation requirements                   65.1 MB         0.0 MB |
|                                               ----------------------------- |
| Approx. total storage required per process          172.7 MB         0.0 MB |
|                                                                             |
| Requirements will fluctuate during execution and may exceed these estimates |
+-----------------------------------------------------------------------------+
 

 ******************************** Symmetrised Forces ********************************
 *                                                                                  *
 *                           Cartesian components (eV/A)                            *
 * -------------------------------------------------------------------------------- *
 *                         x                    y                    z              *
 *                                                                                  *
 * H               1      0.00000              0.00000              0.00000         *
 * H               2      0.00000              0.00000             -0.00000         *
 * H               3      0.00000              0.00000              0.00000         *
 * H               4      0.00000              0.00000              0.00000         *
 * H               5     -0.00000              0.00000             -0.00000         *
 * H               6     -0.00000              0.00000              0.00000         *
 * H               7      0.00000              0.00000              0.00000         *
 * H               8      0.00000              0.00000             -0.00000         *
 * H               9      0.00000              0.00000              0.00000         *
 * H              10      0.00000              0.00000              0.00000         *
 * H              11     -0.00000              0.00000             -0.00000         *
 * H              12     -0.00000              0.00000              0.00000         *
 * H              13     -0.00000             -0.00000             -0.00000         *
 * H              14     -0.00000             -0.00000              0.00000         *
 * H              15      0.00000             -0.00000              0.00000         *
 * H              16      0.00000             -0.00000              0.00000         *
 * H              17      0.00000             -0.00000              0.00000         *
 * H              18      0.00000             -0.00000             -0.00000         *
 * H              19     -0.00000             -0.00000             -0.00000         *
 * H              20     -0.00000             -0.00000              0.00000         *
 * H              21      0.00000             -0.00000              0.00000         *
 * H              22      0.00000             -0.00000              0.00000         *
 * H              23      0.00000             -0.00000              0.00000         *
 * H              24      0.00000             -0.00000             -0.00000         *
 *                                                                                  *
 ************************************************************************************

 *********** Symmetrised Stress Tensor ***********
 *                                               *
 *          Cartesian components (GPa)           *
 * --------------------------------------------- *
 *             x             y             z     *
 *                                               *
 *  x   -149.982576      0.000000     -0.000002  *
 *  y      0.000000   -149.982575      0.000000  *
 *  z     -0.000002      0.000000   -149.982577  *
 *                                               *
 *  Pressure:  149.9826                          *
 *                                               *
 *************************************************
 LBFGS: finished iteration     0 with enthalpy= -3.21603800E+002 eV
  
 +-----------+-----------------+-----------------+------------+-----+ <-- LBFGS
 | Parameter |      value      |    tolerance    |    units   | OK? | <-- LBFGS
 +-----------+-----------------+-----------------+------------+-----+ <-- LBFGS
 |  dE/ion   |   0.000000E+000 |   1.000000E-009 |         eV | No  | <-- LBFGS
 |  |F|max   |   4.468193E-007 |   1.000000E-005 |       eV/A | Yes | <-- LBFGS
 |  |dR|max  |   0.000000E+000 |   1.000000E-005 |          A | No  | <-- LBFGS
 |   Smax    |   2.998258E+001 |   1.000000E-005 |        GPa | No  | <-- LBFGS
 +-----------+-----------------+-----------------+------------+-----+ <-- LBFGS
  

================================================================================
 Starting LBFGS iteration          1 ...
================================================================================
  
 +------------+-------------+-------------+-----------------+ <-- min LBFGS
 |    Step    |   lambda    |   F.delta'  |    enthalpy     | <-- min LBFGS
 +------------+-------------+-------------+-----------------+ <-- min LBFGS
 |  previous  |    0.000000 |    0.555318 |     -321.603800 | <-- min LBFGS
 +------------+-------------+-------------+-----------------+ <-- min LBFGS
  

--------------------------------------------------------------------------------
 LBFGS: starting iteration         1 with trial guess (lambda=  1.000000)
--------------------------------------------------------------------------------
 
+---------------- MEMORY AND SCRATCH DISK ESTIMATES PER PROCESS --------------+
|                                                     Memory          Disk    |
| Model and support data                               59.1 MB         0.0 MB |
| Electronic energy minimisation requirements          52.2 MB         0.0 MB |
| Geometry minimisation requirements                   68.2 MB         0.0 MB |
|                                               ----------------------------- |
| Approx. total storage required per process          179.5 MB         0.0 MB |
|                                                                             |
| Requirements will fluctuate during execution and may exceed these estimates |
+-----------------------------------------------------------------------------+
 

                           -------------------------------
                                      Unit Cell
                           -------------------------------
        Real Lattice(A)              Reciprocal Lattice(1/A)
     5.5272822     0.0000000    -0.0013055        1.137106466   0.000000000   1.473063147
     0.0000000     3.1566585     0.0000000        0.000000000   1.990454540   0.000000000
    -3.6742869     0.0000000     2.8363043        0.000523371   0.000000000   2.215949911

                       Lattice parameters(A)       Cell Angles
                    a =      5.527282          alpha =   90.000000
                    b =      3.156659          beta  =  142.347787
                    c =      4.641660          gamma =   90.000000

                Current cell volume =            49.471966 A**3

                           -------------------------------
                                     Cell Contents
                           -------------------------------

            xxxxxxxxxxxxxxxxxxxxxxxxxxxxxxxxxxxxxxxxxxxxxxxxxxxxxxxxxxxxxxxxx
            x  Element         Atom        Fractional coordinates of atoms  x
            x                 Number           u          v          w      x
            x---------------------------------------------------------------x
            x  H                 1         0.262198  -0.083823   0.256997   x
            x  H                 2         0.344657   0.303569   0.221611   x
            x  H                 3         0.500000   0.101492   0.750000   x
            x  H                 4         0.500000   0.340624   0.750000   x
            x  H                 5         0.737802  -0.083823   0.243003   x
            x  H                 6         0.655343   0.303569   0.278389   x
            x  H                 7         0.762198   0.416177   0.256997   x
            x  H                 8         0.844657   0.803569   0.221611   x
            x  H                 9         0.000000   0.601492   0.750000   x
            x  H                10         0.000000   0.840624   0.750000   x
            x  H                11         0.237802   0.416177   0.243003   x
            x  H                12         0.155343   0.803569   0.278389   x
            x  H                13         0.237802   0.583823   0.743003   x
            x  H                14         0.155343   0.196431   0.778389   x
            x  H                15         0.000000   0.398508   0.250000   x
            x  H                16         0.000000   0.159376   0.250000   x
            x  H                17         0.762198   0.583823   0.756997   x
            x  H                18         0.844657   0.196431   0.721611   x
            x  H                19         0.737802   1.083823   0.743003   x
            x  H                20         0.655343   0.696431   0.778389   x
            x  H                21         0.500000   0.898508   0.250000   x
            x  H                22         0.500000   0.659376   0.250000   x
            x  H                23         0.262198   1.083823   0.756997   x
            x  H                24         0.344657   0.696431   0.721611   x
            xxxxxxxxxxxxxxxxxxxxxxxxxxxxxxxxxxxxxxxxxxxxxxxxxxxxxxxxxxxxxxxxx


------------------------------------------------------------------------ <-- SCF
SCF loop      Energy                           Energy gain       Timer   <-- SCF
                                               per atom          (sec)   <-- SCF
------------------------------------------------------------------------ <-- SCF
Initial  -3.58880532E+002                                         96.17  <-- SCF
      1  -3.58965569E+002                    3.54321187E-003      99.49  <-- SCF
      2  -3.58965833E+002                    1.09960332E-005     103.33  <-- SCF
      3  -3.58964191E+002                   -6.83943264E-005     107.25  <-- SCF
      4  -3.58964159E+002                   -1.33611941E-006     111.30  <-- SCF
      5  -3.58964161E+002                    6.50566192E-008     115.25  <-- SCF
      6  -3.58964161E+002                    5.99378822E-009     119.38  <-- SCF
      7  -3.58964161E+002                    2.11495092E-011     122.21  <-- SCF
      8  -3.58964161E+002                    8.53955993E-013     125.03  <-- SCF
      9  -3.58964161E+002                    2.94050884E-013     127.83  <-- SCF
------------------------------------------------------------------------ <-- SCF
 
Final energy =  -358.9641606879     eV
(energy not corrected for finite basis set)
 

 ******************************** Symmetrised Forces ********************************
 *                                                                                  *
 *                           Cartesian components (eV/A)                            *
 * -------------------------------------------------------------------------------- *
 *                         x                    y                    z              *
 *                                                                                  *
 * H               1     -0.32805             -0.17661              0.03104         *
 * H               2     -0.33408              0.17687              0.02603         *
 * H               3     -0.00000              0.38718              0.00000         *
 * H               4      0.00000             -0.38437              0.00000         *
 * H               5      0.32805             -0.17661             -0.03104         *
 * H               6      0.33408              0.17687             -0.02603         *
 * H               7     -0.32805             -0.17661              0.03104         *
 * H               8     -0.33408              0.17687              0.02603         *
 * H               9      0.00000              0.38718              0.00000         *
 * H              10      0.00000             -0.38437             -0.00000         *
 * H              11      0.32805             -0.17661             -0.03104         *
 * H              12      0.33408              0.17687             -0.02603         *
 * H              13      0.32805              0.17661             -0.03104         *
 * H              14      0.33408             -0.17687             -0.02603         *
 * H              15      0.00000             -0.38718             -0.00000         *
 * H              16     -0.00000              0.38437              0.00000         *
 * H              17     -0.32805              0.17661              0.03104         *
 * H              18     -0.33408             -0.17687              0.02603         *
 * H              19      0.32805              0.17661             -0.03104         *
 * H              20      0.33408             -0.17687             -0.02603         *
 * H              21      0.00000             -0.38718              0.00000         *
 * H              22     -0.00000              0.38437              0.00000         *
 * H              23     -0.32805              0.17661              0.03104         *
 * H              24     -0.33408             -0.17687              0.02603         *
 *                                                                                  *
 ************************************************************************************

 *********** Symmetrised Stress Tensor ***********
 *                                               *
 *          Cartesian components (GPa)           *
 * --------------------------------------------- *
 *             x             y             z     *
 *                                               *
 *  x   -122.937072      0.000000     -0.579792  *
 *  y      0.000000   -123.382577      0.000000  *
 *  z     -0.579792      0.000000   -129.689611  *
 *                                               *
 *  Pressure:  125.3364                          *
 *                                               *
 *************************************************
  
 +------------+-------------+-------------+-----------------+ <-- min LBFGS
 |    Step    |   lambda    |   F.delta'  |    enthalpy     | <-- min LBFGS
 +------------+-------------+-------------+-----------------+ <-- min LBFGS
 |  previous  |    0.000000 |    0.555318 |     -321.603800 | <-- min LBFGS
 | trial step |    1.000000 |    0.102828 |     -321.910557 | <-- min LBFGS
 +------------+-------------+-------------+-----------------+ <-- min LBFGS
  
 LBFGS: finished iteration     1 with enthalpy= -3.21910557E+002 eV
  
 +-----------+-----------------+-----------------+------------+-----+ <-- LBFGS
 | Parameter |      value      |    tolerance    |    units   | OK? | <-- LBFGS
 +-----------+-----------------+-----------------+------------+-----+ <-- LBFGS
 |  dE/ion   |   1.278153E-002 |   1.000000E-009 |         eV | No  | <-- LBFGS
 |  |F|max   |   3.871777E-001 |   1.000000E-005 |       eV/A | No  | <-- LBFGS
 |  |dR|max  |   4.420324E-008 |   1.000000E-005 |          A | Yes | <-- LBFGS
 |   Smax    |   9.689611E+000 |   1.000000E-005 |        GPa | No  | <-- LBFGS
 +-----------+-----------------+-----------------+------------+-----+ <-- LBFGS
  

================================================================================
 Starting LBFGS iteration          2 ...
================================================================================
  
 +------------+-------------+-------------+-----------------+ <-- min LBFGS
 |    Step    |   lambda    |   F.delta'  |    enthalpy     | <-- min LBFGS
 +------------+-------------+-------------+-----------------+ <-- min LBFGS
 |  previous  |    0.000000 |    0.283327 |     -321.910557 | <-- min LBFGS
 +------------+-------------+-------------+-----------------+ <-- min LBFGS
  

--------------------------------------------------------------------------------
 LBFGS: starting iteration         2 with trial guess (lambda=  1.000000)
--------------------------------------------------------------------------------
 
+---------------- MEMORY AND SCRATCH DISK ESTIMATES PER PROCESS --------------+
|                                                     Memory          Disk    |
| Model and support data                               63.0 MB         0.0 MB |
| Electronic energy minimisation requirements          56.5 MB         0.0 MB |
| Geometry minimisation requirements                   73.8 MB         0.0 MB |
|                                               ----------------------------- |
| Approx. total storage required per process          193.3 MB         0.0 MB |
|                                                                             |
| Requirements will fluctuate during execution and may exceed these estimates |
+-----------------------------------------------------------------------------+
 

                           -------------------------------
                                      Unit Cell
                           -------------------------------
        Real Lattice(A)              Reciprocal Lattice(1/A)
     5.6515294     0.0000000     0.0013322        1.111429627   0.000000000   1.432258653
     0.0000000     3.2287907     0.0000000        0.000000000   1.945987185   0.000000000
    -3.7555089     0.0000000     2.9142668       -0.000508075   0.000000000   2.155354212

                       Lattice parameters(A)       Cell Angles
                    a =      5.651530          alpha =   90.000000
                    b =      3.228791          beta  =  142.175108
                    c =      4.753609          gamma =   90.000000

                Current cell volume =            53.194545 A**3

                           -------------------------------
                                     Cell Contents
                           -------------------------------

            xxxxxxxxxxxxxxxxxxxxxxxxxxxxxxxxxxxxxxxxxxxxxxxxxxxxxxxxxxxxxxxxx
            x  Element         Atom        Fractional coordinates of atoms  x
            x                 Number           u          v          w      x
            x---------------------------------------------------------------x
            x  H                 1         0.255747  -0.090751   0.258349   x
            x  H                 2         0.337925   0.310508   0.222745   x
            x  H                 3         0.500000   0.116681   0.750000   x
            x  H                 4         0.500000   0.325545   0.750000   x
            x  H                 5         0.744253  -0.090751   0.241651   x
            x  H                 6         0.662075   0.310508   0.277255   x
            x  H                 7         0.755747   0.409249   0.258349   x
            x  H                 8         0.837925   0.810508   0.222745   x
            x  H                 9        -0.000000   0.616681   0.750000   x
            x  H                10         0.000000   0.825545   0.750000   x
            x  H                11         0.244253   0.409249   0.241651   x
            x  H                12         0.162075   0.810508   0.277255   x
            x  H                13         0.244253   0.590751   0.741651   x
            x  H                14         0.162075   0.189492   0.777255   x
            x  H                15        -0.000000   0.383319   0.250000   x
            x  H                16        -0.000000   0.174455   0.250000   x
            x  H                17         0.755747   0.590751   0.758349   x
            x  H                18         0.837925   0.189492   0.722745   x
            x  H                19         0.744253   1.090751   0.741651   x
            x  H                20         0.662075   0.689492   0.777255   x
            x  H                21         0.500000   0.883319   0.250000   x
            x  H                22         0.500000   0.674455   0.250000   x
            x  H                23         0.255747   1.090751   0.758349   x
            x  H                24         0.337925   0.689492   0.722745   x
            xxxxxxxxxxxxxxxxxxxxxxxxxxxxxxxxxxxxxxxxxxxxxxxxxxxxxxxxxxxxxxxxx


------------------------------------------------------------------------ <-- SCF
SCF loop      Energy                           Energy gain       Timer   <-- SCF
                                               per atom          (sec)   <-- SCF
------------------------------------------------------------------------ <-- SCF
Initial  -3.55130532E+002                                        131.33  <-- SCF
      1  -3.61607640E+002                    2.69879505E-001     135.03  <-- SCF
      2  -3.61641073E+002                    1.39306316E-003     139.62  <-- SCF
      3  -3.60919238E+002                   -3.00764550E-002     144.29  <-- SCF
      4  -3.60897262E+002                   -9.15674351E-004     148.69  <-- SCF
      5  -3.60897299E+002                    1.53271331E-006     153.23  <-- SCF
      6  -3.60897307E+002                    3.50370750E-007     157.95  <-- SCF
      7  -3.60897308E+002                    4.94085443E-009     162.73  <-- SCF
      8  -3.60897308E+002                    1.50471678E-009     167.38  <-- SCF
      9  -3.60897308E+002                    2.66438298E-011     170.65  <-- SCF
     10  -3.60897308E+002                    1.10973998E-012     173.73  <-- SCF
     11  -3.60897308E+002                    4.02809431E-014     177.05  <-- SCF
------------------------------------------------------------------------ <-- SCF
 
Final energy =  -360.8973076196     eV
(energy not corrected for finite basis set)
 

 ******************************** Symmetrised Forces ********************************
 *                                                                                  *
 *                           Cartesian components (eV/A)                            *
 * -------------------------------------------------------------------------------- *
 *                         x                    y                    z              *
 *                                                                                  *
 * H               1      1.86907              1.00332             -0.10611         *
 * H               2      2.17310             -1.14110             -0.28118         *
 * H               3     -0.00000             -2.66212              0.00000         *
 * H               4     -0.00000              2.40244              0.00000         *
 * H               5     -1.86907              1.00332              0.10611         *
 * H               6     -2.17310             -1.14110              0.28118         *
 * H               7      1.86907              1.00332             -0.10611         *
 * H               8      2.17310             -1.14110             -0.28118         *
 * H               9     -0.00000             -2.66212              0.00000         *
 * H              10     -0.00000              2.40244              0.00000         *
 * H              11     -1.86907              1.00332              0.10611         *
 * H              12     -2.17310             -1.14110              0.28118         *
 * H              13     -1.86907             -1.00332              0.10611         *
 * H              14     -2.17310              1.14110              0.28118         *
 * H              15     -0.00000              2.66212              0.00000         *
 * H              16     -0.00000             -2.40244              0.00000         *
 * H              17      1.86907             -1.00332             -0.10611         *
 * H              18      2.17310              1.14110             -0.28118         *
 * H              19     -1.86907             -1.00332              0.10611         *
 * H              20     -2.17310              1.14110              0.28118         *
 * H              21     -0.00000              2.66212              0.00000         *
 * H              22     -0.00000             -2.40244              0.00000         *
 * H              23      1.86907             -1.00332             -0.10611         *
 * H              24      2.17310              1.14110             -0.28118         *
 *                                                                                  *
 ************************************************************************************

 *********** Symmetrised Stress Tensor ***********
 *                                               *
 *          Cartesian components (GPa)           *
 * --------------------------------------------- *
 *             x             y             z     *
 *                                               *
 *  x   -137.162808      0.000000      3.171202  *
 *  y      0.000000   -136.687981      0.000000  *
 *  z      3.171202      0.000000   -104.681361  *
 *                                               *
 *  Pressure:  126.1774                          *
 *                                               *
 *************************************************
  
 +------------+-------------+-------------+-----------------+ <-- min LBFGS
 |    Step    |   lambda    |   F.delta'  |    enthalpy     | <-- min LBFGS
 +------------+-------------+-------------+-----------------+ <-- min LBFGS
 |  previous  |    0.000000 |    0.283327 |     -321.910557 | <-- min LBFGS
 | trial step |    1.000000 |   -1.339749 |     -321.055596 | <-- min LBFGS
 +------------+-------------+-------------+-----------------+ <-- min LBFGS
  

--------------------------------------------------------------------------------
 LBFGS: improving iteration         2 with line minimization (lambda=  0.174562)
--------------------------------------------------------------------------------

                           -------------------------------
                                      Unit Cell
                           -------------------------------
        Real Lattice(A)              Reciprocal Lattice(1/A)
     5.5489710     0.0000000    -0.0008450        1.132538606   0.000000000   1.465773973
     0.0000000     3.1692501     0.0000000        0.000000000   1.982546404   0.000000000
    -3.6884652     0.0000000     2.8499136        0.000335804   0.000000000   2.205127868

                       Lattice parameters(A)       Cell Angles
                    a =      5.548971          alpha =   90.000000
                    b =      3.169250          beta  =  142.317053
                    c =      4.661200          gamma =   90.000000

                Current cell volume =            50.108921 A**3

                           -------------------------------
                                     Cell Contents
                           -------------------------------

            xxxxxxxxxxxxxxxxxxxxxxxxxxxxxxxxxxxxxxxxxxxxxxxxxxxxxxxxxxxxxxxxx
            x  Element         Atom        Fractional coordinates of atoms  x
            x                 Number           u          v          w      x
            x---------------------------------------------------------------x
            x  H                 1         0.261072  -0.085032   0.257233   x
            x  H                 2         0.343482   0.304781   0.221809   x
            x  H                 3         0.500000   0.104144   0.750000   x
            x  H                 4         0.500000   0.337992   0.750000   x
            x  H                 5         0.738928  -0.085032   0.242767   x
            x  H                 6         0.656518   0.304781   0.278191   x
            x  H                 7         0.761072   0.414968   0.257233   x
            x  H                 8         0.843482   0.804781   0.221809   x
            x  H                 9        -0.000000   0.604144   0.750000   x
            x  H                10         0.000000   0.837992   0.750000   x
            x  H                11         0.238928   0.414968   0.242767   x
            x  H                12         0.156518   0.804781   0.278191   x
            x  H                13         0.238928   0.585032   0.742767   x
            x  H                14         0.156518   0.195219   0.778191   x
            x  H                15        -0.000000   0.395856   0.250000   x
            x  H                16        -0.000000   0.162008   0.250000   x
            x  H                17         0.761072   0.585032   0.757233   x
            x  H                18         0.843482   0.195219   0.721809   x
            x  H                19         0.738928   1.085032   0.742767   x
            x  H                20         0.656518   0.695219   0.778191   x
            x  H                21         0.500000   0.895856   0.250000   x
            x  H                22         0.500000   0.662008   0.250000   x
            x  H                23         0.261072   1.085032   0.757233   x
            x  H                24         0.343482   0.695219   0.721809   x
            xxxxxxxxxxxxxxxxxxxxxxxxxxxxxxxxxxxxxxxxxxxxxxxxxxxxxxxxxxxxxxxxx


------------------------------------------------------------------------ <-- SCF
SCF loop      Energy                           Energy gain       Timer   <-- SCF
                                               per atom          (sec)   <-- SCF
------------------------------------------------------------------------ <-- SCF
Initial  -3.55239275E+002                                        180.27  <-- SCF
      1  -3.60017230E+002                    1.99081455E-001     183.69  <-- SCF
      2  -3.60040040E+002                    9.50421361E-004     187.61  <-- SCF
      3  -3.59516762E+002                   -2.18032714E-002     191.68  <-- SCF
      4  -3.59503311E+002                   -5.60445987E-004     195.52  <-- SCF
      5  -3.59503235E+002                   -3.16702386E-006     199.55  <-- SCF
      6  -3.59503237E+002                    6.23620235E-008     203.40  <-- SCF
      7  -3.59503237E+002                    4.12495588E-009     207.53  <-- SCF
      8  -3.59503237E+002                    3.94400784E-010     211.63  <-- SCF
      9  -3.59503237E+002                    1.19030187E-012     214.34  <-- SCF
     10  -3.59503237E+002                   -1.61123772E-013     217.08  <-- SCF
------------------------------------------------------------------------ <-- SCF
 
Final energy =  -359.5032367111     eV
(energy not corrected for finite basis set)
 

 ******************************** Symmetrised Forces ********************************
 *                                                                                  *
 *                           Cartesian components (eV/A)                            *
 * -------------------------------------------------------------------------------- *
 *                         x                    y                    z              *
 *                                                                                  *
 * H               1     -0.06520             -0.03478              0.01957         *
 * H               2     -0.01018              0.00695             -0.02082         *
 * H               3      0.00000             -0.00260             -0.00000         *
 * H               4      0.00000             -0.04801             -0.00000         *
 * H               5      0.06520             -0.03478             -0.01957         *
 * H               6      0.01018              0.00695              0.02082         *
 * H               7     -0.06520             -0.03478              0.01957         *
 * H               8     -0.01018              0.00695             -0.02082         *
 * H               9     -0.00000             -0.00260             -0.00000         *
 * H              10      0.00000             -0.04801             -0.00000         *
 * H              11      0.06520             -0.03478             -0.01957         *
 * H              12      0.01018              0.00695              0.02082         *
 * H              13      0.06520              0.03478             -0.01957         *
 * H              14      0.01018             -0.00695              0.02082         *
 * H              15      0.00000              0.00260             -0.00000         *
 * H              16     -0.00000              0.04801             -0.00000         *
 * H              17     -0.06520              0.03478              0.01957         *
 * H              18     -0.01018             -0.00695             -0.02082         *
 * H              19      0.06520              0.03478             -0.01957         *
 * H              20      0.01018             -0.00695              0.02082         *
 * H              21      0.00000              0.00260             -0.00000         *
 * H              22      0.00000              0.04801             -0.00000         *
 * H              23     -0.06520              0.03478              0.01957         *
 * H              24     -0.01018             -0.00695             -0.02082         *
 *                                                                                  *
 ************************************************************************************

 *********** Symmetrised Stress Tensor ***********
 *                                               *
 *          Cartesian components (GPa)           *
 * --------------------------------------------- *
 *             x             y             z     *
 *                                               *
 *  x   -124.329884      0.000000     -0.016784  *
 *  y      0.000000   -124.601778      0.000000  *
 *  z     -0.016784      0.000000   -125.002223  *
 *                                               *
 *  Pressure:  124.6446                          *
 *                                               *
 *************************************************
  
 +------------+-------------+-------------+-----------------+ <-- min LBFGS
 |    Step    |   lambda    |   F.delta'  |    enthalpy     | <-- min LBFGS
 +------------+-------------+-------------+-----------------+ <-- min LBFGS
 |  previous  |    0.000000 |    0.283327 |     -321.910557 | <-- min LBFGS
 | trial step |    1.000000 |   -1.339749 |     -321.055596 | <-- min LBFGS
 |  line step |    0.174562 |    0.075114 |     -321.972611 | <-- min LBFGS
 +------------+-------------+-------------+-----------------+ <-- min LBFGS
  
 LBFGS: finished iteration     2 with enthalpy= -3.21972611E+002 eV
  
 +-----------+-----------------+-----------------+------------+-----+ <-- LBFGS
 | Parameter |      value      |    tolerance    |    units   | OK? | <-- LBFGS
 +-----------+-----------------+-----------------+------------+-----+ <-- LBFGS
 |  dE/ion   |   2.585604E-003 |   1.000000E-009 |         eV | No  | <-- LBFGS
 |  |F|max   |   7.644752E-002 |   1.000000E-005 |       eV/A | No  | <-- LBFGS
 |  |dR|max  |   8.403092E-003 |   1.000000E-005 |          A | No  | <-- LBFGS
 |   Smax    |   5.002223E+000 |   1.000000E-005 |        GPa | No  | <-- LBFGS
 +-----------+-----------------+-----------------+------------+-----+ <-- LBFGS
  

================================================================================
 Starting LBFGS iteration          3 ...
================================================================================
  
 +------------+-------------+-------------+-----------------+ <-- min LBFGS
 |    Step    |   lambda    |   F.delta'  |    enthalpy     | <-- min LBFGS
 +------------+-------------+-------------+-----------------+ <-- min LBFGS
 |  previous  |    0.000000 |    0.094945 |     -321.972611 | <-- min LBFGS
 +------------+-------------+-------------+-----------------+ <-- min LBFGS
  

--------------------------------------------------------------------------------
 LBFGS: starting iteration         3 with trial guess (lambda=  1.000000)
--------------------------------------------------------------------------------

                           -------------------------------
                                      Unit Cell
                           -------------------------------
        Real Lattice(A)              Reciprocal Lattice(1/A)
     5.5782518     0.0000000    -0.0008694        1.126598909   0.000000000   1.457500748
     0.0000000     3.1867283     0.0000000        0.000000000   1.971672725   0.000000000
    -3.7079384     0.0000000     2.8661113        0.000341723   0.000000000   2.192675659

                       Lattice parameters(A)       Cell Angles
                    a =      5.578252          alpha =   90.000000
                    b =      3.186728          beta  =  142.306116
                    c =      4.686513          gamma =   90.000000

                Current cell volume =            50.938790 A**3

                           -------------------------------
                                     Cell Contents
                           -------------------------------

            xxxxxxxxxxxxxxxxxxxxxxxxxxxxxxxxxxxxxxxxxxxxxxxxxxxxxxxxxxxxxxxxx
            x  Element         Atom        Fractional coordinates of atoms  x
            x                 Number           u          v          w      x
            x---------------------------------------------------------------x
            x  H                 1         0.260323  -0.086288   0.258132   x
            x  H                 2         0.342809   0.304821   0.220753   x
            x  H                 3         0.500000   0.103454   0.750000   x
            x  H                 4         0.500000   0.336467   0.750000   x
            x  H                 5         0.739677  -0.086288   0.241868   x
            x  H                 6         0.657191   0.304821   0.279247   x
            x  H                 7         0.760323   0.413712   0.258132   x
            x  H                 8         0.842809   0.804821   0.220753   x
            x  H                 9        -0.000000   0.603454   0.750000   x
            x  H                10         0.000000   0.836467   0.750000   x
            x  H                11         0.239677   0.413712   0.241868   x
            x  H                12         0.157191   0.804821   0.279247   x
            x  H                13         0.239677   0.586288   0.741868   x
            x  H                14         0.157191   0.195179   0.779247   x
            x  H                15        -0.000000   0.396546   0.250000   x
            x  H                16        -0.000000   0.163533   0.250000   x
            x  H                17         0.760323   0.586288   0.758132   x
            x  H                18         0.842809   0.195179   0.720753   x
            x  H                19         0.739677   1.086288   0.741868   x
            x  H                20         0.657191   0.695179   0.779247   x
            x  H                21         0.500000   0.896546   0.250000   x
            x  H                22         0.500000   0.663533   0.250000   x
            x  H                23         0.260323   1.086288   0.758132   x
            x  H                24         0.342809   0.695179   0.720753   x
            xxxxxxxxxxxxxxxxxxxxxxxxxxxxxxxxxxxxxxxxxxxxxxxxxxxxxxxxxxxxxxxxx


------------------------------------------------------------------------ <-- SCF
SCF loop      Energy                           Energy gain       Timer   <-- SCF
                                               per atom          (sec)   <-- SCF
------------------------------------------------------------------------ <-- SCF
Initial  -3.60071590E+002                                        220.30  <-- SCF
      1  -3.60144644E+002                    3.04391541E-003     224.13  <-- SCF
      2  -3.60144977E+002                    1.38962999E-005     228.55  <-- SCF
      3  -3.60140118E+002                   -2.02439632E-004     233.06  <-- SCF
      4  -3.60140002E+002                   -4.83976910E-006     237.68  <-- SCF
      5  -3.60140003E+002                    2.36854463E-008     242.26  <-- SCF
      6  -3.60140003E+002                    2.78038404E-009     246.90  <-- SCF
      7  -3.60140003E+002                    9.25353964E-011     249.97  <-- SCF
      8  -3.60140003E+002                    5.92734077E-012     253.29  <-- SCF
      9  -3.60140003E+002                   -6.44495089E-014     256.36  <-- SCF
------------------------------------------------------------------------ <-- SCF
 
Final energy =  -360.1400029595     eV
(energy not corrected for finite basis set)
 

 ******************************** Symmetrised Forces ********************************
 *                                                                                  *
 *                           Cartesian components (eV/A)                            *
 * -------------------------------------------------------------------------------- *
 *                         x                    y                    z              *
 *                                                                                  *
 * H               1      0.04364              0.01299             -0.00174         *
 * H               2      0.08583             -0.04731             -0.01338         *
 * H               3      0.00000              0.08616              0.00000         *
 * H               4      0.00000             -0.13051              0.00000         *
 * H               5     -0.04364              0.01299              0.00174         *
 * H               6     -0.08583             -0.04731              0.01338         *
 * H               7      0.04364              0.01299             -0.00174         *
 * H               8      0.08583             -0.04731             -0.01338         *
 * H               9      0.00000              0.08616              0.00000         *
 * H              10     -0.00000             -0.13051              0.00000         *
 * H              11     -0.04364              0.01299              0.00174         *
 * H              12     -0.08583             -0.04731              0.01338         *
 * H              13     -0.04364             -0.01299              0.00174         *
 * H              14     -0.08583              0.04731              0.01338         *
 * H              15      0.00000             -0.08616              0.00000         *
 * H              16      0.00000              0.13051              0.00000         *
 * H              17      0.04364             -0.01299             -0.00174         *
 * H              18      0.08583              0.04731             -0.01338         *
 * H              19     -0.04364             -0.01299              0.00174         *
 * H              20     -0.08583              0.04731              0.01338         *
 * H              21      0.00000             -0.08616              0.00000         *
 * H              22      0.00000              0.13051              0.00000         *
 * H              23      0.04364             -0.01299             -0.00174         *
 * H              24      0.08583              0.04731             -0.01338         *
 *                                                                                  *
 ************************************************************************************

 *********** Symmetrised Stress Tensor ***********
 *                                               *
 *          Cartesian components (GPa)           *
 * --------------------------------------------- *
 *             x             y             z     *
 *                                               *
 *  x   -121.054733      0.000000      0.140685  *
 *  y      0.000000   -119.388074      0.000000  *
 *  z      0.140685      0.000000   -120.042927  *
 *                                               *
 *  Pressure:  120.1619                          *
 *                                               *
 *************************************************
  
 +------------+-------------+-------------+-----------------+ <-- min LBFGS
 |    Step    |   lambda    |   F.delta'  |    enthalpy     | <-- min LBFGS
 +------------+-------------+-------------+-----------------+ <-- min LBFGS
 |  previous  |    0.000000 |    0.094945 |     -321.972611 | <-- min LBFGS
 | trial step |    1.000000 |   -0.000417 |     -321.987810 | <-- min LBFGS
 +------------+-------------+-------------+-----------------+ <-- min LBFGS
  
 LBFGS: finished iteration     3 with enthalpy= -3.21987810E+002 eV
  
 +-----------+-----------------+-----------------+------------+-----+ <-- LBFGS
 | Parameter |      value      |    tolerance    |    units   | OK? | <-- LBFGS
 +-----------+-----------------+-----------------+------------+-----+ <-- LBFGS
 |  dE/ion   |   6.332835E-004 |   1.000000E-009 |         eV | No  | <-- LBFGS
 |  |F|max   |   1.305113E-001 |   1.000000E-005 |       eV/A | No  | <-- LBFGS
 |  |dR|max  |   8.897586E-003 |   1.000000E-005 |          A | No  | <-- LBFGS
 |   Smax    |   1.054733E+000 |   1.000000E-005 |        GPa | No  | <-- LBFGS
 +-----------+-----------------+-----------------+------------+-----+ <-- LBFGS
  

================================================================================
 Starting LBFGS iteration          4 ...
================================================================================
  
 +------------+-------------+-------------+-----------------+ <-- min LBFGS
 |    Step    |   lambda    |   F.delta'  |    enthalpy     | <-- min LBFGS
 +------------+-------------+-------------+-----------------+ <-- min LBFGS
 |  previous  |    0.000000 |    0.048840 |     -321.987810 | <-- min LBFGS
 +------------+-------------+-------------+-----------------+ <-- min LBFGS
  

--------------------------------------------------------------------------------
 LBFGS: starting iteration         4 with trial guess (lambda=  1.000000)
--------------------------------------------------------------------------------

                           -------------------------------
                                      Unit Cell
                           -------------------------------
        Real Lattice(A)              Reciprocal Lattice(1/A)
     5.6004558     0.0000000    -0.0013676        1.122260721   0.000000000   1.452301225
     0.0000000     3.1962708     0.0000000        0.000000000   1.965786256   0.000000000
    -3.7229517     0.0000000     2.8768980        0.000533504   0.000000000   2.184704359

                       Lattice parameters(A)       Cell Angles
                    a =      5.600456          alpha =   90.000000
                    b =      3.196271          beta  =  142.319061
                    c =      4.704988          gamma =   90.000000

                Current cell volume =            51.481849 A**3

                           -------------------------------
                                     Cell Contents
                           -------------------------------

            xxxxxxxxxxxxxxxxxxxxxxxxxxxxxxxxxxxxxxxxxxxxxxxxxxxxxxxxxxxxxxxxx
            x  Element         Atom        Fractional coordinates of atoms  x
            x                 Number           u          v          w      x
            x---------------------------------------------------------------x
            x  H                 1         0.260484  -0.086795   0.258659   x
            x  H                 2         0.343510   0.303466   0.219638   x
            x  H                 3         0.500000   0.106099   0.750000   x
            x  H                 4         0.500000   0.331018   0.750000   x
            x  H                 5         0.739516  -0.086795   0.241341   x
            x  H                 6         0.656490   0.303466   0.280362   x
            x  H                 7         0.760484   0.413205   0.258659   x
            x  H                 8         0.843510   0.803466   0.219638   x
            x  H                 9        -0.000000   0.606099   0.750000   x
            x  H                10         0.000000   0.831018   0.750000   x
            x  H                11         0.239516   0.413205   0.241341   x
            x  H                12         0.156490   0.803466   0.280362   x
            x  H                13         0.239516   0.586795   0.741341   x
            x  H                14         0.156490   0.196534   0.780362   x
            x  H                15        -0.000000   0.393901   0.250000   x
            x  H                16        -0.000000   0.168982   0.250000   x
            x  H                17         0.760484   0.586795   0.758659   x
            x  H                18         0.843510   0.196534   0.719638   x
            x  H                19         0.739516   1.086795   0.741341   x
            x  H                20         0.656490   0.696534   0.780362   x
            x  H                21         0.500000   0.893901   0.250000   x
            x  H                22         0.500000   0.668982   0.250000   x
            x  H                23         0.260484   1.086795   0.758659   x
            x  H                24         0.343510   0.696534   0.719638   x
            xxxxxxxxxxxxxxxxxxxxxxxxxxxxxxxxxxxxxxxxxxxxxxxxxxxxxxxxxxxxxxxxx


------------------------------------------------------------------------ <-- SCF
SCF loop      Energy                           Energy gain       Timer   <-- SCF
                                               per atom          (sec)   <-- SCF
------------------------------------------------------------------------ <-- SCF
Initial  -3.60328795E+002                                        259.99  <-- SCF
      1  -3.60523356E+002                    8.10671718E-003     263.83  <-- SCF
      2  -3.60524036E+002                    2.83235215E-005     268.45  <-- SCF
      3  -3.60504545E+002                   -8.12107355E-004     273.13  <-- SCF
      4  -3.60504422E+002                   -5.14793926E-006     277.62  <-- SCF
      5  -3.60504424E+002                    7.92434868E-008     282.25  <-- SCF
      6  -3.60504424E+002                    5.20786472E-009     286.71  <-- SCF
      7  -3.60504424E+002                    1.74178826E-010     290.17  <-- SCF
      8  -3.60504424E+002                    2.16066979E-011     293.29  <-- SCF
      9  -3.60504424E+002                    2.37657564E-013     296.38  <-- SCF
     10  -3.60504424E+002                   -1.61123772E-014     299.73  <-- SCF
------------------------------------------------------------------------ <-- SCF
 
Final energy =  -360.5044237398     eV
(energy not corrected for finite basis set)
 

 ******************************** Symmetrised Forces ********************************
 *                                                                                  *
 *                           Cartesian components (eV/A)                            *
 * -------------------------------------------------------------------------------- *
 *                         x                    y                    z              *
 *                                                                                  *
 * H               1     -0.29660             -0.13064              0.01485         *
 * H               2     -0.25331              0.13366              0.03551         *
 * H               3     -0.00000             -0.76138              0.00000         *
 * H               4      0.00000              0.75072              0.00000         *
 * H               5      0.29660             -0.13064             -0.01485         *
 * H               6      0.25331              0.13366             -0.03551         *
 * H               7     -0.29660             -0.13064              0.01485         *
 * H               8     -0.25331              0.13366              0.03551         *
 * H               9      0.00000             -0.76138              0.00000         *
 * H              10     -0.00000              0.75072              0.00000         *
 * H              11      0.29660             -0.13064             -0.01485         *
 * H              12      0.25331              0.13366             -0.03551         *
 * H              13      0.29660              0.13064             -0.01485         *
 * H              14      0.25331             -0.13366             -0.03551         *
 * H              15      0.00000              0.76138              0.00000         *
 * H              16      0.00000             -0.75072              0.00000         *
 * H              17     -0.29660              0.13064              0.01485         *
 * H              18     -0.25331             -0.13366              0.03551         *
 * H              19      0.29660              0.13064             -0.01485         *
 * H              20      0.25331             -0.13366             -0.03551         *
 * H              21      0.00000              0.76138              0.00000         *
 * H              22      0.00000             -0.75072              0.00000         *
 * H              23     -0.29660              0.13064              0.01485         *
 * H              24     -0.25331             -0.13366              0.03551         *
 *                                                                                  *
 ************************************************************************************

 *********** Symmetrised Stress Tensor ***********
 *                                               *
 *          Cartesian components (GPa)           *
 * --------------------------------------------- *
 *             x             y             z     *
 *                                               *
 *  x   -112.343657      0.000000     -0.271689  *
 *  y      0.000000   -122.996320      0.000000  *
 *  z     -0.271689      0.000000   -116.749467  *
 *                                               *
 *  Pressure:  117.3631                          *
 *                                               *
 *************************************************
  
 +------------+-------------+-------------+-----------------+ <-- min LBFGS
 |    Step    |   lambda    |   F.delta'  |    enthalpy     | <-- min LBFGS
 +------------+-------------+-------------+-----------------+ <-- min LBFGS
 |  previous  |    0.000000 |    0.048840 |     -321.987810 | <-- min LBFGS
 | trial step |    1.000000 |   -0.263144 |     -321.945508 | <-- min LBFGS
 +------------+-------------+-------------+-----------------+ <-- min LBFGS
  

--------------------------------------------------------------------------------
 LBFGS: improving iteration         4 with line minimization (lambda=  0.156548)
--------------------------------------------------------------------------------

                           -------------------------------
                                      Unit Cell
                           -------------------------------
        Real Lattice(A)              Reciprocal Lattice(1/A)
     5.5817278     0.0000000    -0.0009474        1.125917557   0.000000000   1.456684321
     0.0000000     3.1882222     0.0000000        0.000000000   1.970748884   0.000000000
    -3.7102887     0.0000000     2.8677999        0.000371940   0.000000000   2.191423928

                       Lattice parameters(A)       Cell Angles
                    a =      5.581728          alpha =   90.000000
                    b =      3.188222          beta  =  142.308149
                    c =      4.689405          gamma =   90.000000

                Current cell volume =            51.023553 A**3

                           -------------------------------
                                     Cell Contents
                           -------------------------------

            xxxxxxxxxxxxxxxxxxxxxxxxxxxxxxxxxxxxxxxxxxxxxxxxxxxxxxxxxxxxxxxxx
            x  Element         Atom        Fractional coordinates of atoms  x
            x                 Number           u          v          w      x
            x---------------------------------------------------------------x
            x  H                 1         0.260348  -0.086368   0.258215   x
            x  H                 2         0.342919   0.304609   0.220578   x
            x  H                 3         0.500000   0.103868   0.750000   x
            x  H                 4         0.500000   0.335614   0.750000   x
            x  H                 5         0.739652  -0.086368   0.241785   x
            x  H                 6         0.657081   0.304609   0.279422   x
            x  H                 7         0.760348   0.413632   0.258215   x
            x  H                 8         0.842919   0.804609   0.220578   x
            x  H                 9        -0.000000   0.603868   0.750000   x
            x  H                10         0.000000   0.835614   0.750000   x
            x  H                11         0.239652   0.413632   0.241785   x
            x  H                12         0.157081   0.804609   0.279422   x
            x  H                13         0.239652   0.586368   0.741785   x
            x  H                14         0.157081   0.195391   0.779422   x
            x  H                15        -0.000000   0.396132   0.250000   x
            x  H                16        -0.000000   0.164386   0.250000   x
            x  H                17         0.760348   0.586368   0.758215   x
            x  H                18         0.842919   0.195391   0.720578   x
            x  H                19         0.739652   1.086368   0.741785   x
            x  H                20         0.657081   0.695391   0.779422   x
            x  H                21         0.500000   0.896132   0.250000   x
            x  H                22         0.500000   0.664386   0.250000   x
[...]
      H    18      S                    1.041
      H    19      S                    0.958
      H    20      S                    1.038
      H    21      S                    1.035
      H    22      S                    0.970
      H    23      S                    0.958
      H    24      S                    1.041
  -------------------------------------------
                           Total:      24.000
  -------------------------------------------

     Atomic Populations (Mulliken)
     -----------------------------
Species          Ion     s      p      d      f     Total  Charge (e)
=====================================================================
  H               1     0.96   0.00   0.00   0.00   0.96     0.04
  H               2     1.04   0.00   0.00   0.00   1.04    -0.04
  H               3     1.03   0.00   0.00   0.00   1.03    -0.03
  H               4     0.97   0.00   0.00   0.00   0.97     0.03
  H               5     0.96   0.00   0.00   0.00   0.96     0.04
  H               6     1.04   0.00   0.00   0.00   1.04    -0.04
  H               7     0.96   0.00   0.00   0.00   0.96     0.04
  H               8     1.04   0.00   0.00   0.00   1.04    -0.04
  H               9     1.03   0.00   0.00   0.00   1.03    -0.03
  H              10     0.97   0.00   0.00   0.00   0.97     0.03
  H              11     0.96   0.00   0.00   0.00   0.96     0.04
  H              12     1.04   0.00   0.00   0.00   1.04    -0.04
  H              13     0.96   0.00   0.00   0.00   0.96     0.04
  H              14     1.04   0.00   0.00   0.00   1.04    -0.04
  H              15     1.03   0.00   0.00   0.00   1.03    -0.03
  H              16     0.97   0.00   0.00   0.00   0.97     0.03
  H              17     0.96   0.00   0.00   0.00   0.96     0.04
  H              18     1.04   0.00   0.00   0.00   1.04    -0.04
  H              19     0.96   0.00   0.00   0.00   0.96     0.04
  H              20     1.04   0.00   0.00   0.00   1.04    -0.04
  H              21     1.03   0.00   0.00   0.00   1.03    -0.03
  H              22     0.97   0.00   0.00   0.00   0.97     0.03
  H              23     0.96   0.00   0.00   0.00   0.96     0.04
  H              24     1.04   0.00   0.00   0.00   1.04    -0.04
=====================================================================

                 Bond                   Population      Length (A)
======================================================================
              H 3  -- H 4                    1.56        0.73821
              H 15 -- H 16                   1.56        0.73821
              H 21 -- H 22                   1.56        0.73821
              H 9  -- H 10                   1.56        0.73821
              H 17 -- H 20                   1.55        0.74302
              H 13 -- H 24                   1.55        0.74302
              H 18 -- H 19                   1.55        0.74302
              H 14 -- H 23                   1.55        0.74302
              H 5  -- H 8                    1.55        0.74302
              H 1  -- H 12                   1.55        0.74302
              H 6  -- H 7                    1.55        0.74302
              H 2  -- H 11                   1.55        0.74302
              H 3  -- H 23                   0.05        1.37730
              H 9  -- H 13                   0.05        1.37730
              H 1  -- H 21                   0.05        1.37730
              H 11 -- H 15                   0.05        1.37730
              H 9  -- H 17                   0.05        1.37730
              H 3  -- H 19                   0.05        1.37730
              H 7  -- H 15                   0.05        1.37730
              H 5  -- H 21                   0.05        1.37730
              H 4  -- H 20                  -0.04        1.38939
              H 8  -- H 16                  -0.04        1.38939
              H 4  -- H 24                  -0.04        1.38939
              H 12 -- H 16                  -0.04        1.38939
              H 10 -- H 18                  -0.04        1.38939
              H 6  -- H 22                  -0.04        1.38939
              H 10 -- H 14                  -0.04        1.38939
              H 2  -- H 22                  -0.04        1.38939
              H 1  -- H 2                   -0.14        1.40061
              H 5  -- H 6                   -0.14        1.40061
              H 11 -- H 12                  -0.14        1.40061
              H 7  -- H 8                   -0.14        1.40061
              H 13 -- H 14                  -0.14        1.40061
              H 17 -- H 18                  -0.14        1.40061
              H 23 -- H 24                  -0.14        1.40061
              H 19 -- H 20                  -0.14        1.40061
              H 6  -- H 18                  -0.00        1.44877
              H 2  -- H 14                  -0.00        1.44877
              H 8  -- H 20                  -0.00        1.44877
              H 12 -- H 24                  -0.00        1.44877
              H 9  -- H 18                  -0.17        1.49193
              H 6  -- H 21                  -0.17        1.49193
              H 2  -- H 21                  -0.17        1.49193
              H 9  -- H 14                  -0.17        1.49193
              H 8  -- H 15                  -0.17        1.49193
              H 3  -- H 20                  -0.17        1.49193
              H 3  -- H 24                  -0.17        1.49193
              H 12 -- H 15                  -0.17        1.49193
              H 20 -- H 24                  -0.04        1.51319
              H 14 -- H 18                  -0.04        1.51319
              H 8  -- H 12                  -0.04        1.51319
              H 2  -- H 6                   -0.04        1.51319
              H 16 -- H 23                  -0.01        1.54456
              H 13 -- H 22                  -0.01        1.54456
              H 16 -- H 19                  -0.01        1.54456
              H 17 -- H 22                  -0.01        1.54456
              H 4  -- H 11                  -0.01        1.54456
              H 1  -- H 10                  -0.01        1.54456
              H 5  -- H 10                  -0.01        1.54456
              H 4  -- H 7                   -0.01        1.54456
              H 4  -- H 23                  -0.11        1.57934
              H 10 -- H 13                  -0.11        1.57934
              H 4  -- H 19                  -0.11        1.57934
              H 10 -- H 17                  -0.11        1.57934
              H 1  -- H 22                  -0.11        1.57934
              H 11 -- H 16                  -0.11        1.57934
              H 7  -- H 16                  -0.11        1.57934
              H 5  -- H 22                  -0.11        1.57934
              H 17 -- H 19                  -0.19        1.59564
              H 13 -- H 23                  -0.19        1.59564
              H 5  -- H 7                   -0.19        1.59564
              H 1  -- H 11                  -0.19        1.59564
              H 7  -- H 9                   -0.02        1.60847
              H 9  -- H 11                  -0.02        1.60847
              H 3  -- H 5                   -0.02        1.60847
              H 1  -- H 3                   -0.02        1.60847
              H 19 -- H 21                  -0.02        1.60847
              H 21 -- H 23                  -0.02        1.60847
              H 15 -- H 17                  -0.02        1.60847
              H 13 -- H 15                  -0.02        1.60847
              H 7  -- H 22                  -0.13        1.63114
              H 5  -- H 16                  -0.13        1.63114
              H 11 -- H 22                  -0.13        1.63114
              H 1  -- H 16                  -0.13        1.63114
              H 10 -- H 19                  -0.13        1.63114
              H 4  -- H 17                  -0.13        1.63114
              H 10 -- H 23                  -0.13        1.63114
              H 4  -- H 13                  -0.13        1.63114
              H 6  -- H 23                  -0.14        1.65983
              H 2  -- H 19                  -0.14        1.65983
              H 8  -- H 13                  -0.14        1.65983
              H 12 -- H 17                  -0.14        1.65983
              H 11 -- H 18                  -0.14        1.65983
              H 7  -- H 14                  -0.14        1.65983
              H 5  -- H 24                  -0.14        1.65983
              H 1  -- H 20                  -0.14        1.65983
              H 15 -- H 24                  -0.10        1.66779
              H 15 -- H 20                  -0.10        1.66779
              H 14 -- H 21                  -0.10        1.66779
              H 3  -- H 12                  -0.10        1.66779
              H 18 -- H 21                  -0.10        1.66779
              H 3  -- H 8                   -0.10        1.66779
              H 2  -- H 9                   -0.10        1.66779
              H 6  -- H 9                   -0.10        1.66779
              H 3  -- H 16                  -0.18        1.72551
              H 4  -- H 15                  -0.18        1.72551
              H 10 -- H 21                  -0.18        1.72551
              H 9  -- H 22                  -0.18        1.72551
              H 6  -- H 14                  -0.13        1.74486
              H 2  -- H 18                  -0.13        1.74486
              H 12 -- H 20                  -0.13        1.74486
              H 8  -- H 24                  -0.13        1.74486
              H 11 -- H 17                  -0.11        1.75106
              H 5  -- H 23                  -0.11        1.75106
              H 7  -- H 13                  -0.11        1.75106
              H 1  -- H 19                  -0.11        1.75106
              H 4  -- H 16                  -0.19        1.78890
              H 10 -- H 22                  -0.19        1.78890
              H 7  -- H 24                  -0.10        1.80903
              H 11 -- H 20                  -0.10        1.80903
              H 1  -- H 18                  -0.10        1.80903
              H 5  -- H 14                  -0.10        1.80903
              H 12 -- H 19                  -0.10        1.80903
              H 8  -- H 23                  -0.10        1.80903
              H 6  -- H 13                  -0.10        1.80903
              H 2  -- H 17                  -0.10        1.80903
              H 15 -- H 23                  -0.10        1.81803
              H 15 -- H 19                  -0.10        1.81803
              H 13 -- H 21                  -0.10        1.81803
              H 17 -- H 21                  -0.10        1.81803
              H 3  -- H 11                  -0.10        1.81803
              H 3  -- H 7                   -0.10        1.81803
              H 1  -- H 9                   -0.10        1.81803
              H 5  -- H 9                   -0.10        1.81803
              H 10 -- H 12                  -0.07        1.87020
              H 2  -- H 4                   -0.07        1.87020
              H 4  -- H 6                   -0.07        1.87020
              H 14 -- H 16                  -0.07        1.87020
              H 8  -- H 10                  -0.07        1.87020
              H 22 -- H 24                  -0.07        1.87020
              H 20 -- H 22                  -0.07        1.87020
              H 16 -- H 18                  -0.07        1.87020
              H 6  -- H 19                  -0.09        1.94185
              H 8  -- H 17                  -0.09        1.94185
              H 2  -- H 23                  -0.09        1.94185
              H 7  -- H 18                  -0.09        1.94185
              H 5  -- H 20                  -0.09        1.94185
              H 11 -- H 14                  -0.09        1.94185
              H 12 -- H 13                  -0.09        1.94185
              H 1  -- H 24                  -0.09        1.94185
              H 3  -- H 15                  -0.27        1.96075
              H 9  -- H 21                  -0.27        1.96075
              H 2  -- H 3                   -0.10        1.97707
              H 3  -- H 6                   -0.10        1.97707
              H 14 -- H 15                  -0.10        1.97707
              H 15 -- H 18                  -0.10        1.97707
              H 9  -- H 12                  -0.10        1.97707
              H 21 -- H 24                  -0.10        1.97707
              H 8  -- H 9                   -0.10        1.97707
              H 20 -- H 21                  -0.10        1.97707
              H 11 -- H 19                  -0.21        1.99634
              H 7  -- H 23                  -0.21        1.99634
              H 5  -- H 13                  -0.21        1.99634
              H 1  -- H 17                  -0.21        1.99634
              H 4  -- H 5                   -0.11        2.00550
              H 1  -- H 4                   -0.11        2.00550
              H 7  -- H 10                  -0.11        2.00550
              H 10 -- H 11                  -0.11        2.00550
              H 16 -- H 17                  -0.11        2.00550
              H 13 -- H 16                  -0.11        2.00550
              H 19 -- H 22                  -0.11        2.00550
              H 22 -- H 23                  -0.11        2.00550
              H 14 -- H 22                  -0.18        2.03636
              H 18 -- H 22                  -0.18        2.03636
              H 6  -- H 10                  -0.18        2.03636
              H 2  -- H 10                  -0.18        2.03636
              H 16 -- H 24                  -0.18        2.03636
              H 16 -- H 20                  -0.18        2.03636
              H 4  -- H 12                  -0.18        2.03636
              H 4  -- H 8                   -0.18        2.03636
              H 7  -- H 20                  -0.02        2.04374
              H 11 -- H 24                  -0.02        2.04374
              H 1  -- H 14                  -0.02        2.04374
              H 5  -- H 18                  -0.02        2.04374
              H 12 -- H 23                  -0.02        2.04374
              H 8  -- H 19                  -0.02        2.04374
              H 2  -- H 13                  -0.02        2.04374
              H 6  -- H 17                  -0.02        2.04374
              H 2  -- H 12                  -0.24        2.05029
              H 14 -- H 24                  -0.24        2.05029
              H 6  -- H 8                   -0.24        2.05029
              H 18 -- H 20                  -0.24        2.05029
              H 12 -- H 18                  -0.08        2.05096
              H 8  -- H 14                  -0.08        2.05096
              H 6  -- H 24                  -0.08        2.05096
              H 2  -- H 20                  -0.08        2.05096
              H 12 -- H 21                  -0.11        2.05768
              H 3  -- H 14                  -0.11        2.05768
              H 2  -- H 15                  -0.11        2.05768
              H 9  -- H 24                  -0.11        2.05768
              H 8  -- H 21                  -0.11        2.05768
              H 6  -- H 15                  -0.11        2.05768
              H 9  -- H 20                  -0.11        2.05768
              H 3  -- H 18                  -0.11        2.05768
              H 12 -- H 22                  -0.16        2.07919
              H 4  -- H 14                  -0.16        2.07919
              H 2  -- H 16                  -0.16        2.07919
              H 6  -- H 16                  -0.16        2.07919
              H 10 -- H 24                  -0.16        2.07919
              H 4  -- H 18                  -0.16        2.07919
              H 8  -- H 22                  -0.16        2.07919
              H 10 -- H 20                  -0.16        2.07919
              H 5  -- H 15                  -0.24        2.10183
              H 1  -- H 15                  -0.24        2.10183
              H 7  -- H 21                  -0.24        2.10183
              H 11 -- H 21                  -0.24        2.10183
              H 3  -- H 17                  -0.24        2.10183
              H 3  -- H 13                  -0.24        2.10183
              H 9  -- H 19                  -0.24        2.10183
              H 9  -- H 23                  -0.24        2.10183
              H 17 -- H 24                  -0.06        2.19161
              H 13 -- H 20                  -0.06        2.19161
              H 18 -- H 23                  -0.06        2.19161
              H 14 -- H 19                  -0.06        2.19161
              H 5  -- H 12                  -0.06        2.19161
              H 6  -- H 11                  -0.06        2.19161
              H 2  -- H 7                   -0.06        2.19161
              H 1  -- H 8                   -0.06        2.19161
              H 11 -- H 13                  -0.04        2.41173
              H 5  -- H 19                  -0.04        2.41173
              H 7  -- H 17                  -0.04        2.41173
              H 1  -- H 23                  -0.04        2.41173
              H 9  -- H 15                   0.00        2.42941
              H 3  -- H 21                   0.00        2.42941
              H 1  -- H 6                    0.00        2.47008
              H 8  -- H 11                   0.00        2.47008
              H 2  -- H 5                    0.00        2.47008
              H 13 -- H 18                   0.00        2.47008
              H 7  -- H 12                   0.00        2.47008
              H 20 -- H 23                   0.00        2.47008
              H 14 -- H 17                   0.00        2.47008
              H 19 -- H 24                   0.00        2.47008
              H 5  -- H 17                  -0.07        2.55867
              H 7  -- H 19                  -0.07        2.55867
              H 11 -- H 23                  -0.07        2.55867
              H 1  -- H 13                  -0.07        2.55867
              H 10 -- H 16                   0.02        2.57869
              H 4  -- H 22                   0.02        2.57869
              H 12 -- H 14                   0.02        2.65933
              H 6  -- H 20                   0.02        2.65933
              H 8  -- H 18                   0.02        2.65933
              H 2  -- H 24                   0.02        2.65933
              H 9  -- H 16                   0.02        2.71833
              H 4  -- H 21                   0.02        2.71833
              H 10 -- H 15                   0.02        2.71833
              H 3  -- H 22                   0.02        2.71833
              H 19 -- H 23                  -0.03        2.75368
              H 13 -- H 17                  -0.03        2.75368
              H 1  -- H 5                   -0.03        2.75368
              H 7  -- H 11                  -0.03        2.75368
======================================================================


Writing analysis data to C2c.castep_bin

Writing model to C2c.check
 
 A BibTeX formatted list of references used in this run has been written to 
 C2c.bib
 
Initialisation time =      1.63 s
Calculation time    =   1137.21 s
Finalisation time   =      3.71 s
Total time          =   1142.55 s
Peak Memory Use     = 582044 kB
  
Overall parallel efficiency rating: Excellent (90%)                             
  
Data was distributed by:-
k-point (16-way); efficiency rating: Excellent (90%)                            
