 +-------------------------------------------------+
 |                                                 |
 |      CCC   AA    SSS  TTTTT  EEEEE  PPPP        |
 |     C     A  A  S       T    E      P   P       |
 |     C     AAAA   SS     T    EEE    PPPP        |
 |     C     A  A     S    T    E      P           |
 |      CCC  A  A  SSS     T    EEEEE  P           |
 |                                                 |
 +-------------------------------------------------+
 |                                                 |
 | Welcome to Academic Release CASTEP version 18.1 |          
 | Ab Initio Total Energy Program                  |
 |                                                 |
 | Authors:                                        |
 | M. Segall, M. Probert, C. Pickard, P. Hasnip,   |
 | S. Clark, K. Refson, J. R. Yates, M. Payne      |
 |                                                 |
 | Contributors:                                   |
 | P. Lindan, P. Haynes, J. White, V. Milman,      |
 | N. Govind, M. Gibson, P. Tulip, V. Cocula,      |
 | B. Montanari, D. Quigley, M. Glover,            |
 | L. Bernasconi, A. Perlov, M. Plummer,           |
 | E. McNellis, J. Meyer, J. Gale, D. Jochym       |
 | J. Aarons, B. Walker, R. Gillen, D. Jones       |
 | T. Green, I. J. Bush, C. J. Armstrong,          |
 | E. J. Higgins, E. L. Brown, M. S. McFly,        |
 | J. Wilkins, B-C. Shih, P. J. P. Byrne           |
 |                                                 |
 | Copyright (c) 2000 - 2017                       |
 |                                                 |
 |     Distributed under the terms of an           |
 |     Agreement between the United Kingdom        |
 |     Car-Parrinello (UKCP) Consortium,           |
 |     Daresbury Laboratory and Accelrys, Inc.     |
 |                                                 |
 | Please cite                                     |
 |                                                 |
 |     "First principles methods using CASTEP"     |
 |                                                 |
 |         Zeitschrift fuer Kristallographie       |
 |           220(5-6) pp. 567-570 (2005)           |
 |                                                 |
 | S. J. Clark, M. D. Segall, C. J. Pickard,       |
 | P. J. Hasnip, M. J. Probert, K. Refson,         |
 | M. C. Payne                                     |
 |                                                 |
 |       in all publications arising from          |
 |              your use of CASTEP                 |
 |                                                 |
 +-------------------------------------------------+


 Compiled for linux_x86_64_gfortran4.8 on Thu, 19 Jul 2018 15:42:32 +0100
 from code version 70483bd0ad64+  Sun, 10 Dec 2017 12:18:29 +0000
 Compiler: GNU Fortran 4.8.5; Optimisation: fast
 MATHLIBS: Intel MKL(2018.0.0) (LAPACK version 3.7.0)
 FFT Lib : mkl
 Fundamental constants values: CODATA 2014

 Run started: Tue, 11 Aug 2020 18:59:24 +0100

 Atomic calculation performed for H: 1s1

 Converged in 41 iterations to an ae energy of -12.488 eV

   ============================================================                
   | Pseudopotential Report - Date of generation 11-08-2020   |                
   ------------------------------------------------------------                
   | Element: H Ionic charge:  1.00 Level of theory: PBE      |                
   | Atomic Solver: Koelling-Harmon                           |                
   |                                                          |                
   |               Reference Electronic Structure             |                
   |         Orbital         Occupation         Energy        |                
   |            1s              1.000           -0.239        |                
   |                                                          |                
   |                 Pseudopotential Definition               |                
   |        Beta     l      e      Rc     scheme   norm       |                
   |         loc     0   -0.239   0.702     qc      1         |                
   |                                                          |                
   | No charge augmentation                                   |                
   | No partial core correction                               |                
   ------------------------------------------------------------                
   | "0|0.7|2|6|8|10L(qc=10)"                                 |                
   ------------------------------------------------------------                
   |      Author: Chris J. Pickard, Cambridge University      |                
   ============================================================                

 Pseudo atomic calculation performed for H 1s1

 Converged in 24 iterations to a total energy of -12.4843 eV

 Calculation parallelised over 16 processes.
 Data is distributed by k-point(16-way)

 ************************************ Title ************************************
 

 ***************************** General Parameters ******************************
  
 output verbosity                               : normal  (1)
 write checkpoint data to                       : C2c.check
 type of calculation                            : geometry optimization
 stress calculation                             : on
 density difference calculation                 : off
 electron localisation func (ELF) calculation   : off
 Hirshfeld analysis                             : off
 unlimited duration calculation
 timing information                             : on
 memory usage estimate                          : on
 write extra output files                       : on
 write final potential to formatted file        : off
 write final density to formatted file          : off
 write structure in CELL formatted file         : on
 write BibTeX reference list                    : on
 write OTFG pseudopotential files               : on
 write electrostatic potential file             : on
 write bands file                               : on
 checkpoint writing                             : both castep_bin and check files
  
 output         length unit                     : A
 output           mass unit                     : amu
 output           time unit                     : ps
 output         charge unit                     : e
 output           spin unit                     : hbar/2
 output         energy unit                     : eV
 output          force unit                     : eV/A
 output       velocity unit                     : A/ps
 output       pressure unit                     : GPa
 output     inv_length unit                     : 1/A
 output      frequency unit                     : cm-1
 output force constant unit                     : eV/A**2
 output         volume unit                     : A**3
 output   IR intensity unit                     : (D/A)**2/amu
 output         dipole unit                     : D
 output         efield unit                     : eV/A/e
 output        entropy unit                     : J/mol/K
  
 wavefunctions paging                           : none
 random number generator seed                   : randomised (185924297)
 data distribution                              : optimal for this architecture
 optimization strategy                          : maximize speed(+++)

 *********************** Exchange-Correlation Parameters ***********************
  
 using functional                               : Perdew Burke Ernzerhof
 relativistic treatment                         : Koelling-Harmon
 DFT+D: Semi-empirical dispersion correction    : off

 ************************* Pseudopotential Parameters **************************
  
 pseudopotential representation                 : reciprocal space
 <beta|phi> representation                      : reciprocal space
 spin-orbit coupling                            : off

 **************************** Basis Set Parameters *****************************
  
 plane wave basis set cut-off                   :  1200.0000   eV
 size of standard grid                          :     2.0000
 size of   fine   gmax                          :    35.4943   1/A
 finite basis set correction                    : automatic
 number of sample energies                      :          3
           sample  spacing                      :     5.0000   eV

 **************************** Electronic Parameters ****************************
  
 number of  electrons                           :  24.00    
 net charge of system                           :  0.000    
 treating system as non-spin-polarized
 number of bands                                :         12

 ********************* Electronic Minimization Parameters **********************
  
 Method: Treating system as non-metallic,
         and number of  SD  steps               :          1
         and number of  CG  steps               :          4
  
 total energy / atom convergence tol.           : 0.1000E-10   eV
 eigen-energy convergence tolerance             : 0.2000E-10   eV
 max force / atom convergence tol.              : ignored
 convergence tolerance window                   :          3   cycles
 max. number of SCF cycles                      :        100
 periodic dipole correction                     : NONE

 ************************** Density Mixing Parameters **************************
  
 density-mixing scheme                          : Broyden
 max. length of mixing history                  :         20
 charge density mixing amplitude                : 0.8000    
 cut-off energy for mixing                      :  1200.       eV

 *********************** Population Analysis Parameters ************************
  
 Population analysis with cutoff                :  3.000       A
 Population analysis output                     : summary and pdos components

 ********************** Geometry Optimization Parameters ***********************
  
 optimization method                            : LBFGS
 max. no. of LBFGS updates                      : unbounded
 variable cell method                           : fixed basis quality
 max. number of steps                           :         60
 estimated bulk modulus                         :  500.0       GPa
 estimated <frequency>                          :  1668.       cm-1
 geom line minimiser                            : on
 with line minimiser tolerance                  :     0.4000
 total energy convergence tolerance             : 0.1000E-08   eV/atom
        max ionic |force| tolerance             : 0.1000E-04   eV/A
 max ionic |displacement| tolerance             : 0.1000E-04   A
   max |stress component| tolerance             : 0.1000E-04   GPa
 convergence tolerance window                   :          2   steps
 backup results every                           :      14400   seconds
 write geom trajectory file                     : on

 *******************************************************************************
  

                           -------------------------------
                                      Unit Cell
                           -------------------------------
        Real Lattice(A)                      Reciprocal Lattice(1/A)
     5.5719178     0.0000000    -0.0032327        1.128496626   0.000000000   1.455463177
     0.0000000     3.1893802     0.0000000        0.000000000   1.970033324   0.000000000
    -3.7049390     0.0000000     2.8726327        0.001269950   0.000000000   2.188894657

                       Lattice parameters(A)       Cell Angles
                    a =      5.571919          alpha =   90.000000
                    b =      3.189380          beta  =  142.244951
                    c =      4.688133          gamma =   90.000000

                       Current cell volume =            51.011254       A**3
                                   density =             0.474220   AMU/A**3
                                           =             0.787461     g/cm^3

                           -------------------------------
                                     Cell Contents
                           -------------------------------
                         Total number of ions in cell =   24
                      Total number of species in cell =    1
                        Max number of any one species =   24

            xxxxxxxxxxxxxxxxxxxxxxxxxxxxxxxxxxxxxxxxxxxxxxxxxxxxxxxxxxxx
            x  Element    Atom        Fractional coordinates of atoms  x
            x            Number           u          v          w      x
            x----------------------------------------------------------x
            x  H            1         0.258075  -0.088929   0.257736   x 
            x  H            2         0.347657   0.303107   0.224126   x 
            x  H            3         0.500000   0.100060   0.750000   x 
            x  H            4         0.500000   0.331519   0.750000   x 
            x  H            5         0.741925  -0.088929   0.242264   x 
            x  H            6         0.652343   0.303107   0.275874   x 
            x  H            7         0.758075   0.411071   0.257736   x 
            x  H            8         0.847657   0.803107   0.224126   x 
            x  H            9        -0.000000   0.600060   0.750000   x 
            x  H           10         0.000000   0.831519   0.750000   x 
            x  H           11         0.241925   0.411071   0.242264   x 
            x  H           12         0.152343   0.803107   0.275874   x 
            x  H           13         0.241925   0.588929   0.742264   x 
            x  H           14         0.152343   0.196893   0.775874   x 
            x  H           15        -0.000000   0.399940   0.250000   x 
            x  H           16        -0.000000   0.168481   0.250000   x 
            x  H           17         0.758075   0.588929   0.757736   x 
            x  H           18         0.847657   0.196893   0.724126   x 
            x  H           19         0.741925   1.088929   0.742264   x 
            x  H           20         0.652343   0.696893   0.775874   x 
            x  H           21         0.500000   0.899940   0.250000   x 
            x  H           22         0.500000   0.668481   0.250000   x 
            x  H           23         0.258075   1.088929   0.757736   x 
            x  H           24         0.347657   0.696893   0.724126   x 
            xxxxxxxxxxxxxxxxxxxxxxxxxxxxxxxxxxxxxxxxxxxxxxxxxxxxxxxxxxxx


                         No user defined ionic velocities

                           -------------------------------
                                   Details of Species
                           -------------------------------

                               Mass of species in AMU
                                    H    1.0079400

                          Electric Quadrupole Moment (Barn)
                                    H    0.0028600 Isotope  2

                          Files used for pseudopotentials:
                                    H 0|0.7|2|6|8|10L(qc=10)

                           -------------------------------
                              k-Points For BZ Sampling
                           -------------------------------
                       MP grid size for SCF calculation is 10 10 10
                            with an offset of   0.000  0.000  0.000
                       Number of kpoints used =           250

                           -------------------------------
                               Symmetry and Constraints
                           -------------------------------

                      Cell is a supercell containing 2 primitive cells
                      Maximum deviation from symmetry = 0.639174E-14     ANG

                      Number of symmetry operations   =           8
                      Number of ionic constraints     =           3
                      Point group of crystal =     5: C2h, 2/m, 2/m
                      Space group of crystal =    15: C2/c, -C 2yc

             Set iprint > 1 for details on symmetry rotations/translations

                         Centre of mass is constrained
             Set iprint > 1 for details of linear ionic constraints

                         Number of cell constraints= 2
                         Cell constraints are:  1 2 3 0 5 0

                         External pressure/stress (GPa)
                         90.00000   0.00000   0.00000
                                   90.00000   0.00000
                                             90.00000
  
+---------------- MEMORY AND SCRATCH DISK ESTIMATES PER PROCESS --------------+
|                                                     Memory          Disk    |
| Baseline code, static data and system overhead      413.0 MB         0.0 MB |
| BLAS internal memory storage                          0.0 MB         0.0 MB |
| Model and support data                               57.3 MB         0.0 MB |
| Electronic energy minimisation requirements          54.7 MB         0.0 MB |
| Force calculation requirements                       15.8 MB         0.0 MB |
| Stress calculation requirements                      20.0 MB         0.0 MB |
|                                               ----------------------------- |
| Approx. total storage required per process          525.0 MB         0.0 MB |
|                                                                             |
| Requirements will fluctuate during execution and may exceed these estimates |
+-----------------------------------------------------------------------------+
Calculating finite basis set correction with  3 cut-off energies.
Calculating total energy with cut-off of 1190.000 eV.
------------------------------------------------------------------------ <-- SCF
SCF loop      Energy                           Energy gain       Timer   <-- SCF
                                               per atom          (sec)   <-- SCF
------------------------------------------------------------------------ <-- SCF
Initial   5.84239322E+002                                          3.21  <-- SCF
      1  -2.97762283E+002                    3.67500669E+001       7.52  <-- SCF
      2  -3.60729473E+002                    2.62363290E+000      10.25  <-- SCF
      3  -3.60243242E+002                   -2.02596421E-002      14.39  <-- SCF
      4  -3.60194677E+002                   -2.02352401E-003      18.42  <-- SCF
      5  -3.60195779E+002                    4.59173926E-005      22.47  <-- SCF
      6  -3.60195871E+002                    3.84549624E-006      26.54  <-- SCF
      7  -3.60195872E+002                    1.29196372E-008      30.46  <-- SCF
      8  -3.60195872E+002                    6.60128123E-010      34.41  <-- SCF
      9  -3.60195872E+002                    1.40479789E-011      37.30  <-- SCF
     10  -3.60195872E+002                    1.09161356E-012      40.25  <-- SCF
     11  -3.60195872E+002                    5.61919156E-013      43.03  <-- SCF
------------------------------------------------------------------------ <-- SCF
 
Final energy =  -360.1958717881     eV
(energy not corrected for finite basis set)
 
Calculating total energy with cut-off of 1195.000 eV.
------------------------------------------------------------------------ <-- SCF
SCF loop      Energy                           Energy gain       Timer   <-- SCF
                                               per atom          (sec)   <-- SCF
------------------------------------------------------------------------ <-- SCF
Initial  -3.60195872E+002                                         44.55  <-- SCF
      1  -3.60197729E+002                    7.73671327E-005      47.83  <-- SCF
      2  -3.60197729E+002                    1.17628410E-010      51.82  <-- SCF
      3  -3.60197729E+002                    3.05014914E-008      55.82  <-- SCF
      4  -3.60197729E+002                    1.43614653E-009      59.82  <-- SCF
      5  -3.60197729E+002                    4.49233217E-011      62.55  <-- SCF
      6  -3.60197729E+002                    3.73001533E-012      65.30  <-- SCF
      7  -3.60197729E+002                   -3.68570629E-013      68.11  <-- SCF
------------------------------------------------------------------------ <-- SCF
 
Final energy =  -360.1977293698     eV
(energy not corrected for finite basis set)
 
Calculating total energy with cut-off of 1200.000 eV.
------------------------------------------------------------------------ <-- SCF
SCF loop      Energy                           Energy gain       Timer   <-- SCF
                                               per atom          (sec)   <-- SCF
------------------------------------------------------------------------ <-- SCF
Initial  -3.60197729E+002                                         69.55  <-- SCF
      1  -3.60199500E+002                    7.37884936E-005      73.27  <-- SCF
      2  -3.60199500E+002                    1.13479473E-010      77.71  <-- SCF
      3  -3.60199501E+002                    2.86251124E-008      82.22  <-- SCF
      4  -3.60199501E+002                    1.32814325E-009      86.72  <-- SCF
      5  -3.60199501E+002                    4.19747567E-011      90.02  <-- SCF
      6  -3.60199501E+002                    2.69076700E-012      93.25  <-- SCF
      7  -3.60199501E+002                    4.31006091E-013      96.35  <-- SCF
------------------------------------------------------------------------ <-- SCF
 
Final energy =  -360.1995010163     eV
(energy not corrected for finite basis set)
 
 For future reference: finite basis dEtot/dlog(Ecut) =      -0.433332eV
 Total energy corrected for finite basis set =    -360.199484 eV
 
+---------------- MEMORY AND SCRATCH DISK ESTIMATES PER PROCESS --------------+
|                                                     Memory          Disk    |
| Model and support data                               62.0 MB         0.0 MB |
| Electronic energy minimisation requirements          54.7 MB         0.0 MB |
| Geometry minimisation requirements                   71.4 MB         0.0 MB |
|                                               ----------------------------- |
| Approx. total storage required per process          188.1 MB         0.0 MB |
|                                                                             |
| Requirements will fluctuate during execution and may exceed these estimates |
+-----------------------------------------------------------------------------+
 

 ******************************** Symmetrised Forces ********************************
 *                                                                                  *
 *                           Cartesian components (eV/A)                            *
 * -------------------------------------------------------------------------------- *
 *                         x                    y                    z              *
 *                                                                                  *
 * H               1     -0.00000              0.00000             -0.00000         *
 * H               2     -0.00000             -0.00000             -0.00000         *
 * H               3      0.00000             -0.00000              0.00000         *
 * H               4      0.00000              0.00000              0.00000         *
 * H               5      0.00000              0.00000              0.00000         *
 * H               6      0.00000             -0.00000              0.00000         *
 * H               7     -0.00000              0.00000             -0.00000         *
 * H               8     -0.00000             -0.00000             -0.00000         *
 * H               9      0.00000             -0.00000              0.00000         *
 * H              10      0.00000              0.00000              0.00000         *
 * H              11      0.00000              0.00000              0.00000         *
 * H              12      0.00000             -0.00000              0.00000         *
 * H              13      0.00000             -0.00000              0.00000         *
 * H              14      0.00000              0.00000              0.00000         *
 * H              15     -0.00000              0.00000              0.00000         *
 * H              16      0.00000             -0.00000              0.00000         *
 * H              17     -0.00000             -0.00000             -0.00000         *
 * H              18     -0.00000              0.00000             -0.00000         *
 * H              19      0.00000             -0.00000              0.00000         *
 * H              20      0.00000              0.00000              0.00000         *
 * H              21      0.00000              0.00000              0.00000         *
 * H              22      0.00000             -0.00000              0.00000         *
 * H              23     -0.00000             -0.00000             -0.00000         *
 * H              24     -0.00000              0.00000             -0.00000         *
 *                                                                                  *
 ************************************************************************************

 *********** Symmetrised Stress Tensor ***********
 *                                               *
 *          Cartesian components (GPa)           *
 * --------------------------------------------- *
 *             x             y             z     *
 *                                               *
 *  x   -119.990028      0.000000     -0.000008  *
 *  y      0.000000   -119.990032      0.000000  *
 *  z     -0.000008      0.000000   -119.990031  *
 *                                               *
 *  Pressure:  119.9900                          *
 *                                               *
 *************************************************
 LBFGS: finished iteration     0 with enthalpy= -3.31544635E+002 eV
  
 +-----------+-----------------+-----------------+------------+-----+ <-- LBFGS
 | Parameter |      value      |    tolerance    |    units   | OK? | <-- LBFGS
 +-----------+-----------------+-----------------+------------+-----+ <-- LBFGS
 |  dE/ion   |   0.000000E+000 |   1.000000E-009 |         eV | No  | <-- LBFGS
 |  |F|max   |   4.069334E-007 |   1.000000E-005 |       eV/A | Yes | <-- LBFGS
 |  |dR|max  |   0.000000E+000 |   1.000000E-005 |          A | No  | <-- LBFGS
 |   Smax    |   2.999003E+001 |   1.000000E-005 |        GPa | No  | <-- LBFGS
 +-----------+-----------------+-----------------+------------+-----+ <-- LBFGS
  

================================================================================
 Starting LBFGS iteration          1 ...
================================================================================
  
 +------------+-------------+-------------+-----------------+ <-- min LBFGS
 |    Step    |   lambda    |   F.delta'  |    enthalpy     | <-- min LBFGS
 +------------+-------------+-------------+-----------------+ <-- min LBFGS
 |  previous  |    0.000000 |    0.607775 |     -331.544635 | <-- min LBFGS
 +------------+-------------+-------------+-----------------+ <-- min LBFGS
  

--------------------------------------------------------------------------------
 LBFGS: starting iteration         1 with trial guess (lambda=  1.000000)
--------------------------------------------------------------------------------
 
+---------------- MEMORY AND SCRATCH DISK ESTIMATES PER PROCESS --------------+
|                                                     Memory          Disk    |
| Model and support data                               68.9 MB         0.0 MB |
| Electronic energy minimisation requirements          60.5 MB         0.0 MB |
| Geometry minimisation requirements                   78.6 MB         0.0 MB |
|                                               ----------------------------- |
| Approx. total storage required per process          207.9 MB         0.0 MB |
|                                                                             |
| Requirements will fluctuate during execution and may exceed these estimates |
+-----------------------------------------------------------------------------+
 

                           -------------------------------
                                      Unit Cell
                           -------------------------------
        Real Lattice(A)              Reciprocal Lattice(1/A)
     5.6833191     0.0000000    -0.0032973        1.106376445   0.000000000   1.426933975
     0.0000000     3.2531466     0.0000000        0.000000000   1.931417803   0.000000000
    -3.7790131     0.0000000     2.9300663        0.001245045   0.000000000   2.145989136

                       Lattice parameters(A)       Cell Angles
                    a =      5.683320          alpha =   90.000000
                    b =      3.253147          beta  =  142.244951
                    c =      4.781865          gamma =   90.000000

                Current cell volume =            54.132493 A**3

                           -------------------------------
                                     Cell Contents
                           -------------------------------

            xxxxxxxxxxxxxxxxxxxxxxxxxxxxxxxxxxxxxxxxxxxxxxxxxxxxxxxxxxxxxxxxx
            x  Element         Atom        Fractional coordinates of atoms  x
            x                 Number           u          v          w      x
            x---------------------------------------------------------------x
            x  H                 1         0.258075  -0.088929   0.257736   x
            x  H                 2         0.347657   0.303107   0.224126   x
            x  H                 3         0.500000   0.100060   0.750000   x
            x  H                 4         0.500000   0.331519   0.750000   x
            x  H                 5         0.741925  -0.088929   0.242264   x
            x  H                 6         0.652343   0.303107   0.275874   x
            x  H                 7         0.758075   0.411071   0.257736   x
            x  H                 8         0.847657   0.803107   0.224126   x
            x  H                 9         0.000000   0.600060   0.750000   x
            x  H                10         0.000000   0.831519   0.750000   x
            x  H                11         0.241925   0.411071   0.242264   x
            x  H                12         0.152343   0.803107   0.275874   x
            x  H                13         0.241925   0.588929   0.742264   x
            x  H                14         0.152343   0.196893   0.775874   x
            x  H                15         0.000000   0.399940   0.250000   x
            x  H                16         0.000000   0.168481   0.250000   x
            x  H                17         0.758075   0.588929   0.757736   x
            x  H                18         0.847657   0.196893   0.724126   x
            x  H                19         0.741925   1.088929   0.742264   x
            x  H                20         0.652343   0.696893   0.775874   x
            x  H                21         0.500000   0.899940   0.250000   x
            x  H                22         0.500000   0.668481   0.250000   x
            x  H                23         0.258075   1.088929   0.757736   x
            x  H                24         0.347657   0.696893   0.724126   x
            xxxxxxxxxxxxxxxxxxxxxxxxxxxxxxxxxxxxxxxxxxxxxxxxxxxxxxxxxxxxxxxxx


------------------------------------------------------------------------ <-- SCF
SCF loop      Energy                           Energy gain       Timer   <-- SCF
                                               per atom          (sec)   <-- SCF
------------------------------------------------------------------------ <-- SCF
Initial  -3.62244370E+002                                        100.08  <-- SCF
      1  -3.62332448E+002                    3.66995187E-003     104.78  <-- SCF
      2  -3.62332720E+002                    1.13224191E-005     110.45  <-- SCF
      3  -3.62330413E+002                   -9.61176958E-005     116.01  <-- SCF
      4  -3.62330359E+002                   -2.25238809E-006     121.49  <-- SCF
      5  -3.62330361E+002                    9.34387208E-008     127.00  <-- SCF
      6  -3.62330362E+002                    8.68723591E-009     132.95  <-- SCF
      7  -3.62330362E+002                    3.11432111E-011     136.83  <-- SCF
      8  -3.62330362E+002                    1.92744313E-012     140.77  <-- SCF
      9  -3.62330362E+002                   -1.51053536E-013     144.59  <-- SCF
------------------------------------------------------------------------ <-- SCF
 
Final energy =  -362.3303616691     eV
(energy not corrected for finite basis set)
 

 ******************************** Symmetrised Forces ********************************
 *                                                                                  *
 *                           Cartesian components (eV/A)                            *
 * -------------------------------------------------------------------------------- *
 *                         x                    y                    z              *
 *                                                                                  *
 * H               1     -0.34832             -0.18511              0.02969         *
 * H               2     -0.34970              0.18337              0.02401         *
 * H               3     -0.00000              0.40234              0.00000         *
 * H               4     -0.00000             -0.40348              0.00000         *
 * H               5      0.34832             -0.18511             -0.02969         *
 * H               6      0.34970              0.18337             -0.02401         *
 * H               7     -0.34832             -0.18511              0.02969         *
 * H               8     -0.34970              0.18337              0.02401         *
 * H               9     -0.00000              0.40234             -0.00000         *
 * H              10     -0.00000             -0.40348              0.00000         *
 * H              11      0.34832             -0.18511             -0.02969         *
 * H              12      0.34970              0.18337             -0.02401         *
 * H              13      0.34832              0.18511             -0.02969         *
 * H              14      0.34970             -0.18337             -0.02401         *
 * H              15     -0.00000             -0.40234             -0.00000         *
 * H              16     -0.00000              0.40348              0.00000         *
 * H              17     -0.34832              0.18511              0.02969         *
 * H              18     -0.34970             -0.18337              0.02401         *
 * H              19      0.34832              0.18511             -0.02969         *
 * H              20      0.34970             -0.18337             -0.02401         *
 * H              21     -0.00000             -0.40234             -0.00000         *
 * H              22     -0.00000              0.40348              0.00000         *
 * H              23     -0.34832              0.18511              0.02969         *
 * H              24     -0.34970             -0.18337              0.02401         *
 *                                                                                  *
 ************************************************************************************

 *********** Symmetrised Stress Tensor ***********
 *                                               *
 *          Cartesian components (GPa)           *
 * --------------------------------------------- *
 *             x             y             z     *
 *                                               *
 *  x    -97.242716      0.000000     -0.483986  *
 *  y      0.000000    -97.749583      0.000000  *
 *  z     -0.483986      0.000000   -103.577438  *
 *                                               *
 *  Pressure:   99.5232                          *
 *                                               *
 *************************************************
  
 +------------+-------------+-------------+-----------------+ <-- min LBFGS
 |    Step    |   lambda    |   F.delta'  |    enthalpy     | <-- min LBFGS
 +------------+-------------+-------------+-----------------+ <-- min LBFGS
 |  previous  |    0.000000 |    0.607775 |     -331.544635 | <-- min LBFGS
 | trial step |    1.000000 |    0.200791 |     -331.922183 | <-- min LBFGS
 +------------+-------------+-------------+-----------------+ <-- min LBFGS
  

--------------------------------------------------------------------------------
 LBFGS: improving iteration         1 with line minimization (lambda=  1.493365)
--------------------------------------------------------------------------------
 
+---------------- MEMORY AND SCRATCH DISK ESTIMATES PER PROCESS --------------+
|                                                     Memory          Disk    |
| Model and support data                               69.6 MB         0.0 MB |
| Electronic energy minimisation requirements          61.8 MB         0.0 MB |
| Geometry minimisation requirements                   80.3 MB         0.0 MB |
|                                               ----------------------------- |
| Approx. total storage required per process          211.7 MB         0.0 MB |
|                                                                             |
| Requirements will fluctuate during execution and may exceed these estimates |
+-----------------------------------------------------------------------------+
 

                           -------------------------------
                                      Unit Cell
                           -------------------------------
        Real Lattice(A)              Reciprocal Lattice(1/A)
     5.7382806     0.0000000    -0.0033292        1.095779513   0.000000000   1.413266727
     0.0000000     3.2846068     0.0000000        0.000000000   1.912918587   0.000000000
    -3.8155587     0.0000000     2.9584020        0.001233115   0.000000000   2.125434746

                       Lattice parameters(A)       Cell Angles
                    a =      5.738282          alpha =   90.000000
                    b =      3.284607          beta  =  142.244951
                    c =      4.828108          gamma =   90.000000

                Current cell volume =            55.718223 A**3

                           -------------------------------
                                     Cell Contents
                           -------------------------------

            xxxxxxxxxxxxxxxxxxxxxxxxxxxxxxxxxxxxxxxxxxxxxxxxxxxxxxxxxxxxxxxxx
            x  Element         Atom        Fractional coordinates of atoms  x
            x                 Number           u          v          w      x
            x---------------------------------------------------------------x
            x  H                 1         0.258075  -0.088929   0.257736   x
            x  H                 2         0.347657   0.303107   0.224126   x
            x  H                 3         0.500000   0.100060   0.750000   x
            x  H                 4         0.500000   0.331519   0.750000   x
            x  H                 5         0.741925  -0.088929   0.242264   x
            x  H                 6         0.652343   0.303107   0.275874   x
            x  H                 7         0.758075   0.411071   0.257736   x
            x  H                 8         0.847657   0.803107   0.224126   x
            x  H                 9         0.000000   0.600060   0.750000   x
            x  H                10         0.000000   0.831519   0.750000   x
            x  H                11         0.241925   0.411071   0.242264   x
            x  H                12         0.152343   0.803107   0.275874   x
            x  H                13         0.241925   0.588929   0.742264   x
            x  H                14         0.152343   0.196893   0.775874   x
            x  H                15         0.000000   0.399940   0.250000   x
            x  H                16         0.000000   0.168481   0.250000   x
            x  H                17         0.758075   0.588929   0.757736   x
            x  H                18         0.847657   0.196893   0.724126   x
            x  H                19         0.741925   1.088929   0.742264   x
            x  H                20         0.652343   0.696893   0.775874   x
            x  H                21         0.500000   0.899940   0.250000   x
            x  H                22         0.500000   0.668481   0.250000   x
            x  H                23         0.258075   1.088929   0.757736   x
            x  H                24         0.347657   0.696893   0.724126   x
            xxxxxxxxxxxxxxxxxxxxxxxxxxxxxxxxxxxxxxxxxxxxxxxxxxxxxxxxxxxxxxxxx


------------------------------------------------------------------------ <-- SCF
SCF loop      Energy                           Energy gain       Timer   <-- SCF
                                               per atom          (sec)   <-- SCF
------------------------------------------------------------------------ <-- SCF
Initial  -3.63245246E+002                                        149.13  <-- SCF
      1  -3.63270243E+002                    1.04155539E-003     153.73  <-- SCF
      2  -3.63270311E+002                    2.82043259E-006     159.52  <-- SCF
      3  -3.63269742E+002                   -2.37155585E-005     165.17  <-- SCF
      4  -3.63269729E+002                   -5.34229278E-007     170.87  <-- SCF
      5  -3.63269730E+002                    2.40823868E-008     176.46  <-- SCF
      6  -3.63269730E+002                    2.23955397E-009     181.88  <-- SCF
      7  -3.63269730E+002                    7.40363733E-012     185.75  <-- SCF
      8  -3.63269730E+002                    9.74798822E-013     189.69  <-- SCF
------------------------------------------------------------------------ <-- SCF
 
Final energy =  -363.2697295892     eV
(energy not corrected for finite basis set)
 

 ******************************** Symmetrised Forces ********************************
 *                                                                                  *
 *                           Cartesian components (eV/A)                            *
 * -------------------------------------------------------------------------------- *
 *                         x                    y                    z              *
 *                                                                                  *
 * H               1     -0.50980             -0.27094              0.04354         *
 * H               2     -0.51171              0.26834              0.03516         *
 * H               3      0.00000              0.58860              0.00000         *
 * H               4      0.00000             -0.59037             -0.00000         *
 * H               5      0.50980             -0.27094             -0.04354         *
 * H               6      0.51171              0.26834             -0.03516         *
 * H               7     -0.50980             -0.27094              0.04354         *
 * H               8     -0.51171              0.26834              0.03516         *
 * H               9      0.00000              0.58860             -0.00000         *
 * H              10      0.00000             -0.59037              0.00000         *
 * H              11      0.50980             -0.27094             -0.04354         *
 * H              12      0.51171              0.26834             -0.03516         *
 * H              13      0.50980              0.27094             -0.04354         *
 * H              14      0.51171             -0.26834             -0.03516         *
 * H              15     -0.00000             -0.58860              0.00000         *
 * H              16      0.00000              0.59037              0.00000         *
 * H              17     -0.50980              0.27094              0.04354         *
 * H              18     -0.51171             -0.26834              0.03516         *
 * H              19      0.50980              0.27094             -0.04354         *
 * H              20      0.51171             -0.26834             -0.03516         *
 * H              21      0.00000             -0.58860              0.00000         *
 * H              22      0.00000              0.59037              0.00000         *
 * H              23     -0.50980              0.27094              0.04354         *
 * H              24     -0.51171             -0.26834              0.03516         *
 *                                                                                  *
 ************************************************************************************

 *********** Symmetrised Stress Tensor ***********
 *                                               *
 *          Cartesian components (GPa)           *
 * --------------------------------------------- *
 *             x             y             z     *
 *                                               *
 *  x    -87.290776      0.000000     -0.694743  *
 *  y      0.000000    -88.017318      0.000000  *
 *  z     -0.694743      0.000000    -96.368046  *
 *                                               *
 *  Pressure:   90.5587                          *
 *                                               *
 *************************************************
  
 +------------+-------------+-------------+-----------------+ <-- min LBFGS
 |    Step    |   lambda    |   F.delta'  |    enthalpy     | <-- min LBFGS
 +------------+-------------+-------------+-----------------+ <-- min LBFGS
 |  previous  |    0.000000 |    0.607775 |     -331.544635 | <-- min LBFGS
 | trial step |    1.000000 |    0.200791 |     -331.922183 | <-- min LBFGS
 |  line step |    1.493365 |    0.012009 |     -331.970803 | <-- min LBFGS
 +------------+-------------+-------------+-----------------+ <-- min LBFGS
  
 LBFGS: finished iteration     1 with enthalpy= -3.31970803E+002 eV
  
 +-----------+-----------------+-----------------+------------+-----+ <-- LBFGS
 | Parameter |      value      |    tolerance    |    units   | OK? | <-- LBFGS
 +-----------+-----------------+-----------------+------------+-----+ <-- LBFGS
 |  dE/ion   |   1.775699E-002 |   1.000000E-009 |         eV | No  | <-- LBFGS
 |  |F|max   |   5.903750E-001 |   1.000000E-005 |       eV/A | No  | <-- LBFGS
 |  |dR|max  |   6.070065E-008 |   1.000000E-005 |          A | Yes | <-- LBFGS
 |   Smax    |   6.368046E+000 |   1.000000E-005 |        GPa | No  | <-- LBFGS
 +-----------+-----------------+-----------------+------------+-----+ <-- LBFGS
  

================================================================================
 Starting LBFGS iteration          2 ...
================================================================================
  
 +------------+-------------+-------------+-----------------+ <-- min LBFGS
 |    Step    |   lambda    |   F.delta'  |    enthalpy     | <-- min LBFGS
 +------------+-------------+-------------+-----------------+ <-- min LBFGS
 |  previous  |    0.000000 |    0.359324 |     -331.970803 | <-- min LBFGS
 +------------+-------------+-------------+-----------------+ <-- min LBFGS
  

--------------------------------------------------------------------------------
 LBFGS: starting iteration         2 with trial guess (lambda=  1.000000)
--------------------------------------------------------------------------------
 
+---------------- MEMORY AND SCRATCH DISK ESTIMATES PER PROCESS --------------+
|                                                     Memory          Disk    |
| Model and support data                               72.2 MB         0.0 MB |
| Electronic energy minimisation requirements          66.1 MB         0.0 MB |
| Geometry minimisation requirements                   86.0 MB         0.0 MB |
|                                               ----------------------------- |
| Approx. total storage required per process          224.3 MB         0.0 MB |
|                                                                             |
| Requirements will fluctuate during execution and may exceed these estimates |
+-----------------------------------------------------------------------------+
 

                           -------------------------------
                                      Unit Cell
                           -------------------------------
        Real Lattice(A)              Reciprocal Lattice(1/A)
     5.9005606     0.0000000    -0.0006522        1.064996410   0.000000000   1.365451506
     0.0000000     3.3791686     0.0000000        0.000000000   1.859387916   0.000000000
    -3.9220251     0.0000000     3.0590194        0.000227054   0.000000000   2.054277851

                       Lattice parameters(A)       Cell Angles
                    a =      5.900561          alpha =   90.000000
                    b =      3.379169          beta  =  142.053557
                    c =      4.973920          gamma =   90.000000

                Current cell volume =            60.985111 A**3

                           -------------------------------
                                     Cell Contents
                           -------------------------------

            xxxxxxxxxxxxxxxxxxxxxxxxxxxxxxxxxxxxxxxxxxxxxxxxxxxxxxxxxxxxxxxxx
            x  Element         Atom        Fractional coordinates of atoms  x
            x                 Number           u          v          w      x
            x---------------------------------------------------------------x
            x  H                 1         0.249772  -0.097585   0.259271   x
            x  H                 2         0.339121   0.311680   0.225364   x
            x  H                 3         0.500000   0.118866   0.750000   x
            x  H                 4         0.500000   0.312656   0.750000   x
            x  H                 5         0.750228  -0.097585   0.240729   x
            x  H                 6         0.660879   0.311680   0.274636   x
            x  H                 7         0.749772   0.402415   0.259271   x
            x  H                 8         0.839121   0.811680   0.225364   x
            x  H                 9         0.000000   0.618866   0.750000   x
            x  H                10         0.000000   0.812656   0.750000   x
            x  H                11         0.250228   0.402415   0.240729   x
            x  H                12         0.160879   0.811680   0.274636   x
            x  H                13         0.250228   0.597585   0.740729   x
            x  H                14         0.160879   0.188320   0.774636   x
            x  H                15         0.000000   0.381134   0.250000   x
            x  H                16         0.000000   0.187344   0.250000   x
            x  H                17         0.749772   0.597585   0.759271   x
            x  H                18         0.839121   0.188320   0.725364   x
            x  H                19         0.750228   1.097585   0.740729   x
            x  H                20         0.660879   0.688320   0.774636   x
            x  H                21         0.500000   0.881134   0.250000   x
            x  H                22         0.500000   0.687344   0.250000   x
            x  H                23         0.249772   1.097585   0.759271   x
            x  H                24         0.339121   0.688320   0.725364   x
            xxxxxxxxxxxxxxxxxxxxxxxxxxxxxxxxxxxxxxxxxxxxxxxxxxxxxxxxxxxxxxxxx


------------------------------------------------------------------------ <-- SCF
SCF loop      Energy                           Energy gain       Timer   <-- SCF
                                               per atom          (sec)   <-- SCF
------------------------------------------------------------------------ <-- SCF
Initial  -3.55171695E+002                                        193.96  <-- SCF
      1  -3.65764071E+002                    4.41349016E-001     198.54  <-- SCF
      2  -3.65817790E+002                    2.23829430E-003     204.08  <-- SCF
      3  -3.64660702E+002                   -4.82120087E-002     209.79  <-- SCF
      4  -3.64623132E+002                   -1.56543347E-003     215.83  <-- SCF
      5  -3.64623431E+002                    1.24737442E-005     221.47  <-- SCF
      6  -3.64623466E+002                    1.45418359E-006     227.01  <-- SCF
      7  -3.64623466E+002                    5.81773834E-009     232.52  <-- SCF
      8  -3.64623466E+002                    4.55338801E-009     238.21  <-- SCF
      9  -3.64623466E+002                    1.13644625E-010     242.34  <-- SCF
     10  -3.64623466E+002                    4.02003812E-012     246.49  <-- SCF
     11  -3.64623466E+002                    6.08242240E-013     250.50  <-- SCF
------------------------------------------------------------------------ <-- SCF
 
Final energy =  -364.6234663294     eV
(energy not corrected for finite basis set)
 

 ******************************** Symmetrised Forces ********************************
 *                                                                                  *
 *                           Cartesian components (eV/A)                            *
 * -------------------------------------------------------------------------------- *
 *                         x                    y                    z              *
 *                                                                                  *
 * H               1      2.80901              1.48311             -0.16342         *
 * H               2      3.12339             -1.62573             -0.31940         *
 * H               3      0.00000             -3.78047             -0.00000         *
 * H               4      0.00000              3.50744             -0.00000         *
 * H               5     -2.80901              1.48311              0.16342         *
 * H               6     -3.12339             -1.62573              0.31940         *
 * H               7      2.80901              1.48311             -0.16342         *
 * H               8      3.12339             -1.62573             -0.31940         *
 * H               9      0.00000             -3.78047             -0.00000         *
 * H              10      0.00000              3.50744             -0.00000         *
 * H              11     -2.80901              1.48311              0.16342         *
 * H              12     -3.12339             -1.62573              0.31940         *
 * H              13     -2.80901             -1.48311              0.16342         *
 * H              14     -3.12339              1.62573              0.31940         *
 * H              15      0.00000              3.78047             -0.00000         *
 * H              16      0.00000             -3.50744             -0.00000         *
 * H              17      2.80901             -1.48311             -0.16342         *
 * H              18      3.12339              1.62573             -0.31940         *
 * H              19     -2.80901             -1.48311              0.16342         *
 * H              20     -3.12339              1.62573              0.31940         *
 * H              21      0.00000              3.78047             -0.00000         *
 * H              22      0.00000             -3.50744             -0.00000         *
 * H              23      2.80901             -1.48311             -0.16342         *
 * H              24      3.12339              1.62573             -0.31940         *
 *                                                                                  *
 ************************************************************************************

 *********** Symmetrised Stress Tensor ***********
 *                                               *
 *          Cartesian components (GPa)           *
 * --------------------------------------------- *
 *             x             y             z     *
 *                                               *
 *  x   -111.967903      0.000000      3.412844  *
 *  y      0.000000   -110.531752      0.000000  *
 *  z      3.412844      0.000000    -73.307828  *
 *                                               *
 *  Pressure:   98.6025                          *
 *                                               *
 *************************************************
  
 +------------+-------------+-------------+-----------------+ <-- min LBFGS
 |    Step    |   lambda    |   F.delta'  |    enthalpy     | <-- min LBFGS
 +------------+-------------+-------------+-----------------+ <-- min LBFGS
 |  previous  |    0.000000 |    0.359324 |     -331.970803 | <-- min LBFGS
 | trial step |    1.000000 |   -2.020529 |     -330.365965 | <-- min LBFGS
 +------------+-------------+-------------+-----------------+ <-- min LBFGS
  

--------------------------------------------------------------------------------
 LBFGS: improving iteration         2 with line minimization (lambda=  0.150986)
--------------------------------------------------------------------------------

                           -------------------------------
                                      Unit Cell
                           -------------------------------
        Real Lattice(A)              Reciprocal Lattice(1/A)
     5.7627826     0.0000000    -0.0029250        1.091017621   0.000000000   1.405834192
     0.0000000     3.2988843     0.0000000        0.000000000   1.904639509   0.000000000
    -3.8316336     0.0000000     2.9735938        0.001073185   0.000000000   2.114376682

                       Lattice parameters(A)       Cell Angles
                    a =      5.762783          alpha =   90.000000
                    b =      3.298884          beta  =  142.215322
                    c =      4.850121          gamma =   90.000000

                Current cell volume =            56.493284 A**3

                           -------------------------------
                                     Cell Contents
                           -------------------------------

            xxxxxxxxxxxxxxxxxxxxxxxxxxxxxxxxxxxxxxxxxxxxxxxxxxxxxxxxxxxxxxxxx
            x  Element         Atom        Fractional coordinates of atoms  x
            x                 Number           u          v          w      x
            x---------------------------------------------------------------x
            x  H                 1         0.256821  -0.090236   0.257968   x
            x  H                 2         0.346368   0.304401   0.224313   x
            x  H                 3         0.500000   0.102900   0.750000   x
            x  H                 4         0.500000   0.328671   0.750000   x
            x  H                 5         0.743179  -0.090236   0.242032   x
            x  H                 6         0.653632   0.304401   0.275687   x
            x  H                 7         0.756821   0.409764   0.257968   x
            x  H                 8         0.846368   0.804401   0.224313   x
            x  H                 9         0.000000   0.602900   0.750000   x
            x  H                10         0.000000   0.828671   0.750000   x
            x  H                11         0.243179   0.409764   0.242032   x
            x  H                12         0.153632   0.804401   0.275687   x
            x  H                13         0.243179   0.590236   0.742032   x
            x  H                14         0.153632   0.195599   0.775687   x
            x  H                15         0.000000   0.397100   0.250000   x
            x  H                16         0.000000   0.171329   0.250000   x
            x  H                17         0.756821   0.590236   0.757968   x
            x  H                18         0.846368   0.195599   0.724313   x
            x  H                19         0.743179   1.090236   0.742032   x
            x  H                20         0.653632   0.695599   0.775687   x
            x  H                21         0.500000   0.897100   0.250000   x
            x  H                22         0.500000   0.671329   0.250000   x
            x  H                23         0.256821   1.090236   0.757968   x
            x  H                24         0.346368   0.695599   0.724313   x
            xxxxxxxxxxxxxxxxxxxxxxxxxxxxxxxxxxxxxxxxxxxxxxxxxxxxxxxxxxxxxxxxx


------------------------------------------------------------------------ <-- SCF
SCF loop      Energy                           Energy gain       Timer   <-- SCF
                                               per atom          (sec)   <-- SCF
------------------------------------------------------------------------ <-- SCF
Initial  -3.56204971E+002                                        254.69  <-- SCF
      1  -3.64686098E+002                    3.53380283E-001     259.36  <-- SCF
      2  -3.64724760E+002                    1.61091997E-003     265.06  <-- SCF
      3  -3.63819958E+002                   -3.77000858E-002     270.46  <-- SCF
      4  -3.63796097E+002                   -9.94199299E-004     276.06  <-- SCF
      5  -3.63796005E+002                   -3.83354315E-006     281.58  <-- SCF
      6  -3.63796010E+002                    1.82327828E-007     287.27  <-- SCF
      7  -3.63796010E+002                    1.00659257E-008     293.14  <-- SCF
      8  -3.63796010E+002                    1.25702926E-009     298.64  <-- SCF
      9  -3.63796010E+002                    8.51136327E-012     302.54  <-- SCF
     10  -3.63796010E+002                    2.41685658E-014     306.47  <-- SCF
------------------------------------------------------------------------ <-- SCF
 
Final energy =  -363.7960101052     eV
(energy not corrected for finite basis set)
 

 ******************************** Symmetrised Forces ********************************
 *                                                                                  *
 *                           Cartesian components (eV/A)                            *
 * -------------------------------------------------------------------------------- *
 *                         x                    y                    z              *
 *                                                                                  *
 * H               1     -0.20108             -0.10692              0.02983         *
 * H               2     -0.14473              0.07745             -0.00740         *
 * H               3      0.00000              0.15174              0.00000         *
 * H               4      0.00000             -0.20542              0.00000         *
 * H               5      0.20108             -0.10692             -0.02983         *
 * H               6      0.14473              0.07745              0.00740         *
 * H               7     -0.20108             -0.10692              0.02983         *
 * H               8     -0.14473              0.07745             -0.00740         *
 * H               9     -0.00000              0.15174              0.00000         *
 * H              10      0.00000             -0.20542              0.00000         *
 * H              11      0.20108             -0.10692             -0.02983         *
 * H              12      0.14473              0.07745              0.00740         *
 * H              13      0.20108              0.10692             -0.02983         *
 * H              14      0.14473             -0.07745              0.00740         *
 * H              15      0.00000             -0.15174             -0.00000         *
 * H              16     -0.00000              0.20542             -0.00000         *
 * H              17     -0.20108              0.10692              0.02983         *
 * H              18     -0.14473             -0.07745             -0.00740         *
 * H              19      0.20108              0.10692             -0.02983         *
 * H              20      0.14473             -0.07745              0.00740         *
 * H              21      0.00000             -0.15174              0.00000         *
 * H              22      0.00000              0.20542              0.00000         *
 * H              23     -0.20108              0.10692              0.02983         *
 * H              24     -0.14473             -0.07745             -0.00740         *
 *                                                                                  *
 ************************************************************************************

 *********** Symmetrised Stress Tensor ***********
 *                                               *
 *          Cartesian components (GPa)           *
 * --------------------------------------------- *
 *             x             y             z     *
 *                                               *
 *  x    -89.615955      0.000000     -0.172538  *
 *  y      0.000000    -90.058389      0.000000  *
 *  z     -0.172538      0.000000    -92.614117  *
 *                                               *
 *  Pressure:   90.7628                          *
 *                                               *
 *************************************************
  
 +------------+-------------+-------------+-----------------+ <-- min LBFGS
 |    Step    |   lambda    |   F.delta'  |    enthalpy     | <-- min LBFGS
 +------------+-------------+-------------+-----------------+ <-- min LBFGS
 |  previous  |    0.000000 |    0.359324 |     -331.970803 | <-- min LBFGS
 | trial step |    1.000000 |   -2.020529 |     -330.365965 | <-- min LBFGS
 |  line step |    0.150986 |    0.125502 |     -332.061699 | <-- min LBFGS
 +------------+-------------+-------------+-----------------+ <-- min LBFGS
  

--------------------------------------------------------------------------------
 LBFGS: improving iteration         2 with quad minimization (lambda=  0.212562)
--------------------------------------------------------------------------------

                           -------------------------------
                                      Unit Cell
                           -------------------------------
        Real Lattice(A)              Reciprocal Lattice(1/A)
     5.7727752     0.0000000    -0.0027602        1.089087510   0.000000000   1.402825362
     0.0000000     3.3047070     0.0000000        0.000000000   1.901283620   0.000000000
    -3.8381894     0.0000000     2.9797894        0.001008812   0.000000000   2.109899881

                       Lattice parameters(A)       Cell Angles
                    a =      5.772776          alpha =   90.000000
                    b =      3.304707          beta  =  142.203315
                    c =      4.859099          gamma =   90.000000

                Current cell volume =            56.811417 A**3

                           -------------------------------
                                     Cell Contents
                           -------------------------------

            xxxxxxxxxxxxxxxxxxxxxxxxxxxxxxxxxxxxxxxxxxxxxxxxxxxxxxxxxxxxxxxxx
            x  Element         Atom        Fractional coordinates of atoms  x
            x                 Number           u          v          w      x
            x---------------------------------------------------------------x
            x  H                 1         0.256310  -0.090769   0.258062   x
            x  H                 2         0.345842   0.304929   0.224389   x
            x  H                 3         0.500000   0.104057   0.750000   x
            x  H                 4         0.500000   0.327509   0.750000   x
            x  H                 5         0.743690  -0.090769   0.241938   x
            x  H                 6         0.654158   0.304929   0.275611   x
            x  H                 7         0.756310   0.409231   0.258062   x
            x  H                 8         0.845842   0.804929   0.224389   x
            x  H                 9         0.000000   0.604057   0.750000   x
            x  H                10         0.000000   0.827509   0.750000   x
            x  H                11         0.243690   0.409231   0.241938   x
            x  H                12         0.154158   0.804929   0.275611   x
            x  H                13         0.243690   0.590769   0.741938   x
            x  H                14         0.154158   0.195071   0.775611   x
            x  H                15         0.000000   0.395943   0.250000   x
            x  H                16         0.000000   0.172491   0.250000   x
            x  H                17         0.756310   0.590769   0.758062   x
            x  H                18         0.845842   0.195071   0.724389   x
            x  H                19         0.743690   1.090769   0.741938   x
            x  H                20         0.654158   0.695071   0.775611   x
            x  H                21         0.500000   0.895943   0.250000   x
            x  H                22         0.500000   0.672491   0.250000   x
            x  H                23         0.256310   1.090769   0.758062   x
            x  H                24         0.345842   0.695071   0.724389   x
            xxxxxxxxxxxxxxxxxxxxxxxxxxxxxxxxxxxxxxxxxxxxxxxxxxxxxxxxxxxxxxxxx


------------------------------------------------------------------------ <-- SCF
SCF loop      Energy                           Energy gain       Timer   <-- SCF
                                               per atom          (sec)   <-- SCF
------------------------------------------------------------------------ <-- SCF
Initial  -3.63948132E+002                                        311.00  <-- SCF
      1  -3.63990013E+002                    1.74505729E-003     315.60  <-- SCF
      2  -3.63990220E+002                    8.63763070E-006     321.25  <-- SCF
      3  -3.63985824E+002                   -1.83199653E-004     326.95  <-- SCF
      4  -3.63985695E+002                   -5.36017653E-006     332.87  <-- SCF
      5  -3.63985695E+002                   -9.56216216E-009     338.58  <-- SCF
      6  -3.63985695E+002                    1.51458159E-009     344.13  <-- SCF
      7  -3.63985695E+002                    5.72331779E-011     348.27  <-- SCF
      8  -3.63985695E+002                    8.24349500E-012     352.21  <-- SCF
      9  -3.63985695E+002                   -3.24261592E-013     356.02  <-- SCF
------------------------------------------------------------------------ <-- SCF
 
Final energy =  -363.9856948524     eV
(energy not corrected for finite basis set)
 

 ******************************** Symmetrised Forces ********************************
 *                                                                                  *
 *                           Cartesian components (eV/A)                            *
 * -------------------------------------------------------------------------------- *
 *                         x                    y                    z              *
 *                                                                                  *
 * H               1     -0.05915             -0.03160              0.02277         *
 * H               2      0.01997             -0.00825             -0.02550         *
 * H               3      0.00000             -0.04477              0.00000         *
 * H               4      0.00000             -0.02898              0.00000         *
 * H               5      0.05915             -0.03160             -0.02277         *
 * H               6     -0.01997             -0.00825              0.02550         *
 * H               7     -0.05915             -0.03160              0.02277         *
 * H               8      0.01997             -0.00825             -0.02550         *
 * H               9     -0.00000             -0.04477              0.00000         *
 * H              10      0.00000             -0.02898             -0.00000         *
 * H              11      0.05915             -0.03160             -0.02277         *
 * H              12     -0.01997             -0.00825              0.02550         *
 * H              13      0.05915              0.03160             -0.02277         *
 * H              14     -0.01997              0.00825              0.02550         *
 * H              15      0.00000              0.04477              0.00000         *
 * H              16      0.00000              0.02898              0.00000         *
 * H              17     -0.05915              0.03160              0.02277         *
 * H              18      0.01997              0.00825             -0.02550         *
 * H              19      0.05915              0.03160             -0.02277         *
 * H              20     -0.01997              0.00825              0.02550         *
 * H              21      0.00000              0.04477              0.00000         *
 * H              22      0.00000              0.02898             -0.00000         *
 * H              23     -0.05915              0.03160              0.02277         *
 * H              24      0.01997              0.00825             -0.02550         *
 *                                                                                  *
 ************************************************************************************

 *********** Symmetrised Stress Tensor ***********
 *                                               *
 *          Cartesian components (GPa)           *
 * --------------------------------------------- *
 *             x             y             z     *
 *                                               *
 *  x    -90.699331      0.000000      0.049627  *
 *  y      0.000000    -91.022923      0.000000  *
 *  z      0.049627      0.000000    -91.115157  *
 *                                               *
 *  Pressure:   90.9458                          *
 *                                               *
 *************************************************
  
 +------------+-------------+-------------+-----------------+ <-- min LBFGS
 |    Step    |   lambda    |   F.delta'  |    enthalpy     | <-- min LBFGS
 +------------+-------------+-------------+-----------------+ <-- min LBFGS
 |  previous  |    0.000000 |    0.359324 |     -331.970803 | <-- min LBFGS
 | trial step |    1.000000 |   -2.020529 |     -330.365965 | <-- min LBFGS
 |  line step |    0.150986 |    0.125502 |     -332.061699 | <-- min LBFGS
 |  quad step |    0.212562 |    0.020021 |     -332.072685 | <-- min LBFGS
 +------------+-------------+-------------+-----------------+ <-- min LBFGS
  
 LBFGS: finished iteration     2 with enthalpy= -3.32072685E+002 eV
  
 +-----------+-----------------+-----------------+------------+-----+ <-- LBFGS
 | Parameter |      value      |    tolerance    |    units   | OK? | <-- LBFGS
 +-----------+-----------------+-----------------+------------+-----+ <-- LBFGS
 |  dE/ion   |   4.245103E-003 |   1.000000E-009 |         eV | No  | <-- LBFGS
 |  |F|max   |   7.082409E-002 |   1.000000E-005 |       eV/A | No  | <-- LBFGS
 |  |dR|max  |   1.324984E-002 |   1.000000E-005 |          A | No  | <-- LBFGS
 |   Smax    |   1.115157E+000 |   1.000000E-005 |        GPa | No  | <-- LBFGS
 +-----------+-----------------+-----------------+------------+-----+ <-- LBFGS
  

================================================================================
 Starting LBFGS iteration          3 ...
================================================================================
  
 +------------+-------------+-------------+-----------------+ <-- min LBFGS
 |    Step    |   lambda    |   F.delta'  |    enthalpy     | <-- min LBFGS
 +------------+-------------+-------------+-----------------+ <-- min LBFGS
 |  previous  |    0.000000 |    0.044730 |     -332.072685 | <-- min LBFGS
 +------------+-------------+-------------+-----------------+ <-- min LBFGS
  

--------------------------------------------------------------------------------
 LBFGS: starting iteration         3 with trial guess (lambda=  1.000000)
--------------------------------------------------------------------------------

                           -------------------------------
                                      Unit Cell
                           -------------------------------
        Real Lattice(A)              Reciprocal Lattice(1/A)
     5.7812607     0.0000000    -0.0029814        1.087541433   0.000000000   1.400402581
     0.0000000     3.3103439     0.0000000        0.000000000   1.898046102   0.000000000
    -3.8439426     0.0000000     2.9851751        0.001086177   0.000000000   2.106194888

                       Lattice parameters(A)       Cell Angles
                    a =      5.781261          alpha =   90.000000
                    b =      3.310344          beta  =  142.196921
                    c =      4.866946          gamma =   90.000000

                Current cell volume =            57.092226 A**3

                           -------------------------------
                                     Cell Contents
                           -------------------------------

            xxxxxxxxxxxxxxxxxxxxxxxxxxxxxxxxxxxxxxxxxxxxxxxxxxxxxxxxxxxxxxxxx
            x  Element         Atom        Fractional coordinates of atoms  x
            x                 Number           u          v          w      x
            x---------------------------------------------------------------x
            x  H                 1         0.255757  -0.091807   0.258903   x
            x  H                 2         0.345611   0.304638   0.223441   x
            x  H                 3         0.500000   0.102528   0.750000   x
            x  H                 4         0.500000   0.326578   0.750000   x
            x  H                 5         0.744243  -0.091807   0.241097   x
            x  H                 6         0.654389   0.304638   0.276559   x
            x  H                 7         0.755757   0.408193   0.258903   x
            x  H                 8         0.845611   0.804638   0.223441   x
            x  H                 9         0.000000   0.602528   0.750000   x
            x  H                10         0.000000   0.826578   0.750000   x
            x  H                11         0.244243   0.408193   0.241097   x
            x  H                12         0.154389   0.804638   0.276559   x
            x  H                13         0.244243   0.591807   0.741097   x
            x  H                14         0.154389   0.195362   0.776559   x
            x  H                15        -0.000000   0.397472   0.250000   x
            x  H                16         0.000000   0.173422   0.250000   x
            x  H                17         0.755757   0.591807   0.758903   x
            x  H                18         0.845611   0.195362   0.723441   x
            x  H                19         0.744243   1.091807   0.741097   x
            x  H                20         0.654389   0.695362   0.776559   x
            x  H                21         0.500000   0.897472   0.250000   x
            x  H                22         0.500000   0.673422   0.250000   x
            x  H                23         0.255757   1.091807   0.758903   x
            x  H                24         0.345611   0.695362   0.723441   x
            xxxxxxxxxxxxxxxxxxxxxxxxxxxxxxxxxxxxxxxxxxxxxxxxxxxxxxxxxxxxxxxxx


------------------------------------------------------------------------ <-- SCF
SCF loop      Energy                           Energy gain       Timer   <-- SCF
                                               per atom          (sec)   <-- SCF
[...]
      H    18      S                    1.044
      H    19      S                    0.955
      H    20      S                    1.041
      H    21      S                    1.037
      H    22      S                    0.967
      H    23      S                    0.957
      H    24      S                    1.044
  -------------------------------------------
                           Total:      24.000
  -------------------------------------------

     Atomic Populations (Mulliken)
     -----------------------------
Species          Ion     s      p      d      f     Total  Charge (e)
=====================================================================
  H               1     0.96   0.00   0.00   0.00   0.96     0.04
  H               2     1.04   0.00   0.00   0.00   1.04    -0.04
  H               3     1.04   0.00   0.00   0.00   1.04    -0.04
  H               4     0.97   0.00   0.00   0.00   0.97     0.03
  H               5     0.96   0.00   0.00   0.00   0.96     0.04
  H               6     1.04   0.00   0.00   0.00   1.04    -0.04
  H               7     0.96   0.00   0.00   0.00   0.96     0.04
  H               8     1.04   0.00   0.00   0.00   1.04    -0.04
  H               9     1.04   0.00   0.00   0.00   1.04    -0.04
  H              10     0.97   0.00   0.00   0.00   0.97     0.03
  H              11     0.96   0.00   0.00   0.00   0.96     0.04
  H              12     1.04   0.00   0.00   0.00   1.04    -0.04
  H              13     0.96   0.00   0.00   0.00   0.96     0.04
  H              14     1.04   0.00   0.00   0.00   1.04    -0.04
  H              15     1.04   0.00   0.00   0.00   1.04    -0.04
  H              16     0.97   0.00   0.00   0.00   0.97     0.03
  H              17     0.96   0.00   0.00   0.00   0.96     0.04
  H              18     1.04   0.00   0.00   0.00   1.04    -0.04
  H              19     0.96   0.00   0.00   0.00   0.96     0.04
  H              20     1.04   0.00   0.00   0.00   1.04    -0.04
  H              21     1.04   0.00   0.00   0.00   1.04    -0.04
  H              22     0.97   0.00   0.00   0.00   0.97     0.03
  H              23     0.96   0.00   0.00   0.00   0.96     0.04
  H              24     1.04   0.00   0.00   0.00   1.04    -0.04
=====================================================================

                 Bond                   Population      Length (A)
======================================================================
              H 3  -- H 4                    1.51        0.73652
              H 21 -- H 22                   1.51        0.73652
              H 9  -- H 10                   1.51        0.73652
              H 15 -- H 16                   1.51        0.73652
              H 13 -- H 24                   1.50        0.74065
              H 17 -- H 20                   1.50        0.74065
              H 5  -- H 8                    1.50        0.74065
              H 2  -- H 11                   1.50        0.74065
              H 18 -- H 19                   1.50        0.74065
              H 6  -- H 7                    1.50        0.74065
              H 1  -- H 12                   1.50        0.74065
              H 14 -- H 23                   1.50        0.74065
              H 1  -- H 21                   0.02        1.46016
              H 3  -- H 23                   0.02        1.46016
              H 11 -- H 15                   0.02        1.46016
              H 9  -- H 13                   0.02        1.46016
              H 7  -- H 15                   0.02        1.46016
              H 5  -- H 21                   0.02        1.46016
              H 9  -- H 17                   0.02        1.46016
              H 3  -- H 19                   0.02        1.46016
              H 4  -- H 20                  -0.06        1.46977
              H 4  -- H 24                  -0.06        1.46977
              H 8  -- H 16                  -0.06        1.46977
              H 10 -- H 18                  -0.06        1.46977
              H 12 -- H 16                  -0.06        1.46977
              H 10 -- H 14                  -0.06        1.46977
              H 6  -- H 22                  -0.06        1.46977
              H 2  -- H 22                  -0.06        1.46977
              H 1  -- H 2                   -0.13        1.49202
              H 5  -- H 6                   -0.13        1.49202
              H 11 -- H 12                  -0.13        1.49202
              H 7  -- H 8                   -0.13        1.49202
              H 13 -- H 14                  -0.13        1.49202
              H 23 -- H 24                  -0.13        1.49202
              H 17 -- H 18                  -0.13        1.49202
              H 19 -- H 20                  -0.13        1.49202
              H 6  -- H 18                  -0.02        1.52346
              H 8  -- H 20                  -0.02        1.52346
              H 2  -- H 14                  -0.02        1.52346
              H 12 -- H 24                  -0.02        1.52346
              H 9  -- H 18                  -0.15        1.53212
              H 9  -- H 14                  -0.15        1.53212
              H 6  -- H 21                  -0.15        1.53212
              H 2  -- H 21                  -0.15        1.53212
              H 8  -- H 15                  -0.15        1.53212
              H 12 -- H 15                  -0.15        1.53212
              H 3  -- H 20                  -0.15        1.53212
              H 3  -- H 24                  -0.15        1.53212
              H 20 -- H 24                  -0.04        1.53987
              H 14 -- H 18                  -0.04        1.53987
              H 8  -- H 12                  -0.04        1.53987
              H 2  -- H 6                   -0.04        1.53987
              H 16 -- H 23                  -0.03        1.62432
              H 1  -- H 10                  -0.03        1.62432
              H 17 -- H 22                  -0.03        1.62432
              H 16 -- H 19                  -0.03        1.62432
              H 13 -- H 22                  -0.03        1.62432
              H 5  -- H 10                  -0.03        1.62432
              H 4  -- H 11                  -0.03        1.62432
              H 4  -- H 7                   -0.03        1.62432
              H 4  -- H 23                  -0.09        1.63812
              H 1  -- H 22                  -0.09        1.63812
              H 10 -- H 13                  -0.09        1.63812
              H 4  -- H 19                  -0.09        1.63812
              H 10 -- H 17                  -0.09        1.63812
              H 11 -- H 16                  -0.09        1.63812
              H 7  -- H 16                  -0.09        1.63812
              H 5  -- H 22                  -0.09        1.63812
              H 13 -- H 23                  -0.17        1.65764
              H 1  -- H 11                  -0.17        1.65764
              H 17 -- H 19                  -0.17        1.65764
              H 5  -- H 7                   -0.17        1.65764
              H 9  -- H 11                  -0.03        1.66932
              H 7  -- H 9                   -0.03        1.66932
              H 3  -- H 5                   -0.03        1.66932
              H 15 -- H 17                  -0.03        1.66932
              H 13 -- H 15                  -0.03        1.66932
              H 19 -- H 21                  -0.03        1.66932
              H 1  -- H 3                   -0.03        1.66932
              H 21 -- H 23                  -0.03        1.66932
              H 7  -- H 22                  -0.12        1.69324
              H 5  -- H 16                  -0.12        1.69324
              H 11 -- H 22                  -0.12        1.69324
              H 10 -- H 19                  -0.12        1.69324
              H 4  -- H 17                  -0.12        1.69324
              H 4  -- H 13                  -0.12        1.69324
              H 1  -- H 16                  -0.12        1.69324
              H 10 -- H 23                  -0.12        1.69324
              H 6  -- H 23                  -0.13        1.70957
              H 2  -- H 19                  -0.13        1.70957
              H 8  -- H 13                  -0.13        1.70957
              H 12 -- H 17                  -0.13        1.70957
              H 11 -- H 18                  -0.13        1.70957
              H 1  -- H 20                  -0.13        1.70957
              H 7  -- H 14                  -0.13        1.70957
              H 5  -- H 24                  -0.13        1.70957
              H 15 -- H 24                  -0.08        1.74508
              H 15 -- H 20                  -0.08        1.74508
              H 14 -- H 21                  -0.08        1.74508
              H 18 -- H 21                  -0.08        1.74508
              H 3  -- H 12                  -0.08        1.74508
              H 3  -- H 8                   -0.08        1.74508
              H 2  -- H 9                   -0.08        1.74508
              H 6  -- H 9                   -0.08        1.74508
              H 3  -- H 16                  -0.16        1.80143
              H 10 -- H 21                  -0.16        1.80143
              H 9  -- H 22                  -0.16        1.80143
              H 4  -- H 15                  -0.16        1.80143
              H 6  -- H 14                  -0.13        1.81396
              H 2  -- H 18                  -0.13        1.81396
              H 8  -- H 24                  -0.13        1.81396
              H 12 -- H 20                  -0.13        1.81396
              H 4  -- H 16                  -0.16        1.83898
              H 10 -- H 22                  -0.16        1.83898
              H 5  -- H 23                  -0.09        1.86896
              H 1  -- H 19                  -0.09        1.86896
              H 7  -- H 13                  -0.09        1.86896
              H 11 -- H 17                  -0.09        1.86896
              H 11 -- H 20                  -0.08        1.87798
              H 7  -- H 24                  -0.08        1.87798
              H 12 -- H 19                  -0.08        1.87798
              H 5  -- H 14                  -0.08        1.87798
              H 1  -- H 18                  -0.08        1.87798
              H 8  -- H 23                  -0.08        1.87798
              H 6  -- H 13                  -0.08        1.87798
              H 2  -- H 17                  -0.08        1.87798
              H 15 -- H 23                  -0.08        1.89619
              H 13 -- H 21                  -0.08        1.89619
              H 17 -- H 21                  -0.08        1.89619
              H 15 -- H 19                  -0.08        1.89619
              H 1  -- H 9                   -0.08        1.89619
              H 3  -- H 11                  -0.08        1.89619
              H 3  -- H 7                   -0.08        1.89619
              H 5  -- H 9                   -0.08        1.89619
              H 10 -- H 12                  -0.06        1.94108
              H 2  -- H 4                   -0.06        1.94108
              H 4  -- H 6                   -0.06        1.94108
              H 8  -- H 10                  -0.06        1.94108
              H 14 -- H 16                  -0.06        1.94108
              H 22 -- H 24                  -0.06        1.94108
              H 20 -- H 22                  -0.06        1.94108
              H 16 -- H 18                  -0.06        1.94108
              H 7  -- H 18                  -0.08        1.99054
              H 5  -- H 20                  -0.08        1.99054
              H 6  -- H 19                  -0.08        1.99054
              H 11 -- H 14                  -0.08        1.99054
              H 8  -- H 17                  -0.08        1.99054
              H 12 -- H 13                  -0.08        1.99054
              H 2  -- H 23                  -0.08        1.99054
              H 1  -- H 24                  -0.08        1.99054
              H 3  -- H 15                  -0.22        2.04778
              H 9  -- H 21                  -0.22        2.04778
              H 7  -- H 23                  -0.18        2.05378
              H 1  -- H 17                  -0.18        2.05378
              H 11 -- H 19                  -0.18        2.05378
              H 5  -- H 13                  -0.18        2.05378
              H 2  -- H 3                   -0.09        2.05598
              H 3  -- H 6                   -0.09        2.05598
              H 9  -- H 12                  -0.09        2.05598
              H 8  -- H 9                   -0.09        2.05598
              H 14 -- H 15                  -0.09        2.05598
              H 21 -- H 24                  -0.09        2.05598
              H 15 -- H 18                  -0.09        2.05598
              H 20 -- H 21                  -0.09        2.05598
              H 4  -- H 5                   -0.09        2.06632
              H 10 -- H 11                  -0.09        2.06632
              H 7  -- H 10                  -0.09        2.06632
              H 1  -- H 4                   -0.09        2.06632
              H 16 -- H 17                  -0.09        2.06632
              H 13 -- H 16                  -0.09        2.06632
              H 19 -- H 22                  -0.09        2.06632
              H 22 -- H 23                  -0.09        2.06632
              H 12 -- H 18                  -0.07        2.12084
              H 8  -- H 14                  -0.07        2.12084
              H 6  -- H 24                  -0.07        2.12084
              H 2  -- H 20                  -0.07        2.12084
              H 2  -- H 12                  -0.20        2.14108
              H 6  -- H 8                   -0.20        2.14108
              H 14 -- H 24                  -0.20        2.14108
              H 18 -- H 20                  -0.20        2.14108
              H 12 -- H 21                  -0.09        2.14461
              H 2  -- H 15                  -0.09        2.14461
              H 8  -- H 21                  -0.09        2.14461
              H 6  -- H 15                  -0.09        2.14461
              H 3  -- H 14                  -0.09        2.14461
              H 9  -- H 24                  -0.09        2.14461
              H 9  -- H 20                  -0.09        2.14461
              H 3  -- H 18                  -0.09        2.14461
              H 14 -- H 22                  -0.14        2.15683
              H 18 -- H 22                  -0.14        2.15683
              H 2  -- H 10                  -0.14        2.15683
              H 6  -- H 10                  -0.14        2.15683
              H 16 -- H 24                  -0.14        2.15683
              H 16 -- H 20                  -0.14        2.15683
              H 4  -- H 12                  -0.14        2.15683
              H 4  -- H 8                   -0.14        2.15683
              H 2  -- H 16                  -0.13        2.15704
              H 12 -- H 22                  -0.13        2.15704
              H 6  -- H 16                  -0.13        2.15704
              H 4  -- H 14                  -0.13        2.15704
              H 8  -- H 22                  -0.13        2.15704
              H 10 -- H 24                  -0.13        2.15704
              H 4  -- H 18                  -0.13        2.15704
              H 10 -- H 20                  -0.13        2.15704
              H 1  -- H 14                  -0.01        2.15886
              H 7  -- H 20                  -0.01        2.15886
              H 11 -- H 24                  -0.01        2.15886
              H 5  -- H 18                  -0.01        2.15886
              H 12 -- H 23                  -0.01        2.15886
              H 8  -- H 19                  -0.01        2.15886
              H 6  -- H 17                  -0.01        2.15886
              H 2  -- H 13                  -0.01        2.15886
              H 7  -- H 21                  -0.20        2.18079
              H 11 -- H 21                  -0.20        2.18079
              H 5  -- H 15                  -0.20        2.18079
              H 3  -- H 17                  -0.20        2.18079
              H 3  -- H 13                  -0.20        2.18079
              H 9  -- H 19                  -0.20        2.18079
              H 1  -- H 15                  -0.20        2.18079
              H 9  -- H 23                  -0.20        2.18079
              H 13 -- H 20                  -0.05        2.22011
              H 17 -- H 24                  -0.05        2.22011
              H 14 -- H 19                  -0.05        2.22011
              H 6  -- H 11                  -0.05        2.22011
              H 2  -- H 7                   -0.05        2.22011
              H 18 -- H 23                  -0.05        2.22011
              H 5  -- H 12                  -0.05        2.22011
              H 1  -- H 8                   -0.05        2.22011
              H 11 -- H 13                  -0.02        2.51574
              H 7  -- H 17                  -0.02        2.51574
              H 5  -- H 19                  -0.02        2.51574
              H 1  -- H 23                  -0.02        2.51574
              H 9  -- H 15                   0.01        2.51880
              H 3  -- H 21                   0.01        2.51880
              H 7  -- H 19                  -0.07        2.58857
              H 5  -- H 17                  -0.07        2.58857
              H 11 -- H 23                  -0.07        2.58857
              H 1  -- H 13                  -0.07        2.58857
              H 1  -- H 6                    0.00        2.58857
              H 20 -- H 23                   0.00        2.58857
              H 13 -- H 18                   0.00        2.58857
              H 8  -- H 11                   0.00        2.58857
              H 2  -- H 5                    0.00        2.58857
              H 14 -- H 17                   0.00        2.58857
              H 19 -- H 24                   0.00        2.58857
              H 7  -- H 12                   0.00        2.58857
              H 10 -- H 16                   0.02        2.71258
              H 4  -- H 22                   0.02        2.71258
              H 12 -- H 14                   0.02        2.76423
              H 8  -- H 18                   0.02        2.76423
              H 6  -- H 20                   0.02        2.76423
              H 2  -- H 24                   0.02        2.76423
              H 10 -- H 15                   0.02        2.79934
              H 9  -- H 16                   0.02        2.79934
              H 4  -- H 21                   0.02        2.79934
              H 3  -- H 22                   0.02        2.79934
              H 13 -- H 17                  -0.02        2.85075
              H 7  -- H 11                  -0.02        2.85075
              H 19 -- H 23                  -0.02        2.85075
              H 1  -- H 5                   -0.02        2.85075
======================================================================


Writing analysis data to C2c.castep_bin

Writing model to C2c.check
 
 A BibTeX formatted list of references used in this run has been written to 
 C2c.bib
 
Initialisation time =      1.67 s
Calculation time    =   1486.82 s
Finalisation time   =      4.50 s
Total time          =   1492.99 s
Peak Memory Use     = 589008 kB
  
Overall parallel efficiency rating: Excellent (95%)                             
  
Data was distributed by:-
k-point (16-way); efficiency rating: Excellent (95%)                            
