 +-------------------------------------------------+
 |                                                 |
 |      CCC   AA    SSS  TTTTT  EEEEE  PPPP        |
 |     C     A  A  S       T    E      P   P       |
 |     C     AAAA   SS     T    EEE    PPPP        |
 |     C     A  A     S    T    E      P           |
 |      CCC  A  A  SSS     T    EEEEE  P           |
 |                                                 |
 +-------------------------------------------------+
 |                                                 |
 | Welcome to Academic Release CASTEP version 18.1 |          
 | Ab Initio Total Energy Program                  |
 |                                                 |
 | Authors:                                        |
 | M. Segall, M. Probert, C. Pickard, P. Hasnip,   |
 | S. Clark, K. Refson, J. R. Yates, M. Payne      |
 |                                                 |
 | Contributors:                                   |
 | P. Lindan, P. Haynes, J. White, V. Milman,      |
 | N. Govind, M. Gibson, P. Tulip, V. Cocula,      |
 | B. Montanari, D. Quigley, M. Glover,            |
 | L. Bernasconi, A. Perlov, M. Plummer,           |
 | E. McNellis, J. Meyer, J. Gale, D. Jochym       |
 | J. Aarons, B. Walker, R. Gillen, D. Jones       |
 | T. Green, I. J. Bush, C. J. Armstrong,          |
 | E. J. Higgins, E. L. Brown, M. S. McFly,        |
 | J. Wilkins, B-C. Shih, P. J. P. Byrne           |
 |                                                 |
 | Copyright (c) 2000 - 2017                       |
 |                                                 |
 |     Distributed under the terms of an           |
 |     Agreement between the United Kingdom        |
 |     Car-Parrinello (UKCP) Consortium,           |
 |     Daresbury Laboratory and Accelrys, Inc.     |
 |                                                 |
 | Please cite                                     |
 |                                                 |
 |     "First principles methods using CASTEP"     |
 |                                                 |
 |         Zeitschrift fuer Kristallographie       |
 |           220(5-6) pp. 567-570 (2005)           |
 |                                                 |
 | S. J. Clark, M. D. Segall, C. J. Pickard,       |
 | P. J. Hasnip, M. J. Probert, K. Refson,         |
 | M. C. Payne                                     |
 |                                                 |
 |       in all publications arising from          |
 |              your use of CASTEP                 |
 |                                                 |
 +-------------------------------------------------+


 Compiled for linux_x86_64_gfortran4.8 on Thu, 19 Jul 2018 15:42:32 +0100
 from code version 70483bd0ad64+  Sun, 10 Dec 2017 12:18:29 +0000
 Compiler: GNU Fortran 4.8.5; Optimisation: fast
 MATHLIBS: Intel MKL(2018.0.0) (LAPACK version 3.7.0)
 FFT Lib : mkl
 Fundamental constants values: CODATA 2014

 Run started: Tue, 11 Aug 2020 17:23:00 +0100

 Atomic calculation performed for H: 1s1

 Converged in 41 iterations to an ae energy of -12.488 eV

   ============================================================                
   | Pseudopotential Report - Date of generation 11-08-2020   |                
   ------------------------------------------------------------                
   | Element: H Ionic charge:  1.00 Level of theory: PBE      |                
   | Atomic Solver: Koelling-Harmon                           |                
   |                                                          |                
   |               Reference Electronic Structure             |                
   |         Orbital         Occupation         Energy        |                
   |            1s              1.000           -0.239        |                
   |                                                          |                
   |                 Pseudopotential Definition               |                
   |        Beta     l      e      Rc     scheme   norm       |                
   |         loc     0   -0.239   0.702     qc      1         |                
   |                                                          |                
   | No charge augmentation                                   |                
   | No partial core correction                               |                
   ------------------------------------------------------------                
   | "0|0.7|2|6|8|10L(qc=10)"                                 |                
   ------------------------------------------------------------                
   |      Author: Chris J. Pickard, Cambridge University      |                
   ============================================================                

 Pseudo atomic calculation performed for H 1s1

 Converged in 24 iterations to a total energy of -12.4843 eV

 Calculation parallelised over 16 processes.
 Data is distributed by k-point(16-way)

 ************************************ Title ************************************
 

 ***************************** General Parameters ******************************
  
 output verbosity                               : normal  (1)
 write checkpoint data to                       : C2c.check
 type of calculation                            : geometry optimization
 stress calculation                             : on
 density difference calculation                 : off
 electron localisation func (ELF) calculation   : off
 Hirshfeld analysis                             : off
 unlimited duration calculation
 timing information                             : on
 memory usage estimate                          : on
 write extra output files                       : on
 write final potential to formatted file        : off
 write final density to formatted file          : off
 write structure in CELL formatted file         : on
 write BibTeX reference list                    : on
 write OTFG pseudopotential files               : on
 write electrostatic potential file             : on
 write bands file                               : on
 checkpoint writing                             : both castep_bin and check files
  
 output         length unit                     : A
 output           mass unit                     : amu
 output           time unit                     : ps
 output         charge unit                     : e
 output           spin unit                     : hbar/2
 output         energy unit                     : eV
 output          force unit                     : eV/A
 output       velocity unit                     : A/ps
 output       pressure unit                     : GPa
 output     inv_length unit                     : 1/A
 output      frequency unit                     : cm-1
 output force constant unit                     : eV/A**2
 output         volume unit                     : A**3
 output   IR intensity unit                     : (D/A)**2/amu
 output         dipole unit                     : D
 output         efield unit                     : eV/A/e
 output        entropy unit                     : J/mol/K
  
 wavefunctions paging                           : none
 random number generator seed                   : randomised (172300889)
 data distribution                              : optimal for this architecture
 optimization strategy                          : maximize speed(+++)

 *********************** Exchange-Correlation Parameters ***********************
  
 using functional                               : Perdew Burke Ernzerhof
 relativistic treatment                         : Koelling-Harmon
 DFT+D: Semi-empirical dispersion correction    : off

 ************************* Pseudopotential Parameters **************************
  
 pseudopotential representation                 : reciprocal space
 <beta|phi> representation                      : reciprocal space
 spin-orbit coupling                            : off

 **************************** Basis Set Parameters *****************************
  
 plane wave basis set cut-off                   :  1200.0000   eV
 size of standard grid                          :     2.0000
 size of   fine   gmax                          :    35.4943   1/A
 finite basis set correction                    : automatic
 number of sample energies                      :          3
           sample  spacing                      :     5.0000   eV

 **************************** Electronic Parameters ****************************
  
 number of  electrons                           :  24.00    
 net charge of system                           :  0.000    
 treating system as non-spin-polarized
 number of bands                                :         12

 ********************* Electronic Minimization Parameters **********************
  
 Method: Treating system as non-metallic,
         and number of  SD  steps               :          1
         and number of  CG  steps               :          4
  
 total energy / atom convergence tol.           : 0.1000E-10   eV
 eigen-energy convergence tolerance             : 0.2000E-10   eV
 max force / atom convergence tol.              : ignored
 convergence tolerance window                   :          3   cycles
 max. number of SCF cycles                      :        100
 periodic dipole correction                     : NONE

 ************************** Density Mixing Parameters **************************
  
 density-mixing scheme                          : Broyden
 max. length of mixing history                  :         20
 charge density mixing amplitude                : 0.8000    
 cut-off energy for mixing                      :  1200.       eV

 *********************** Population Analysis Parameters ************************
  
 Population analysis with cutoff                :  3.000       A
 Population analysis output                     : summary and pdos components

 ********************** Geometry Optimization Parameters ***********************
  
 optimization method                            : LBFGS
 max. no. of LBFGS updates                      : unbounded
 variable cell method                           : fixed basis quality
 max. number of steps                           :         60
 estimated bulk modulus                         :  500.0       GPa
 estimated <frequency>                          :  1668.       cm-1
 geom line minimiser                            : on
 with line minimiser tolerance                  :     0.4000
 total energy convergence tolerance             : 0.1000E-08   eV/atom
        max ionic |force| tolerance             : 0.1000E-04   eV/A
 max ionic |displacement| tolerance             : 0.1000E-04   A
   max |stress component| tolerance             : 0.1000E-04   GPa
 convergence tolerance window                   :          2   steps
 backup results every                           :      14400   seconds
 write geom trajectory file                     : on

 *******************************************************************************
  

                           -------------------------------
                                      Unit Cell
                           -------------------------------
        Real Lattice(A)                      Reciprocal Lattice(1/A)
     4.9484622     0.0000000    -0.0135167        1.274132678   0.000000000   1.613714452
     0.0000000     2.8392701     0.0000000        0.000000000   2.212957914   0.000000000
    -3.2957684     0.0000000     2.6022239        0.006618223   0.000000000   2.422926605

                       Lattice parameters(A)       Cell Angles
                    a =      4.948481          alpha =   90.000000
                    b =      2.839270          beta  =  141.863112
                    c =      4.199245          gamma =   90.000000

                       Current cell volume =            36.434816       A**3
                                   density =             0.663941   AMU/A**3
                                           =             1.102500     g/cm^3

                           -------------------------------
                                     Cell Contents
                           -------------------------------
                         Total number of ions in cell =   24
                      Total number of species in cell =    1
                        Max number of any one species =   24

            xxxxxxxxxxxxxxxxxxxxxxxxxxxxxxxxxxxxxxxxxxxxxxxxxxxxxxxxxxxx
            x  Element    Atom        Fractional coordinates of atoms  x
            x            Number           u          v          w      x
            x----------------------------------------------------------x
            x  H            1         0.192743  -0.096299   0.253120   x 
            x  H            2         0.356734   0.139178   0.254140   x 
            x  H            3         0.500000   0.141202   0.750000   x 
            x  H            4         0.500000   0.413014   0.750000   x 
            x  H            5         0.807257  -0.096299   0.246880   x 
            x  H            6         0.643266   0.139178   0.245860   x 
            x  H            7         0.692743   0.403701   0.253120   x 
            x  H            8         0.856734   0.639178   0.254140   x 
            x  H            9         0.000000   0.641202   0.750000   x 
            x  H           10         0.000000   0.913014   0.750000   x 
            x  H           11         0.307257   0.403701   0.246880   x 
            x  H           12         0.143266   0.639178   0.245860   x 
            x  H           13         0.307257   0.596299   0.746880   x 
            x  H           14         0.143266   0.360822   0.745860   x 
            x  H           15        -0.000000   0.358798   0.250000   x 
            x  H           16         0.000000   0.086986   0.250000   x 
            x  H           17         0.692743   0.596299   0.753120   x 
            x  H           18         0.856734   0.360822   0.754140   x 
            x  H           19         0.807257   1.096299   0.746880   x 
            x  H           20         0.643266   0.860822   0.745860   x 
            x  H           21         0.500000   0.858798   0.250000   x 
            x  H           22         0.500000   0.586986   0.250000   x 
            x  H           23         0.192743   1.096299   0.753120   x 
            x  H           24         0.356734   0.860822   0.754140   x 
            xxxxxxxxxxxxxxxxxxxxxxxxxxxxxxxxxxxxxxxxxxxxxxxxxxxxxxxxxxxx


                         No user defined ionic velocities

                           -------------------------------
                                   Details of Species
                           -------------------------------

                               Mass of species in AMU
                                    H    1.0079400

                          Electric Quadrupole Moment (Barn)
                                    H    0.0028600 Isotope  2

                          Files used for pseudopotentials:
                                    H 0|0.7|2|6|8|10L(qc=10)

                           -------------------------------
                              k-Points For BZ Sampling
                           -------------------------------
                       MP grid size for SCF calculation is 10 10 10
                            with an offset of   0.000  0.000  0.000
                       Number of kpoints used =           250

                           -------------------------------
                               Symmetry and Constraints
                           -------------------------------

                      Cell is a supercell containing 2 primitive cells
                      Maximum deviation from symmetry = 0.315222E-14     ANG

                      Number of symmetry operations   =           8
                      Number of ionic constraints     =           3
                      Point group of crystal =     5: C2h, 2/m, 2/m
                      Space group of crystal =    15: C2/c, -C 2yc

             Set iprint > 1 for details on symmetry rotations/translations

                         Centre of mass is constrained
             Set iprint > 1 for details of linear ionic constraints

                         Number of cell constraints= 2
                         Cell constraints are:  1 2 3 0 5 0

                         External pressure/stress (GPa)
                        240.00000   0.00000   0.00000
                                  240.00000   0.00000
                                            240.00000
  
+---------------- MEMORY AND SCRATCH DISK ESTIMATES PER PROCESS --------------+
|                                                     Memory          Disk    |
| Baseline code, static data and system overhead      413.0 MB         0.0 MB |
| BLAS internal memory storage                          0.0 MB         0.0 MB |
| Model and support data                               43.2 MB         0.0 MB |
| Electronic energy minimisation requirements          39.6 MB         0.0 MB |
| Force calculation requirements                       11.9 MB         0.0 MB |
| Stress calculation requirements                      15.0 MB         0.0 MB |
|                                               ----------------------------- |
| Approx. total storage required per process          495.9 MB         0.0 MB |
|                                                                             |
| Requirements will fluctuate during execution and may exceed these estimates |
+-----------------------------------------------------------------------------+
Calculating finite basis set correction with  3 cut-off energies.
Calculating total energy with cut-off of 1190.000 eV.
------------------------------------------------------------------------ <-- SCF
SCF loop      Energy                           Energy gain       Timer   <-- SCF
                                               per atom          (sec)   <-- SCF
------------------------------------------------------------------------ <-- SCF
Initial   5.32797581E+002                                          2.92  <-- SCF
      1  -2.91946118E+002                    3.43643208E+001       5.56  <-- SCF
      2  -3.42693569E+002                    2.11447714E+000       7.69  <-- SCF
      3  -3.43046329E+002                    1.46983521E-002      10.64  <-- SCF
      4  -3.43052391E+002                    2.52563168E-004      13.74  <-- SCF
      5  -3.43052954E+002                    2.34484190E-005      16.61  <-- SCF
      6  -3.43053018E+002                    2.67079019E-006      19.71  <-- SCF
      7  -3.43053020E+002                    7.11842973E-008      22.54  <-- SCF
      8  -3.43053020E+002                    3.24886752E-009      24.99  <-- SCF
      9  -3.43053020E+002                    4.10184871E-010      27.05  <-- SCF
     10  -3.43053020E+002                    5.09231682E-011      28.96  <-- SCF
     11  -3.43053020E+002                    2.69157262E-011      30.92  <-- SCF
     12  -3.43053020E+002                    5.49432063E-012      32.87  <-- SCF
     13  -3.43053020E+002                    7.97562673E-013      35.11  <-- SCF
------------------------------------------------------------------------ <-- SCF
 
Final energy =  -343.0530196417     eV
(energy not corrected for finite basis set)
 
Calculating total energy with cut-off of 1195.000 eV.
------------------------------------------------------------------------ <-- SCF
SCF loop      Energy                           Energy gain       Timer   <-- SCF
                                               per atom          (sec)   <-- SCF
------------------------------------------------------------------------ <-- SCF
Initial  -3.43053020E+002                                         36.32  <-- SCF
      1  -3.43054864E+002                    7.68362883E-005      39.12  <-- SCF
      2  -3.43054864E+002                    1.67216265E-010      42.35  <-- SCF
      3  -3.43054864E+002                    2.47654327E-008      45.44  <-- SCF
      4  -3.43054864E+002                    9.75521865E-010      48.64  <-- SCF
      5  -3.43054864E+002                    1.43762686E-011      51.09  <-- SCF
      6  -3.43054864E+002                    5.27680354E-013      53.43  <-- SCF
      7  -3.43054864E+002                    2.61826130E-014      55.71  <-- SCF
------------------------------------------------------------------------ <-- SCF
 
Final energy =  -343.0548643348     eV
(energy not corrected for finite basis set)
 
Calculating total energy with cut-off of 1200.000 eV.
------------------------------------------------------------------------ <-- SCF
SCF loop      Energy                           Energy gain       Timer   <-- SCF
                                               per atom          (sec)   <-- SCF
------------------------------------------------------------------------ <-- SCF
Initial  -3.43054864E+002                                         56.83  <-- SCF
      1  -3.43056672E+002                    7.53155681E-005      59.45  <-- SCF
      2  -3.43056672E+002                    1.66974579E-010      62.59  <-- SCF
      3  -3.43056673E+002                    2.45251529E-008      65.70  <-- SCF
      4  -3.43056673E+002                    9.64698376E-010      68.91  <-- SCF
      5  -3.43056673E+002                    1.36814223E-011      71.28  <-- SCF
      6  -3.43056673E+002                    1.57498487E-012      73.42  <-- SCF
      7  -3.43056673E+002                    1.40983301E-014      75.75  <-- SCF
------------------------------------------------------------------------ <-- SCF
 
Final energy =  -343.0566725246     eV
(energy not corrected for finite basis set)
 
 For future reference: finite basis dEtot/dlog(Ecut) =      -0.436522eV
 Total energy corrected for finite basis set =    -343.056664 eV
 
+---------------- MEMORY AND SCRATCH DISK ESTIMATES PER PROCESS --------------+
|                                                     Memory          Disk    |
| Model and support data                               49.5 MB         0.0 MB |
| Electronic energy minimisation requirements          39.6 MB         0.0 MB |
| Geometry minimisation requirements                   51.8 MB         0.0 MB |
|                                               ----------------------------- |
| Approx. total storage required per process          140.9 MB         0.0 MB |
|                                                                             |
| Requirements will fluctuate during execution and may exceed these estimates |
+-----------------------------------------------------------------------------+
 

 ******************************** Symmetrised Forces ********************************
 *                                                                                  *
 *                           Cartesian components (eV/A)                            *
 * -------------------------------------------------------------------------------- *
 *                         x                    y                    z              *
 *                                                                                  *
 * H               1     -0.00000             -0.00000              0.00000         *
 * H               2      0.00000             -0.00000              0.00000         *
 * H               3      0.00000              0.00000              0.00000         *
 * H               4      0.00000             -0.00000              0.00000         *
 * H               5      0.00000             -0.00000             -0.00000         *
 * H               6     -0.00000             -0.00000             -0.00000         *
 * H               7     -0.00000             -0.00000              0.00000         *
 * H               8      0.00000             -0.00000              0.00000         *
 * H               9      0.00000              0.00000             -0.00000         *
 * H              10      0.00000             -0.00000             -0.00000         *
 * H              11      0.00000             -0.00000             -0.00000         *
 * H              12     -0.00000             -0.00000             -0.00000         *
 * H              13      0.00000              0.00000             -0.00000         *
 * H              14     -0.00000              0.00000             -0.00000         *
 * H              15      0.00000             -0.00000              0.00000         *
 * H              16      0.00000              0.00000              0.00000         *
 * H              17     -0.00000              0.00000              0.00000         *
 * H              18      0.00000              0.00000              0.00000         *
 * H              19      0.00000              0.00000             -0.00000         *
 * H              20     -0.00000              0.00000             -0.00000         *
 * H              21      0.00000             -0.00000              0.00000         *
 * H              22     -0.00000              0.00000             -0.00000         *
 * H              23     -0.00000              0.00000              0.00000         *
 * H              24      0.00000              0.00000              0.00000         *
 *                                                                                  *
 ************************************************************************************

 *********** Symmetrised Stress Tensor ***********
 *                                               *
 *          Cartesian components (GPa)           *
 * --------------------------------------------- *
 *             x             y             z     *
 *                                               *
 *  x   -270.012787      0.000000     -0.000004  *
 *  y      0.000000   -270.012806      0.000000  *
 *  z     -0.000004      0.000000   -270.012776  *
 *                                               *
 *  Pressure:  270.0128                          *
 *                                               *
 *************************************************
 LBFGS: finished iteration     0 with enthalpy= -2.88478687E+002 eV
  
 +-----------+-----------------+-----------------+------------+-----+ <-- LBFGS
 | Parameter |      value      |    tolerance    |    units   | OK? | <-- LBFGS
 +-----------+-----------------+-----------------+------------+-----+ <-- LBFGS
 |  dE/ion   |   0.000000E+000 |   1.000000E-009 |         eV | No  | <-- LBFGS
 |  |F|max   |   6.896175E-007 |   1.000000E-005 |       eV/A | Yes | <-- LBFGS
 |  |dR|max  |   0.000000E+000 |   1.000000E-005 |          A | No  | <-- LBFGS
 |   Smax    |   3.001281E+001 |   1.000000E-005 |        GPa | No  | <-- LBFGS
 +-----------+-----------------+-----------------+------------+-----+ <-- LBFGS
  

================================================================================
 Starting LBFGS iteration          1 ...
================================================================================
  
 +------------+-------------+-------------+-----------------+ <-- min LBFGS
 |    Step    |   lambda    |   F.delta'  |    enthalpy     | <-- min LBFGS
 +------------+-------------+-------------+-----------------+ <-- min LBFGS
 |  previous  |    0.000000 |    0.434433 |     -288.478687 | <-- min LBFGS
 +------------+-------------+-------------+-----------------+ <-- min LBFGS
  

--------------------------------------------------------------------------------
 LBFGS: starting iteration         1 with trial guess (lambda=  1.000000)
--------------------------------------------------------------------------------
 
+---------------- MEMORY AND SCRATCH DISK ESTIMATES PER PROCESS --------------+
|                                                     Memory          Disk    |
| Model and support data                               51.2 MB         0.0 MB |
| Electronic energy minimisation requirements          41.9 MB         0.0 MB |
| Geometry minimisation requirements                   54.7 MB         0.0 MB |
|                                               ----------------------------- |
| Approx. total storage required per process          147.7 MB         0.0 MB |
|                                                                             |
| Requirements will fluctuate during execution and may exceed these estimates |
+-----------------------------------------------------------------------------+
 

                           -------------------------------
                                      Unit Cell
                           -------------------------------
        Real Lattice(A)              Reciprocal Lattice(1/A)
     5.0474737     0.0000000    -0.0137872        1.249139241   0.000000000   1.582059779
     0.0000000     2.8960798     0.0000000        0.000000000   2.169548423   0.000000000
    -3.3617119     0.0000000     2.6542905        0.006488394   0.000000000   2.375398405

                       Lattice parameters(A)       Cell Angles
                    a =      5.047492          alpha =   90.000000
                    b =      2.896080          beta  =  141.863112
                    c =      4.283266          gamma =   90.000000

                Current cell volume =            38.665888 A**3

                           -------------------------------
                                     Cell Contents
                           -------------------------------

            xxxxxxxxxxxxxxxxxxxxxxxxxxxxxxxxxxxxxxxxxxxxxxxxxxxxxxxxxxxxxxxxx
            x  Element         Atom        Fractional coordinates of atoms  x
            x                 Number           u          v          w      x
            x---------------------------------------------------------------x
            x  H                 1         0.192743  -0.096299   0.253120   x
            x  H                 2         0.356734   0.139178   0.254140   x
            x  H                 3         0.500000   0.141202   0.750000   x
            x  H                 4         0.500000   0.413014   0.750000   x
            x  H                 5         0.807257  -0.096299   0.246880   x
            x  H                 6         0.643266   0.139178   0.245860   x
            x  H                 7         0.692743   0.403701   0.253120   x
            x  H                 8         0.856734   0.639178   0.254140   x
            x  H                 9         0.000000   0.641202   0.750000   x
            x  H                10        -0.000000   0.913014   0.750000   x
            x  H                11         0.307257   0.403701   0.246880   x
            x  H                12         0.143266   0.639178   0.245860   x
            x  H                13         0.307257   0.596299   0.746880   x
            x  H                14         0.143266   0.360822   0.745860   x
            x  H                15         0.000000   0.358798   0.250000   x
            x  H                16         0.000000   0.086986   0.250000   x
            x  H                17         0.692743   0.596299   0.753120   x
            x  H                18         0.856734   0.360822   0.754140   x
            x  H                19         0.807257   1.096299   0.746880   x
            x  H                20         0.643266   0.860822   0.745860   x
            x  H                21         0.500000   0.858798   0.250000   x
            x  H                22         0.500000   0.586986   0.250000   x
            x  H                23         0.192743   1.096299   0.753120   x
            x  H                24         0.356734   0.860822   0.754140   x
            xxxxxxxxxxxxxxxxxxxxxxxxxxxxxxxxxxxxxxxxxxxxxxxxxxxxxxxxxxxxxxxxx


------------------------------------------------------------------------ <-- SCF
SCF loop      Energy                           Energy gain       Timer   <-- SCF
                                               per atom          (sec)   <-- SCF
------------------------------------------------------------------------ <-- SCF
Initial  -3.46447936E+002                                         78.64  <-- SCF
      1  -3.46521074E+002                    3.04741870E-003      81.43  <-- SCF
      2  -3.46521502E+002                    1.78081188E-005      84.94  <-- SCF
      3  -3.46521739E+002                    9.86910105E-006      88.31  <-- SCF
      4  -3.46521768E+002                    1.23255884E-006      91.69  <-- SCF
      5  -3.46521769E+002                    2.23779732E-008      95.26  <-- SCF
      6  -3.46521769E+002                    2.01272392E-009      98.73  <-- SCF
      7  -3.46521769E+002                    3.91933576E-012     101.14  <-- SCF
      8  -3.46521769E+002                    3.82668959E-013     103.51  <-- SCF
------------------------------------------------------------------------ <-- SCF
 
Final energy =  -346.5217688009     eV
(energy not corrected for finite basis set)
 

 ******************************** Symmetrised Forces ********************************
 *                                                                                  *
 *                           Cartesian components (eV/A)                            *
 * -------------------------------------------------------------------------------- *
 *                         x                    y                    z              *
 *                                                                                  *
 * H               1     -0.07464             -0.21475             -0.00447         *
 * H               2     -0.08431              0.20559             -0.00503         *
 * H               3      0.00000              0.22720             -0.00000         *
 * H               4      0.00000             -0.24792             -0.00000         *
 * H               5      0.07464             -0.21475              0.00447         *
 * H               6      0.08431              0.20559              0.00503         *
 * H               7     -0.07464             -0.21475             -0.00447         *
 * H               8     -0.08431              0.20559             -0.00503         *
 * H               9      0.00000              0.22720             -0.00000         *
 * H              10      0.00000             -0.24792             -0.00000         *
 * H              11      0.07464             -0.21475              0.00447         *
 * H              12      0.08431              0.20559              0.00503         *
 * H              13      0.07464              0.21475              0.00447         *
 * H              14      0.08431             -0.20559              0.00503         *
 * H              15      0.00000             -0.22720             -0.00000         *
 * H              16     -0.00000              0.24792             -0.00000         *
 * H              17     -0.07464              0.21475             -0.00447         *
 * H              18     -0.08431             -0.20559             -0.00503         *
 * H              19      0.07464              0.21475              0.00447         *
 * H              20      0.08431             -0.20559              0.00503         *
 * H              21      0.00000             -0.22720             -0.00000         *
 * H              22     -0.00000              0.24792             -0.00000         *
 * H              23     -0.07464              0.21475             -0.00447         *
 * H              24     -0.08431             -0.20559             -0.00503         *
 *                                                                                  *
 ************************************************************************************

 *********** Symmetrised Stress Tensor ***********
 *                                               *
 *          Cartesian components (GPa)           *
 * --------------------------------------------- *
 *             x             y             z     *
 *                                               *
 *  x   -230.833789      0.000000      0.155621  *
 *  y      0.000000   -221.408982      0.000000  *
 *  z      0.155621      0.000000   -234.866101  *
 *                                               *
 *  Pressure:  229.0363                          *
 *                                               *
 *************************************************
  
 +------------+-------------+-------------+-----------------+ <-- min LBFGS
 |    Step    |   lambda    |   F.delta'  |    enthalpy     | <-- min LBFGS
 +------------+-------------+-------------+-----------------+ <-- min LBFGS
 |  previous  |    0.000000 |    0.434433 |     -288.478687 | <-- min LBFGS
 | trial step |    1.000000 |   -0.165113 |     -288.601752 | <-- min LBFGS
 +------------+-------------+-------------+-----------------+ <-- min LBFGS
  
 LBFGS: finished iteration     1 with enthalpy= -2.88601752E+002 eV
  
 +-----------+-----------------+-----------------+------------+-----+ <-- LBFGS
 | Parameter |      value      |    tolerance    |    units   | OK? | <-- LBFGS
 +-----------+-----------------+-----------------+------------+-----+ <-- LBFGS
 |  dE/ion   |   5.127738E-003 |   1.000000E-009 |         eV | No  | <-- LBFGS
 |  |F|max   |   2.479183E-001 |   1.000000E-005 |       eV/A | No  | <-- LBFGS
 |  |dR|max  |   6.822427E-008 |   1.000000E-005 |          A | Yes | <-- LBFGS
 |   Smax    |   1.859102E+001 |   1.000000E-005 |        GPa | No  | <-- LBFGS
 +-----------+-----------------+-----------------+------------+-----+ <-- LBFGS
  

================================================================================
 Starting LBFGS iteration          2 ...
================================================================================
  
 +------------+-------------+-------------+-----------------+ <-- min LBFGS
 |    Step    |   lambda    |   F.delta'  |    enthalpy     | <-- min LBFGS
 +------------+-------------+-------------+-----------------+ <-- min LBFGS
 |  previous  |    0.000000 |    0.153365 |     -288.601752 | <-- min LBFGS
 +------------+-------------+-------------+-----------------+ <-- min LBFGS
  

--------------------------------------------------------------------------------
 LBFGS: starting iteration         2 with trial guess (lambda=  1.000000)
--------------------------------------------------------------------------------

                           -------------------------------
                                      Unit Cell
                           -------------------------------
        Real Lattice(A)              Reciprocal Lattice(1/A)
     5.0428150     0.0000000    -0.0141889        1.250414786   0.000000000   1.580474542
     0.0000000     2.8799570     0.0000000        0.000000000   2.181694136   0.000000000
    -3.3588120     0.0000000     2.6573716        0.006676507   0.000000000   2.372874940

                       Lattice parameters(A)       Cell Angles
                    a =      5.042835          alpha =   90.000000
                    b =      2.879957          beta  =  141.811430
                    c =      4.282901          gamma =   90.000000

                Current cell volume =            38.455996 A**3

                           -------------------------------
                                     Cell Contents
                           -------------------------------

            xxxxxxxxxxxxxxxxxxxxxxxxxxxxxxxxxxxxxxxxxxxxxxxxxxxxxxxxxxxxxxxxx
            x  Element         Atom        Fractional coordinates of atoms  x
            x                 Number           u          v          w      x
            x---------------------------------------------------------------x
            x  H                 1         0.191576  -0.101722   0.252991   x
            x  H                 2         0.355416   0.144368   0.253995   x
            x  H                 3         0.500000   0.146938   0.750000   x
            x  H                 4         0.500000   0.406755   0.750000   x
            x  H                 5         0.808424  -0.101722   0.247009   x
            x  H                 6         0.644584   0.144368   0.246005   x
            x  H                 7         0.691576   0.398278   0.252991   x
            x  H                 8         0.855416   0.644368   0.253995   x
            x  H                 9         0.000000   0.646938   0.750000   x
            x  H                10        -0.000000   0.906755   0.750000   x
            x  H                11         0.308424   0.398278   0.247009   x
            x  H                12         0.144584   0.644368   0.246005   x
            x  H                13         0.308424   0.601722   0.747009   x
            x  H                14         0.144584   0.355632   0.746005   x
            x  H                15         0.000000   0.353062   0.250000   x
            x  H                16         0.000000   0.093245   0.250000   x
            x  H                17         0.691576   0.601722   0.752991   x
            x  H                18         0.855416   0.355632   0.753995   x
            x  H                19         0.808424   1.101722   0.747009   x
            x  H                20         0.644584   0.855632   0.746005   x
            x  H                21         0.500000   0.853062   0.250000   x
            x  H                22         0.500000   0.593245   0.250000   x
            x  H                23         0.191576   1.101722   0.752991   x
            x  H                24         0.355416   0.855632   0.753995   x
            xxxxxxxxxxxxxxxxxxxxxxxxxxxxxxxxxxxxxxxxxxxxxxxxxxxxxxxxxxxxxxxxx


------------------------------------------------------------------------ <-- SCF
SCF loop      Energy                           Energy gain       Timer   <-- SCF
                                               per atom          (sec)   <-- SCF
------------------------------------------------------------------------ <-- SCF
Initial  -3.45508304E+002                                        106.58  <-- SCF
      1  -3.46235025E+002                    3.02800581E-002     109.30  <-- SCF
      2  -3.46243326E+002                    3.45874449E-004     112.87  <-- SCF
      3  -3.46196082E+002                   -1.96851922E-003     116.32  <-- SCF
      4  -3.46194156E+002                   -8.02382851E-005     119.83  <-- SCF
      5  -3.46194156E+002                   -7.19111508E-009     123.14  <-- SCF
      6  -3.46197915E+002                    1.56648443E-004     126.54  <-- SCF
      7  -3.46198253E+002                    1.40856253E-005     129.72  <-- SCF
      8  -3.46198255E+002                    4.88142554E-008     133.29  <-- SCF
      9  -3.46198255E+002                    1.81537147E-009     136.72  <-- SCF
     10  -3.46198255E+002                   -2.96841749E-009     140.46  <-- SCF
     11  -3.46198254E+002                   -6.51982108E-009     143.93  <-- SCF
     12  -3.46198254E+002                    1.29946322E-011     146.60  <-- SCF
     13  -3.46198254E+002                    1.26482161E-012     148.98  <-- SCF
     14  -3.46198254E+002                   -2.81966601E-014     151.53  <-- SCF
------------------------------------------------------------------------ <-- SCF
 
Final energy =  -346.1982544440     eV
(energy not corrected for finite basis set)
 

 ******************************** Symmetrised Forces ********************************
 *                                                                                  *
 *                           Cartesian components (eV/A)                            *
 * -------------------------------------------------------------------------------- *
 *                         x                    y                    z              *
 *                                                                                  *
 * H               1      0.12170              0.26479              0.04127         *
 * H               2      0.11263             -0.31938              0.01581         *
 * H               3      0.00000             -0.57362             -0.00000         *
 * H               4      0.00000              0.37563             -0.00000         *
 * H               5     -0.12170              0.26479             -0.04127         *
 * H               6     -0.11263             -0.31938             -0.01581         *
 * H               7      0.12170              0.26479              0.04127         *
 * H               8      0.11263             -0.31938              0.01581         *
 * H               9      0.00000             -0.57362             -0.00000         *
 * H              10      0.00000              0.37563             -0.00000         *
 * H              11     -0.12170              0.26479             -0.04127         *
 * H              12     -0.11263             -0.31938             -0.01581         *
 * H              13     -0.12170             -0.26479             -0.04127         *
 * H              14     -0.11263              0.31938             -0.01581         *
 * H              15      0.00000              0.57362             -0.00000         *
 * H              16      0.00000             -0.37563             -0.00000         *
 * H              17      0.12170             -0.26479              0.04127         *
 * H              18      0.11263              0.31938              0.01581         *
 * H              19     -0.12170             -0.26479             -0.04127         *
 * H              20     -0.11263              0.31938             -0.01581         *
 * H              21      0.00000              0.57362             -0.00000         *
 * H              22     -0.00000             -0.37563             -0.00000         *
 * H              23      0.12170             -0.26479              0.04127         *
 * H              24      0.11263              0.31938              0.01581         *
 *                                                                                  *
 ************************************************************************************

 *********** Symmetrised Stress Tensor ***********
 *                                               *
 *          Cartesian components (GPa)           *
 * --------------------------------------------- *
 *             x             y             z     *
 *                                               *
 *  x   -241.273722      0.000000      0.019165  *
 *  y      0.000000   -248.079152      0.000000  *
 *  z      0.019165      0.000000   -233.259699  *
 *                                               *
 *  Pressure:  240.8709                          *
 *                                               *
 *************************************************
  
 +------------+-------------+-------------+-----------------+ <-- min LBFGS
 |    Step    |   lambda    |   F.delta'  |    enthalpy     | <-- min LBFGS
 +------------+-------------+-------------+-----------------+ <-- min LBFGS
 |  previous  |    0.000000 |    0.153365 |     -288.601752 | <-- min LBFGS
 | trial step |    1.000000 |   -0.208254 |     -288.592624 | <-- min LBFGS
 +------------+-------------+-------------+-----------------+ <-- min LBFGS
  

--------------------------------------------------------------------------------
 LBFGS: improving iteration         2 with line minimization (lambda=  0.424107)
--------------------------------------------------------------------------------

                           -------------------------------
                                      Unit Cell
                           -------------------------------
        Real Lattice(A)              Reciprocal Lattice(1/A)
     5.0454979     0.0000000    -0.0139575        1.249679950   0.000000000   1.581387034
     0.0000000     2.8892420     0.0000000        0.000000000   2.174682951   0.000000000
    -3.3604820     0.0000000     2.6555972        0.006568179   0.000000000   2.374327527

                       Lattice parameters(A)       Cell Angles
                    a =      5.045517          alpha =   90.000000
                    b =      2.889242          beta  =  141.841193
                    c =      4.283111          gamma =   90.000000

                Current cell volume =            38.576888 A**3

                           -------------------------------
                                     Cell Contents
                           -------------------------------

            xxxxxxxxxxxxxxxxxxxxxxxxxxxxxxxxxxxxxxxxxxxxxxxxxxxxxxxxxxxxxxxxx
            x  Element         Atom        Fractional coordinates of atoms  x
            x                 Number           u          v          w      x
            x---------------------------------------------------------------x
            x  H                 1         0.192248  -0.098599   0.253066   x
            x  H                 2         0.356175   0.141379   0.254079   x
            x  H                 3         0.500000   0.143634   0.750000   x
            x  H                 4         0.500000   0.410360   0.750000   x
            x  H                 5         0.807752  -0.098599   0.246934   x
            x  H                 6         0.643825   0.141379   0.245921   x
            x  H                 7         0.692248   0.401401   0.253066   x
            x  H                 8         0.856175   0.641379   0.254079   x
            x  H                 9         0.000000   0.643634   0.750000   x
            x  H                10        -0.000000   0.910360   0.750000   x
            x  H                11         0.307752   0.401401   0.246934   x
            x  H                12         0.143825   0.641379   0.245921   x
            x  H                13         0.307752   0.598599   0.746934   x
            x  H                14         0.143825   0.358621   0.745921   x
            x  H                15         0.000000   0.356366   0.250000   x
            x  H                16         0.000000   0.089640   0.250000   x
            x  H                17         0.692248   0.598599   0.753066   x
            x  H                18         0.856175   0.358621   0.754079   x
            x  H                19         0.807752   1.098599   0.746934   x
            x  H                20         0.643825   0.858621   0.745921   x
            x  H                21         0.500000   0.856366   0.250000   x
            x  H                22         0.500000   0.589640   0.250000   x
            x  H                23         0.192248   1.098599   0.753066   x
            x  H                24         0.356175   0.858621   0.754079   x
            xxxxxxxxxxxxxxxxxxxxxxxxxxxxxxxxxxxxxxxxxxxxxxxxxxxxxxxxxxxxxxxxx


------------------------------------------------------------------------ <-- SCF
SCF loop      Energy                           Energy gain       Timer   <-- SCF
                                               per atom          (sec)   <-- SCF
------------------------------------------------------------------------ <-- SCF
Initial  -3.46189763E+002                                        154.64  <-- SCF
      1  -3.46434255E+002                    1.01871700E-002     157.36  <-- SCF
      2  -3.46435315E+002                    4.41635234E-005     160.93  <-- SCF
      3  -3.46419416E+002                   -6.62444428E-004     164.46  <-- SCF
      4  -3.46418774E+002                   -2.67453291E-005     168.02  <-- SCF
      5  -3.46418774E+002                   -1.07285794E-008     171.77  <-- SCF
      6  -3.46418774E+002                    9.58481012E-010     175.43  <-- SCF
      7  -3.46418774E+002                    2.12562537E-011     177.83  <-- SCF
      8  -3.46418774E+002                    5.57085443E-012     180.30  <-- SCF
      9  -3.46418774E+002                   -3.34331827E-013     182.73  <-- SCF
------------------------------------------------------------------------ <-- SCF
 
Final energy =  -346.4187738766     eV
(energy not corrected for finite basis set)
 

 ******************************** Symmetrised Forces ********************************
 *                                                                                  *
 *                           Cartesian components (eV/A)                            *
 * -------------------------------------------------------------------------------- *
 *                         x                    y                    z              *
 *                                                                                  *
 * H               1      0.00050             -0.03956              0.01509         *
 * H               2     -0.00845              0.01199              0.00313         *
 * H               3      0.00000             -0.07374              0.00000         *
 * H               4     -0.00000             -0.02035              0.00000         *
 * H               5     -0.00050             -0.03956             -0.01509         *
 * H               6      0.00845              0.01199             -0.00313         *
 * H               7      0.00050             -0.03956              0.01509         *
 * H               8     -0.00845              0.01199              0.00313         *
 * H               9      0.00000             -0.07374              0.00000         *
 * H              10     -0.00000             -0.02035              0.00000         *
 * H              11     -0.00050             -0.03956             -0.01509         *
 * H              12      0.00845              0.01199             -0.00313         *
 * H              13     -0.00050              0.03956             -0.01509         *
 * H              14      0.00845             -0.01199             -0.00313         *
 * H              15      0.00000              0.07374              0.00000         *
 * H              16      0.00000              0.02035              0.00000         *
 * H              17      0.00050              0.03956              0.01509         *
 * H              18     -0.00845             -0.01199              0.00313         *
 * H              19     -0.00050              0.03956             -0.01509         *
 * H              20      0.00845             -0.01199             -0.00313         *
 * H              21     -0.00000              0.07374              0.00000         *
 * H              22      0.00000              0.02035              0.00000         *
 * H              23      0.00050              0.03956              0.01509         *
 * H              24     -0.00845             -0.01199              0.00313         *
 *                                                                                  *
 ************************************************************************************

 *********** Symmetrised Stress Tensor ***********
 *                                               *
 *          Cartesian components (GPa)           *
 * --------------------------------------------- *
 *             x             y             z     *
 *                                               *
 *  x   -236.154914      0.000000      0.117969  *
 *  y      0.000000   -230.859472      0.000000  *
 *  z      0.117969      0.000000   -234.434528  *
 *                                               *
 *  Pressure:  233.8163                          *
 *                                               *
 *************************************************
  
 +------------+-------------+-------------+-----------------+ <-- min LBFGS
 |    Step    |   lambda    |   F.delta'  |    enthalpy     | <-- min LBFGS
 +------------+-------------+-------------+-----------------+ <-- min LBFGS
 |  previous  |    0.000000 |    0.153365 |     -288.601752 | <-- min LBFGS
 | trial step |    1.000000 |   -0.208254 |     -288.592624 | <-- min LBFGS
 |  line step |    0.424107 |    0.019562 |     -288.632064 | <-- min LBFGS
 +------------+-------------+-------------+-----------------+ <-- min LBFGS
  
 LBFGS: finished iteration     2 with enthalpy= -2.88632064E+002 eV
  
 +-----------+-----------------+-----------------+------------+-----+ <-- LBFGS
 | Parameter |      value      |    tolerance    |    units   | OK? | <-- LBFGS
 +-----------+-----------------+-----------------+------------+-----+ <-- LBFGS
 |  dE/ion   |   1.262985E-003 |   1.000000E-009 |         eV | No  | <-- LBFGS
 |  |F|max   |   7.373824E-002 |   1.000000E-005 |       eV/A | No  | <-- LBFGS
 |  |dR|max  |   7.669947E-003 |   1.000000E-005 |          A | No  | <-- LBFGS
 |   Smax    |   9.140528E+000 |   1.000000E-005 |        GPa | No  | <-- LBFGS
 +-----------+-----------------+-----------------+------------+-----+ <-- LBFGS
  

================================================================================
 Starting LBFGS iteration          3 ...
================================================================================
  
 +------------+-------------+-------------+-----------------+ <-- min LBFGS
 |    Step    |   lambda    |   F.delta'  |    enthalpy     | <-- min LBFGS
 +------------+-------------+-------------+-----------------+ <-- min LBFGS
 |  previous  |    0.000000 |    0.081933 |     -288.632064 | <-- min LBFGS
 +------------+-------------+-------------+-----------------+ <-- min LBFGS
  

--------------------------------------------------------------------------------
 LBFGS: starting iteration         3 with trial guess (lambda=  1.000000)
--------------------------------------------------------------------------------

                           -------------------------------
                                      Unit Cell
                           -------------------------------
        Real Lattice(A)              Reciprocal Lattice(1/A)
     5.0329007     0.0000000    -0.0143173        1.252939598   0.000000000   1.587958795
     0.0000000     2.8716983     0.0000000        0.000000000   2.187968494   0.000000000
    -3.3523100     0.0000000     2.6450573        0.006781978   0.000000000   2.384039320

                       Lattice parameters(A)       Cell Angles
                    a =      5.032921          alpha =   90.000000
                    b =      2.871698          beta  =  141.888659
                    c =      4.270165          gamma =   90.000000

                Current cell volume =            38.091109 A**3

                           -------------------------------
                                     Cell Contents
                           -------------------------------

            xxxxxxxxxxxxxxxxxxxxxxxxxxxxxxxxxxxxxxxxxxxxxxxxxxxxxxxxxxxxxxxxx
            x  Element         Atom        Fractional coordinates of atoms  x
            x                 Number           u          v          w      x
            x---------------------------------------------------------------x
            x  H                 1         0.192843  -0.099508   0.253742   x
            x  H                 2         0.356235   0.141218   0.254233   x
            x  H                 3         0.500000   0.139990   0.750000   x
            x  H                 4         0.500000   0.410319   0.750000   x
            x  H                 5         0.807157  -0.099508   0.246258   x
            x  H                 6         0.643765   0.141218   0.245767   x
            x  H                 7         0.692843   0.400492   0.253742   x
            x  H                 8         0.856235   0.641218   0.254233   x
            x  H                 9         0.000000   0.639990   0.750000   x
            x  H                10        -0.000000   0.910319   0.750000   x
            x  H                11         0.307157   0.400492   0.246258   x
            x  H                12         0.143765   0.641218   0.245767   x
            x  H                13         0.307157   0.599508   0.746258   x
            x  H                14         0.143765   0.358782   0.745767   x
            x  H                15         0.000000   0.360010   0.250000   x
            x  H                16         0.000000   0.089681   0.250000   x
            x  H                17         0.692843   0.599508   0.753742   x
            x  H                18         0.856235   0.358782   0.754233   x
            x  H                19         0.807157   1.099508   0.746258   x
            x  H                20         0.643765   0.858782   0.745767   x
            x  H                21         0.500000   0.860010   0.250000   x
            x  H                22         0.500000   0.589681   0.250000   x
            x  H                23         0.192843   1.099508   0.753742   x
            x  H                24         0.356235   0.858782   0.754233   x
            xxxxxxxxxxxxxxxxxxxxxxxxxxxxxxxxxxxxxxxxxxxxxxxxxxxxxxxxxxxxxxxxx


------------------------------------------------------------------------ <-- SCF
SCF loop      Energy                           Energy gain       Timer   <-- SCF
                                               per atom          (sec)   <-- SCF
------------------------------------------------------------------------ <-- SCF
Initial  -3.45656566E+002                                        186.14  <-- SCF
      1  -3.45703472E+002                    1.95440414E-003     188.87  <-- SCF
      2  -3.45703847E+002                    1.56096965E-005     192.40  <-- SCF
      3  -3.45696992E+002                   -2.85601707E-004     195.93  <-- SCF
      4  -3.45697009E+002                    7.00828554E-007     199.58  <-- SCF
      5  -3.45697010E+002                    5.05666496E-008     203.10  <-- SCF
      6  -3.45697097E+002                    3.63187169E-006     206.56  <-- SCF
      7  -3.45697394E+002                    1.23432723E-005     208.95  <-- SCF
      8  -3.45697401E+002                    3.11744853E-007     212.40  <-- SCF
      9  -3.45697402E+002                    5.21507461E-008     215.75  <-- SCF
     10  -3.45697402E+002                   -5.76098048E-010     218.17  <-- SCF
     11  -3.45697402E+002                   -4.11145773E-009     221.60  <-- SCF
     12  -3.45697402E+002                    7.95548625E-012     224.20  <-- SCF
     13  -3.45697402E+002                    1.06341690E-012     226.52  <-- SCF
------------------------------------------------------------------------ <-- SCF
 
Final energy =  -345.6974023596     eV
(energy not corrected for finite basis set)
 

 ******************************** Symmetrised Forces ********************************
 *                                                                                  *
 *                           Cartesian components (eV/A)                            *
 * -------------------------------------------------------------------------------- *
 *                         x                    y                    z              *
 *                                                                                  *
 * H               1     -0.01303              0.09077             -0.00779         *
 * H               2      0.01871             -0.06882             -0.00079         *
 * H               3      0.00000              0.14110              0.00000         *
 * H               4     -0.00000             -0.13379              0.00000         *
 * H               5      0.01303              0.09077              0.00779         *
 * H               6     -0.01871             -0.06882              0.00079         *
 * H               7     -0.01303              0.09077             -0.00779         *
 * H               8      0.01871             -0.06882             -0.00079         *
 * H               9      0.00000              0.14110              0.00000         *
 * H              10      0.00000             -0.13379              0.00000         *
 * H              11      0.01303              0.09077              0.00779         *
 * H              12     -0.01871             -0.06882              0.00079         *
 * H              13      0.01303             -0.09077              0.00779         *
 * H              14     -0.01871              0.06882              0.00079         *
 * H              15     -0.00000             -0.14110              0.00000         *
 * H              16     -0.00000              0.13379              0.00000         *
 * H              17     -0.01303             -0.09077             -0.00779         *
 * H              18      0.01871              0.06882             -0.00079         *
 * H              19      0.01303             -0.09077              0.00779         *
 * H              20     -0.01871              0.06882              0.00079         *
 * H              21      0.00000             -0.14110              0.00000         *
 * H              22      0.00000              0.13379              0.00000         *
 * H              23     -0.01303             -0.09077             -0.00779         *
 * H              24      0.01871              0.06882             -0.00079         *
 *                                                                                  *
 ************************************************************************************

 *********** Symmetrised Stress Tensor ***********
 *                                               *
 *          Cartesian components (GPa)           *
 * --------------------------------------------- *
 *             x             y             z     *
 *                                               *
 *  x   -244.061176      0.000000      0.281236  *
 *  y      0.000000   -241.297553      0.000000  *
 *  z      0.281236      0.000000   -240.915086  *
 *                                               *
 *  Pressure:  242.0913                          *
 *                                               *
 *************************************************
  
 +------------+-------------+-------------+-----------------+ <-- min LBFGS
 |    Step    |   lambda    |   F.delta'  |    enthalpy     | <-- min LBFGS
 +------------+-------------+-------------+-----------------+ <-- min LBFGS
 |  previous  |    0.000000 |    0.081933 |     -288.632064 | <-- min LBFGS
 | trial step |    1.000000 |   -0.041758 |     -288.638348 | <-- min LBFGS
 +------------+-------------+-------------+-----------------+ <-- min LBFGS
  
 LBFGS: finished iteration     3 with enthalpy= -2.88638348E+002 eV
  
 +-----------+-----------------+-----------------+------------+-----+ <-- LBFGS
 | Parameter |      value      |    tolerance    |    units   | OK? | <-- LBFGS
 +-----------+-----------------+-----------------+------------+-----+ <-- LBFGS
 |  dE/ion   |   2.618441E-004 |   1.000000E-009 |         eV | No  | <-- LBFGS
 |  |F|max   |   1.410957E-001 |   1.000000E-005 |       eV/A | No  | <-- LBFGS
 |  |dR|max  |   1.046510E-002 |   1.000000E-005 |          A | No  | <-- LBFGS
 |   Smax    |   4.061176E+000 |   1.000000E-005 |        GPa | No  | <-- LBFGS
 +-----------+-----------------+-----------------+------------+-----+ <-- LBFGS
  

================================================================================
 Starting LBFGS iteration          4 ...
================================================================================
  
 +------------+-------------+-------------+-----------------+ <-- min LBFGS
 |    Step    |   lambda    |   F.delta'  |    enthalpy     | <-- min LBFGS
 +------------+-------------+-------------+-----------------+ <-- min LBFGS
 |  previous  |    0.000000 |    0.051596 |     -288.638348 | <-- min LBFGS
 +------------+-------------+-------------+-----------------+ <-- min LBFGS
  

--------------------------------------------------------------------------------
 LBFGS: starting iteration         4 with trial guess (lambda=  1.000000)
--------------------------------------------------------------------------------

                           -------------------------------
                                      Unit Cell
                           -------------------------------
        Real Lattice(A)              Reciprocal Lattice(1/A)
     5.0372559     0.0000000    -0.0150850        1.252104385   0.000000000   1.589983744
     0.0000000     2.8669056     0.0000000        0.000000000   2.191626180   0.000000000
    -3.3556212     0.0000000     2.6425352        0.007147664   0.000000000   2.386787539

                       Lattice parameters(A)       Cell Angles
                    a =      5.037278          alpha =   90.000000
                    b =      2.866906          beta  =  141.951324
                    c =      4.271204          gamma =   90.000000

                Current cell volume =            38.016620 A**3

                           -------------------------------
                                     Cell Contents
                           -------------------------------

            xxxxxxxxxxxxxxxxxxxxxxxxxxxxxxxxxxxxxxxxxxxxxxxxxxxxxxxxxxxxxxxxx
            x  Element         Atom        Fractional coordinates of atoms  x
            x                 Number           u          v          w      x
            x---------------------------------------------------------------x
            x  H                 1         0.192773  -0.097721   0.253799   x
            x  H                 2         0.356503   0.139535   0.254273   x
            x  H                 3         0.500000   0.141803   0.750000   x
            x  H                 4         0.500000   0.407300   0.750000   x
            x  H                 5         0.807227  -0.097721   0.246201   x
            x  H                 6         0.643497   0.139535   0.245727   x
            x  H                 7         0.692773   0.402279   0.253799   x
            x  H                 8         0.856503   0.639535   0.254273   x
            x  H                 9         0.000000   0.641803   0.750000   x
            x  H                10        -0.000000   0.907300   0.750000   x
            x  H                11         0.307227   0.402279   0.246201   x
            x  H                12         0.143497   0.639535   0.245727   x
            x  H                13         0.307227   0.597721   0.746201   x
            x  H                14         0.143497   0.360465   0.745727   x
            x  H                15         0.000000   0.358197   0.250000   x
            x  H                16         0.000000   0.092700   0.250000   x
            x  H                17         0.692773   0.597721   0.753799   x
            x  H                18         0.856503   0.360465   0.754273   x
            x  H                19         0.807227   1.097721   0.746201   x
            x  H                20         0.643497   0.860465   0.745727   x
            x  H                21         0.500000   0.858197   0.250000   x
            x  H                22         0.500000   0.592700   0.250000   x
            x  H                23         0.192773   1.097721   0.753799   x
            x  H                24         0.356503   0.860465   0.754273   x
            xxxxxxxxxxxxxxxxxxxxxxxxxxxxxxxxxxxxxxxxxxxxxxxxxxxxxxxxxxxxxxxxx


------------------------------------------------------------------------ <-- SCF
SCF loop      Energy                           Energy gain       Timer   <-- SCF
                                               per atom          (sec)   <-- SCF
------------------------------------------------------------------------ <-- SCF
Initial  -3.45507927E+002                                        229.43  <-- SCF
      1  -3.45595879E+002                    3.66466265E-003     232.26  <-- SCF
      2  -3.45596588E+002                    2.95365774E-005     236.11  <-- SCF
      3  -3.45581666E+002                   -6.21729835E-004     239.58  <-- SCF
      4  -3.45581685E+002                    7.82043046E-007     243.14  <-- SCF
      5  -3.45581687E+002                    8.54192825E-008     246.66  <-- SCF
      6  -3.45581687E+002                   -2.13287392E-009     249.96  <-- SCF
      7  -3.45581687E+002                    6.55229960E-011     252.65  <-- SCF
      8  -3.45581687E+002                    2.27587328E-012     255.30  <-- SCF
      9  -3.45581687E+002                   -1.00702358E-013     257.74  <-- SCF
------------------------------------------------------------------------ <-- SCF
 
Final energy =  -345.5816868709     eV
(energy not corrected for finite basis set)
 

 ******************************** Symmetrised Forces ********************************
 *                                                                                  *
 *                           Cartesian components (eV/A)                            *
 * -------------------------------------------------------------------------------- *
 *                         x                    y                    z              *
 *                                                                                  *
 * H               1     -0.02918             -0.07325             -0.00923         *
 * H               2     -0.07057              0.11343             -0.01545         *
 * H               3     -0.00000             -0.20625              0.00000         *
 * H               4     -0.00000              0.26047             -0.00000         *
 * H               5      0.02918             -0.07325              0.00923         *
 * H               6      0.07057              0.11343              0.01545         *
 * H               7     -0.02918             -0.07325             -0.00923         *
 * H               8     -0.07057              0.11343             -0.01545         *
 * H               9     -0.00000             -0.20625              0.00000         *
 * H              10     -0.00000              0.26047              0.00000         *
 * H              11      0.02918             -0.07325              0.00923         *
 * H              12      0.07057              0.11343              0.01545         *
 * H              13      0.02918              0.07325              0.00923         *
 * H              14      0.07057             -0.11343              0.01545         *
 * H              15     -0.00000              0.20625             -0.00000         *
 * H              16     -0.00000             -0.26047              0.00000         *
 * H              17     -0.02918              0.07325             -0.00923         *
 * H              18     -0.07057             -0.11343             -0.01545         *
 * H              19      0.02918              0.07325              0.00923         *
 * H              20      0.07057             -0.11343              0.01545         *
 * H              21     -0.00000              0.20625              0.00000         *
 * H              22     -0.00000             -0.26047              0.00000         *
 * H              23     -0.02918              0.07325             -0.00923         *
 * H              24     -0.07057             -0.11343             -0.01545         *
 *                                                                                  *
 ************************************************************************************

 *********** Symmetrised Stress Tensor ***********
 *                                               *
 *          Cartesian components (GPa)           *
 * --------------------------------------------- *
 *             x             y             z     *
 *                                               *
 *  x   -243.611070      0.000000      0.219307  *
 *  y      0.000000   -243.807440      0.000000  *
 *  z      0.219307      0.000000   -242.310771  *
 *                                               *
 *  Pressure:  243.2431                          *
 *                                               *
 *************************************************
  
 +------------+-------------+-------------+-----------------+ <-- min LBFGS
 |    Step    |   lambda    |   F.delta'  |    enthalpy     | <-- min LBFGS
 +------------+-------------+-------------+-----------------+ <-- min LBFGS
 |  previous  |    0.000000 |    0.051596 |     -288.638348 | <-- min LBFGS
 | trial step |    1.000000 |   -0.081839 |     -288.634234 | <-- min LBFGS
 +------------+-------------+-------------+-----------------+ <-- min LBFGS
  

--------------------------------------------------------------------------------
 LBFGS: improving iteration         4 with line minimization (lambda=  0.386676)
--------------------------------------------------------------------------------

                           -------------------------------
                                      Unit Cell
                           -------------------------------
        Real Lattice(A)              Reciprocal Lattice(1/A)
     5.0345847     0.0000000    -0.0146141        1.252616395   0.000000000   1.588741272
     0.0000000     2.8698450     0.0000000        0.000000000   2.189381384   0.000000000
    -3.3535904     0.0000000     2.6440821        0.006923354   0.000000000   2.385101226

                       Lattice parameters(A)       Cell Angles
                    a =      5.034606          alpha =   90.000000
                    b =      2.869845          beta  =  141.912895
                    c =      4.270567          gamma =   90.000000

                Current cell volume =            38.062311 A**3

                           -------------------------------
                                     Cell Contents
                           -------------------------------

            xxxxxxxxxxxxxxxxxxxxxxxxxxxxxxxxxxxxxxxxxxxxxxxxxxxxxxxxxxxxxxxxx
            x  Element         Atom        Fractional coordinates of atoms  x
            x                 Number           u          v          w      x
            x---------------------------------------------------------------x
            x  H                 1         0.192816  -0.098817   0.253764   x
            x  H                 2         0.356339   0.140567   0.254248   x
            x  H                 3         0.500000   0.140691   0.750000   x
            x  H                 4         0.500000   0.409152   0.750000   x
            x  H                 5         0.807184  -0.098817   0.246236   x
            x  H                 6         0.643661   0.140567   0.245752   x
            x  H                 7         0.692816   0.401183   0.253764   x
            x  H                 8         0.856339   0.640567   0.254248   x
            x  H                 9         0.000000   0.640691   0.750000   x
            x  H                10        -0.000000   0.909152   0.750000   x
            x  H                11         0.307184   0.401183   0.246236   x
            x  H                12         0.143661   0.640567   0.245752   x
            x  H                13         0.307184   0.598817   0.746236   x
            x  H                14         0.143661   0.359433   0.745752   x
            x  H                15         0.000000   0.359309   0.250000   x
            x  H                16         0.000000   0.090848   0.250000   x
            x  H                17         0.692816   0.598817   0.753764   x
            x  H                18         0.856339   0.359433   0.754248   x
            x  H                19         0.807184   1.098817   0.746236   x
            x  H                20         0.643661   0.859433   0.745752   x
            x  H                21         0.500000   0.859309   0.250000   x
            x  H                22         0.500000   0.590848   0.250000   x
            x  H                23         0.192816   1.098817   0.753764   x
            x  H                24         0.356339   0.859433   0.754248   x
            xxxxxxxxxxxxxxxxxxxxxxxxxxxxxxxxxxxxxxxxxxxxxxxxxxxxxxxxxxxxxxxxx


------------------------------------------------------------------------ <-- SCF
[...]
      H    23      S                    0.990
      H    24      S                    1.005
  -------------------------------------------
                           Total:      24.000
  -------------------------------------------

     Atomic Populations (Mulliken)
     -----------------------------
Species          Ion     s      p      d      f     Total  Charge (e)
=====================================================================
  H               1     0.99   0.00   0.00   0.00   0.99     0.01
  H               2     1.01   0.00   0.00   0.00   1.01    -0.01
  H               3     1.02   0.00   0.00   0.00   1.02    -0.02
  H               4     0.98   0.00   0.00   0.00   0.98     0.02
  H               5     0.99   0.00   0.00   0.00   0.99     0.01
  H               6     1.01   0.00   0.00   0.00   1.01    -0.01
  H               7     0.99   0.00   0.00   0.00   0.99     0.01
  H               8     1.01   0.00   0.00   0.00   1.01    -0.01
  H               9     1.02   0.00   0.00   0.00   1.02    -0.02
  H              10     0.98   0.00   0.00   0.00   0.98     0.02
  H              11     0.99   0.00   0.00   0.00   0.99     0.01
  H              12     1.01   0.00   0.00   0.00   1.01    -0.01
  H              13     0.99   0.00   0.00   0.00   0.99     0.01
  H              14     1.01   0.00   0.00   0.00   1.01    -0.01
  H              15     1.02   0.00   0.00   0.00   1.02    -0.02
  H              16     0.98   0.00   0.00   0.00   0.98     0.02
  H              17     0.99   0.00   0.00   0.00   0.99     0.01
  H              18     1.01   0.00   0.00   0.00   1.01    -0.01
  H              19     0.99   0.00   0.00   0.00   0.99     0.01
  H              20     1.01   0.00   0.00   0.00   1.01    -0.01
  H              21     1.02   0.00   0.00   0.00   1.02    -0.02
  H              22     0.98   0.00   0.00   0.00   0.98     0.02
  H              23     0.99   0.00   0.00   0.00   0.99     0.01
  H              24     1.01   0.00   0.00   0.00   1.01    -0.01
=====================================================================

                 Bond                   Population      Length (A)
======================================================================
              H 15 -- H 16                   1.41        0.76990
              H 3  -- H 4                    1.41        0.76990
              H 21 -- H 22                   1.41        0.76990
              H 9  -- H 10                   1.41        0.76990
              H 13 -- H 24                   1.35        0.77961
              H 17 -- H 20                   1.35        0.77961
              H 14 -- H 23                   1.35        0.77961
              H 18 -- H 19                   1.35        0.77961
              H 2  -- H 11                   1.35        0.77961
              H 6  -- H 7                    1.35        0.77961
              H 1  -- H 12                   1.35        0.77961
              H 5  -- H 8                    1.35        0.77961
              H 5  -- H 6                    0.22        1.07093
              H 7  -- H 8                    0.22        1.07093
              H 19 -- H 20                   0.22        1.07093
              H 11 -- H 12                   0.22        1.07093
              H 17 -- H 18                   0.22        1.07093
              H 1  -- H 2                    0.22        1.07093
              H 23 -- H 24                   0.22        1.07093
              H 13 -- H 14                   0.22        1.07093
              H 9  -- H 14                   0.10        1.09726
              H 9  -- H 18                   0.10        1.09726
              H 2  -- H 21                   0.10        1.09726
              H 6  -- H 21                   0.10        1.09726
              H 8  -- H 15                   0.10        1.09726
              H 12 -- H 15                   0.10        1.09726
              H 3  -- H 24                   0.10        1.09726
              H 3  -- H 20                   0.10        1.09726
              H 11 -- H 22                   0.23        1.10173
              H 1  -- H 16                   0.23        1.10173
              H 7  -- H 22                   0.23        1.10173
              H 5  -- H 16                   0.23        1.10173
              H 10 -- H 23                   0.23        1.10173
              H 4  -- H 13                   0.23        1.10173
              H 10 -- H 19                   0.23        1.10173
              H 4  -- H 17                   0.23        1.10173
              H 12 -- H 17                  -0.14        1.45035
              H 2  -- H 19                  -0.14        1.45035
              H 7  -- H 14                  -0.14        1.45035
              H 5  -- H 24                  -0.14        1.45035
              H 6  -- H 23                  -0.14        1.45035
              H 11 -- H 18                  -0.14        1.45035
              H 8  -- H 13                  -0.14        1.45035
              H 1  -- H 20                  -0.14        1.45035
              H 5  -- H 23                  -0.13        1.46201
              H 1  -- H 19                  -0.13        1.46201
              H 11 -- H 17                  -0.13        1.46201
              H 7  -- H 13                  -0.13        1.46201
              H 9  -- H 11                  -0.09        1.47006
              H 7  -- H 9                   -0.09        1.47006
              H 3  -- H 5                   -0.09        1.47006
              H 1  -- H 3                   -0.09        1.47006
              H 21 -- H 23                  -0.09        1.47006
              H 19 -- H 21                  -0.09        1.47006
              H 15 -- H 17                  -0.09        1.47006
              H 13 -- H 15                  -0.09        1.47006
              H 20 -- H 24                  -0.03        1.49460
              H 14 -- H 18                  -0.03        1.49460
              H 8  -- H 12                  -0.03        1.49460
              H 2  -- H 6                   -0.03        1.49460
              H 4  -- H 8                   -0.14        1.49667
              H 18 -- H 22                  -0.14        1.49667
              H 16 -- H 24                  -0.14        1.49667
              H 16 -- H 20                  -0.14        1.49667
              H 14 -- H 22                  -0.14        1.49667
              H 2  -- H 10                  -0.14        1.49667
              H 4  -- H 12                  -0.14        1.49667
              H 6  -- H 10                  -0.14        1.49667
              H 8  -- H 16                  -0.36        1.49827
              H 4  -- H 20                  -0.36        1.49827
              H 2  -- H 22                  -0.36        1.49827
              H 4  -- H 24                  -0.36        1.49827
              H 10 -- H 14                  -0.36        1.49827
              H 6  -- H 22                  -0.36        1.49827
              H 12 -- H 16                  -0.36        1.49827
              H 10 -- H 18                  -0.36        1.49827
              H 17 -- H 22                  -0.01        1.51572
              H 16 -- H 19                  -0.01        1.51572
              H 16 -- H 23                  -0.01        1.51572
              H 5  -- H 10                  -0.01        1.51572
              H 4  -- H 7                   -0.01        1.51572
              H 13 -- H 22                  -0.01        1.51572
              H 1  -- H 10                  -0.01        1.51572
              H 4  -- H 11                  -0.01        1.51572
              H 12 -- H 18                  -0.13        1.55232
              H 6  -- H 24                  -0.13        1.55232
              H 8  -- H 14                  -0.13        1.55232
              H 2  -- H 20                  -0.13        1.55232
              H 17 -- H 19                  -0.38        1.56207
              H 5  -- H 7                   -0.38        1.56207
              H 13 -- H 23                  -0.38        1.56207
              H 1  -- H 11                  -0.38        1.56207
              H 10 -- H 21                  -0.16        1.56624
              H 9  -- H 22                  -0.16        1.56624
              H 4  -- H 15                  -0.16        1.56624
              H 3  -- H 16                  -0.16        1.56624
              H 9  -- H 17                  -0.06        1.57492
              H 3  -- H 19                  -0.06        1.57492
              H 5  -- H 21                  -0.06        1.57492
              H 7  -- H 15                  -0.06        1.57492
              H 9  -- H 13                  -0.06        1.57492
              H 3  -- H 23                  -0.06        1.57492
              H 1  -- H 21                  -0.06        1.57492
              H 11 -- H 15                  -0.06        1.57492
              H 11 -- H 14                  -0.04        1.58000
              H 1  -- H 24                  -0.04        1.58000
              H 12 -- H 13                  -0.04        1.58000
              H 7  -- H 18                  -0.04        1.58000
              H 5  -- H 20                  -0.04        1.58000
              H 2  -- H 23                  -0.04        1.58000
              H 8  -- H 17                  -0.04        1.58000
              H 6  -- H 19                  -0.04        1.58000
              H 8  -- H 20                  -0.05        1.60692
              H 2  -- H 14                  -0.05        1.60692
              H 12 -- H 24                  -0.05        1.60692
              H 6  -- H 18                  -0.05        1.60692
              H 9  -- H 12                  -0.06        1.61145
              H 3  -- H 6                   -0.06        1.61145
              H 21 -- H 24                  -0.06        1.61145
              H 20 -- H 21                  -0.06        1.61145
              H 15 -- H 18                  -0.06        1.61145
              H 14 -- H 15                  -0.06        1.61145
              H 8  -- H 9                   -0.06        1.61145
              H 2  -- H 3                   -0.06        1.61145
              H 1  -- H 15                  -0.44        1.62783
              H 5  -- H 15                  -0.44        1.62783
              H 11 -- H 21                  -0.44        1.62783
              H 3  -- H 13                  -0.44        1.62783
              H 7  -- H 21                  -0.44        1.62783
              H 3  -- H 17                  -0.44        1.62783
              H 9  -- H 23                  -0.44        1.62783
              H 9  -- H 19                  -0.44        1.62783
              H 12 -- H 20                  -0.23        1.67700
              H 6  -- H 14                  -0.23        1.67700
              H 8  -- H 24                  -0.23        1.67700
              H 2  -- H 18                  -0.23        1.67700
              H 3  -- H 15                  -0.25        1.69367
              H 9  -- H 21                  -0.25        1.69367
              H 15 -- H 19                  -0.07        1.70151
              H 17 -- H 21                  -0.07        1.70151
              H 15 -- H 23                  -0.07        1.70151
              H 13 -- H 21                  -0.07        1.70151
              H 3  -- H 7                   -0.07        1.70151
              H 3  -- H 11                  -0.07        1.70151
              H 5  -- H 9                   -0.07        1.70151
              H 1  -- H 9                   -0.07        1.70151
              H 14 -- H 24                  -0.43        1.76832
              H 6  -- H 8                   -0.43        1.76832
              H 2  -- H 12                  -0.43        1.76832
              H 18 -- H 20                  -0.43        1.76832
              H 10 -- H 12                  -0.08        1.77632
              H 4  -- H 6                   -0.08        1.77632
              H 22 -- H 24                  -0.08        1.77632
              H 20 -- H 22                  -0.08        1.77632
              H 16 -- H 18                  -0.08        1.77632
              H 14 -- H 16                  -0.08        1.77632
              H 8  -- H 10                  -0.08        1.77632
              H 2  -- H 4                   -0.08        1.77632
              H 12 -- H 22                  -0.13        1.78440
              H 10 -- H 24                  -0.13        1.78440
              H 10 -- H 20                  -0.13        1.78440
              H 4  -- H 18                  -0.13        1.78440
              H 4  -- H 14                  -0.13        1.78440
              H 8  -- H 22                  -0.13        1.78440
              H 6  -- H 16                  -0.13        1.78440
              H 2  -- H 16                  -0.13        1.78440
              H 10 -- H 22                  -0.30        1.79532
              H 4  -- H 16                  -0.30        1.79532
              H 5  -- H 13                  -0.32        1.79852
              H 11 -- H 19                  -0.32        1.79852
              H 7  -- H 23                  -0.32        1.79852
              H 1  -- H 17                  -0.32        1.79852
              H 10 -- H 17                  -0.23        1.80428
              H 4  -- H 19                  -0.23        1.80428
              H 10 -- H 13                  -0.23        1.80428
              H 4  -- H 23                  -0.23        1.80428
              H 7  -- H 16                  -0.23        1.80428
              H 5  -- H 22                  -0.23        1.80428
              H 1  -- H 22                  -0.23        1.80428
              H 11 -- H 16                  -0.23        1.80428
              H 11 -- H 20                  -0.23        1.84894
              H 7  -- H 24                  -0.23        1.84894
              H 5  -- H 14                  -0.23        1.84894
              H 1  -- H 18                  -0.23        1.84894
              H 12 -- H 19                  -0.23        1.84894
              H 8  -- H 23                  -0.23        1.84894
              H 6  -- H 13                  -0.23        1.84894
              H 2  -- H 17                  -0.23        1.84894
              H 13 -- H 20                  -0.19        1.86136
              H 18 -- H 23                  -0.19        1.86136
              H 1  -- H 8                   -0.19        1.86136
              H 6  -- H 11                  -0.19        1.86136
              H 17 -- H 24                  -0.19        1.86136
              H 2  -- H 7                   -0.19        1.86136
              H 14 -- H 19                  -0.19        1.86136
              H 5  -- H 12                  -0.19        1.86136
              H 6  -- H 15                  -0.17        1.88820
              H 3  -- H 18                  -0.17        1.88820
              H 3  -- H 14                  -0.17        1.88820
              H 2  -- H 15                  -0.17        1.88820
              H 12 -- H 21                  -0.17        1.88820
              H 9  -- H 24                  -0.17        1.88820
              H 9  -- H 20                  -0.17        1.88820
              H 8  -- H 21                  -0.17        1.88820
              H 1  -- H 13                  -0.09        1.90426
              H 11 -- H 23                  -0.09        1.90426
              H 5  -- H 17                  -0.09        1.90426
              H 7  -- H 19                  -0.09        1.90426
              H 7  -- H 11                  -0.12        1.91193
              H 1  -- H 5                   -0.12        1.91193
              H 13 -- H 17                  -0.12        1.91193
              H 19 -- H 23                  -0.12        1.91193
              H 2  -- H 9                   -0.28        1.94037
              H 18 -- H 21                  -0.28        1.94037
              H 14 -- H 21                  -0.28        1.94037
              H 6  -- H 9                   -0.28        1.94037
              H 15 -- H 24                  -0.28        1.94037
              H 15 -- H 20                  -0.28        1.94037
              H 3  -- H 8                   -0.28        1.94037
              H 3  -- H 12                  -0.28        1.94037
              H 10 -- H 11                  -0.20        1.94279
              H 7  -- H 10                  -0.20        1.94279
              H 4  -- H 5                   -0.20        1.94279
              H 1  -- H 4                   -0.20        1.94279
              H 22 -- H 23                  -0.20        1.94279
              H 19 -- H 22                  -0.20        1.94279
              H 16 -- H 17                  -0.20        1.94279
              H 13 -- H 16                  -0.20        1.94279
              H 5  -- H 19                  -0.07        2.20858
              H 1  -- H 23                  -0.07        2.20858
              H 11 -- H 13                  -0.07        2.20858
              H 7  -- H 17                  -0.07        2.20858
              H 10 -- H 16                  -0.07        2.21019
              H 4  -- H 22                  -0.07        2.21019
              H 9  -- H 15                  -0.03        2.27855
              H 3  -- H 21                  -0.03        2.27855
              H 12 -- H 14                  -0.04        2.29415
              H 6  -- H 20                  -0.04        2.29415
              H 8  -- H 18                  -0.04        2.29415
              H 2  -- H 24                  -0.04        2.29415
              H 7  -- H 20                  -0.02        2.37676
              H 8  -- H 19                  -0.02        2.37676
              H 5  -- H 18                  -0.02        2.37676
              H 11 -- H 24                  -0.02        2.37676
              H 1  -- H 14                  -0.02        2.37676
              H 6  -- H 17                  -0.02        2.37676
              H 12 -- H 23                  -0.02        2.37676
              H 2  -- H 13                  -0.02        2.37676
              H 2  -- H 5                    0.04        2.41687
              H 19 -- H 24                   0.04        2.41687
              H 14 -- H 17                   0.04        2.41687
              H 7  -- H 12                   0.04        2.41687
              H 20 -- H 23                   0.04        2.41687
              H 8  -- H 11                   0.04        2.41687
              H 13 -- H 18                   0.04        2.41687
              H 1  -- H 6                    0.04        2.41687
              H 10 -- H 15                  -0.02        2.51515
              H 3  -- H 22                  -0.02        2.51515
              H 9  -- H 16                  -0.02        2.51515
              H 4  -- H 21                  -0.02        2.51515
              H 4  -- H 9                    0.05        2.61266
              H 16 -- H 21                   0.05        2.61266
              H 15 -- H 22                   0.05        2.61266
              H 3  -- H 10                   0.05        2.61266
======================================================================


Writing analysis data to C2c.castep_bin

Writing model to C2c.check
 
 A BibTeX formatted list of references used in this run has been written to 
 C2c.bib
 
Initialisation time =      1.64 s
Calculation time    =    838.84 s
Finalisation time   =      5.78 s
Total time          =    846.26 s
Peak Memory Use     = 539572 kB
  
Overall parallel efficiency rating: Very good (88%)                             
  
Data was distributed by:-
k-point (16-way); efficiency rating: Very good (88%)                            
