 +-------------------------------------------------+
 |                                                 |
 |      CCC   AA    SSS  TTTTT  EEEEE  PPPP        |
 |     C     A  A  S       T    E      P   P       |
 |     C     AAAA   SS     T    EEE    PPPP        |
 |     C     A  A     S    T    E      P           |
 |      CCC  A  A  SSS     T    EEEEE  P           |
 |                                                 |
 +-------------------------------------------------+
 |                                                 |
 | Welcome to Academic Release CASTEP version 18.1 |          
 | Ab Initio Total Energy Program                  |
 |                                                 |
 | Authors:                                        |
 | M. Segall, M. Probert, C. Pickard, P. Hasnip,   |
 | S. Clark, K. Refson, J. R. Yates, M. Payne      |
 |                                                 |
 | Contributors:                                   |
 | P. Lindan, P. Haynes, J. White, V. Milman,      |
 | N. Govind, M. Gibson, P. Tulip, V. Cocula,      |
 | B. Montanari, D. Quigley, M. Glover,            |
 | L. Bernasconi, A. Perlov, M. Plummer,           |
 | E. McNellis, J. Meyer, J. Gale, D. Jochym       |
 | J. Aarons, B. Walker, R. Gillen, D. Jones       |
 | T. Green, I. J. Bush, C. J. Armstrong,          |
 | E. J. Higgins, E. L. Brown, M. S. McFly,        |
 | J. Wilkins, B-C. Shih, P. J. P. Byrne           |
 |                                                 |
 | Copyright (c) 2000 - 2017                       |
 |                                                 |
 |     Distributed under the terms of an           |
 |     Agreement between the United Kingdom        |
 |     Car-Parrinello (UKCP) Consortium,           |
 |     Daresbury Laboratory and Accelrys, Inc.     |
 |                                                 |
 | Please cite                                     |
 |                                                 |
 |     "First principles methods using CASTEP"     |
 |                                                 |
 |         Zeitschrift fuer Kristallographie       |
 |           220(5-6) pp. 567-570 (2005)           |
 |                                                 |
 | S. J. Clark, M. D. Segall, C. J. Pickard,       |
 | P. J. Hasnip, M. J. Probert, K. Refson,         |
 | M. C. Payne                                     |
 |                                                 |
 |       in all publications arising from          |
 |              your use of CASTEP                 |
 |                                                 |
 +-------------------------------------------------+


 Compiled for linux_x86_64_gfortran4.8 on Thu, 19 Jul 2018 15:42:32 +0100
 from code version 70483bd0ad64+  Sun, 10 Dec 2017 12:18:29 +0000
 Compiler: GNU Fortran 4.8.5; Optimisation: fast
 MATHLIBS: Intel MKL(2018.0.0) (LAPACK version 3.7.0)
 FFT Lib : mkl
 Fundamental constants values: CODATA 2014

 Run started: Tue, 11 Aug 2020 16:58:16 +0100

 Atomic calculation performed for H: 1s1

 Converged in 41 iterations to an ae energy of -12.488 eV

   ============================================================                
   | Pseudopotential Report - Date of generation 11-08-2020   |                
   ------------------------------------------------------------                
   | Element: H Ionic charge:  1.00 Level of theory: PBE      |                
   | Atomic Solver: Koelling-Harmon                           |                
   |                                                          |                
   |               Reference Electronic Structure             |                
   |         Orbital         Occupation         Energy        |                
   |            1s              1.000           -0.239        |                
   |                                                          |                
   |                 Pseudopotential Definition               |                
   |        Beta     l      e      Rc     scheme   norm       |                
   |         loc     0   -0.239   0.702     qc      1         |                
   |                                                          |                
   | No charge augmentation                                   |                
   | No partial core correction                               |                
   ------------------------------------------------------------                
   | "0|0.7|2|6|8|10L(qc=10)"                                 |                
   ------------------------------------------------------------                
   |      Author: Chris J. Pickard, Cambridge University      |                
   ============================================================                

 Pseudo atomic calculation performed for H 1s1

 Converged in 24 iterations to a total energy of -12.4843 eV

 Calculation parallelised over 16 processes.
 Data is distributed by k-point(16-way)

 ************************************ Title ************************************
 

 ***************************** General Parameters ******************************
  
 output verbosity                               : normal  (1)
 write checkpoint data to                       : C2c.check
 type of calculation                            : geometry optimization
 stress calculation                             : on
 density difference calculation                 : off
 electron localisation func (ELF) calculation   : off
 Hirshfeld analysis                             : off
 unlimited duration calculation
 timing information                             : on
 memory usage estimate                          : on
 write extra output files                       : on
 write final potential to formatted file        : off
 write final density to formatted file          : off
 write structure in CELL formatted file         : on
 write BibTeX reference list                    : on
 write OTFG pseudopotential files               : on
 write electrostatic potential file             : on
 write bands file                               : on
 checkpoint writing                             : both castep_bin and check files
  
 output         length unit                     : A
 output           mass unit                     : amu
 output           time unit                     : ps
 output         charge unit                     : e
 output           spin unit                     : hbar/2
 output         energy unit                     : eV
 output          force unit                     : eV/A
 output       velocity unit                     : A/ps
 output       pressure unit                     : GPa
 output     inv_length unit                     : 1/A
 output      frequency unit                     : cm-1
 output force constant unit                     : eV/A**2
 output         volume unit                     : A**3
 output   IR intensity unit                     : (D/A)**2/amu
 output         dipole unit                     : D
 output         efield unit                     : eV/A/e
 output        entropy unit                     : J/mol/K
  
 wavefunctions paging                           : none
 random number generator seed                   : randomised (165816530)
 data distribution                              : optimal for this architecture
 optimization strategy                          : maximize speed(+++)

 *********************** Exchange-Correlation Parameters ***********************
  
 using functional                               : Perdew Burke Ernzerhof
 relativistic treatment                         : Koelling-Harmon
 DFT+D: Semi-empirical dispersion correction    : off

 ************************* Pseudopotential Parameters **************************
  
 pseudopotential representation                 : reciprocal space
 <beta|phi> representation                      : reciprocal space
 spin-orbit coupling                            : off

 **************************** Basis Set Parameters *****************************
  
 plane wave basis set cut-off                   :  1200.0000   eV
 size of standard grid                          :     2.0000
 size of   fine   gmax                          :    35.4943   1/A
 finite basis set correction                    : automatic
 number of sample energies                      :          3
           sample  spacing                      :     5.0000   eV

 **************************** Electronic Parameters ****************************
  
 number of  electrons                           :  24.00    
 net charge of system                           :  0.000    
 treating system as non-spin-polarized
 number of bands                                :         12

 ********************* Electronic Minimization Parameters **********************
  
 Method: Treating system as non-metallic,
         and number of  SD  steps               :          1
         and number of  CG  steps               :          4
  
 total energy / atom convergence tol.           : 0.1000E-10   eV
 eigen-energy convergence tolerance             : 0.2000E-10   eV
 max force / atom convergence tol.              : ignored
 convergence tolerance window                   :          3   cycles
 max. number of SCF cycles                      :        100
 periodic dipole correction                     : NONE

 ************************** Density Mixing Parameters **************************
  
 density-mixing scheme                          : Broyden
 max. length of mixing history                  :         20
 charge density mixing amplitude                : 0.8000    
 cut-off energy for mixing                      :  1200.       eV

 *********************** Population Analysis Parameters ************************
  
 Population analysis with cutoff                :  3.000       A
 Population analysis output                     : summary and pdos components

 ********************** Geometry Optimization Parameters ***********************
  
 optimization method                            : LBFGS
 max. no. of LBFGS updates                      : unbounded
 variable cell method                           : fixed basis quality
 max. number of steps                           :         60
 estimated bulk modulus                         :  500.0       GPa
 estimated <frequency>                          :  1668.       cm-1
 geom line minimiser                            : on
 with line minimiser tolerance                  :     0.4000
 total energy convergence tolerance             : 0.1000E-08   eV/atom
        max ionic |force| tolerance             : 0.1000E-04   eV/A
 max ionic |displacement| tolerance             : 0.1000E-04   A
   max |stress component| tolerance             : 0.1000E-04   GPa
 convergence tolerance window                   :          2   steps
 backup results every                           :      14400   seconds
 write geom trajectory file                     : on

 *******************************************************************************
  

                           -------------------------------
                                      Unit Cell
                           -------------------------------
        Real Lattice(A)                      Reciprocal Lattice(1/A)
     4.8296548     0.0000000    -0.0217552        1.307851356   0.000000000   1.529991097
     0.0000000     2.6507581     0.0000000        0.000000000   2.370335247   0.000000000
    -3.2206744     0.0000000     2.7530639        0.010334897   0.000000000   2.294342153

                       Lattice parameters(A)       Cell Angles
                    a =      4.829704          alpha =   90.000000
                    b =      2.650758          beta  =  139.733942
                    c =      4.236992          gamma =   90.000000

                       Current cell volume =            35.059674       A**3
                                   density =             0.689982   AMU/A**3
                                           =             1.145743     g/cm^3

                           -------------------------------
                                     Cell Contents
                           -------------------------------
                         Total number of ions in cell =   24
                      Total number of species in cell =    1
                        Max number of any one species =   24

            xxxxxxxxxxxxxxxxxxxxxxxxxxxxxxxxxxxxxxxxxxxxxxxxxxxxxxxxxxxx
            x  Element    Atom        Fractional coordinates of atoms  x
            x            Number           u          v          w      x
            x----------------------------------------------------------x
            x  H            1         0.188380  -0.086626   0.252375   x 
            x  H            2         0.352176   0.122983   0.250879   x 
            x  H            3         0.500000   0.133826   0.750000   x 
            x  H            4         0.500000   0.428805   0.750000   x 
            x  H            5         0.811620  -0.086626   0.247625   x 
            x  H            6         0.647824   0.122983   0.249121   x 
            x  H            7         0.688380   0.413374   0.252375   x 
            x  H            8         0.852176   0.622983   0.250879   x 
            x  H            9        -0.000000   0.633826   0.750000   x 
            x  H           10        -0.000000   0.928805   0.750000   x 
            x  H           11         0.311620   0.413374   0.247625   x 
            x  H           12         0.147824   0.622983   0.249121   x 
            x  H           13         0.311620   0.586626   0.747625   x 
            x  H           14         0.147824   0.377017   0.749121   x 
            x  H           15        -0.000000   0.366174   0.250000   x 
            x  H           16        -0.000000   0.071195   0.250000   x 
            x  H           17         0.688380   0.586626   0.752375   x 
            x  H           18         0.852176   0.377017   0.750879   x 
            x  H           19         0.811620   1.086626   0.747625   x 
            x  H           20         0.647824   0.877017   0.749121   x 
            x  H           21         0.500000   0.866174   0.250000   x 
            x  H           22         0.500000   0.571195   0.250000   x 
            x  H           23         0.188380   1.086626   0.752375   x 
            x  H           24         0.352176   0.877017   0.750879   x 
            xxxxxxxxxxxxxxxxxxxxxxxxxxxxxxxxxxxxxxxxxxxxxxxxxxxxxxxxxxxx


                         No user defined ionic velocities

                           -------------------------------
                                   Details of Species
                           -------------------------------

                               Mass of species in AMU
                                    H    1.0079400

                          Electric Quadrupole Moment (Barn)
                                    H    0.0028600 Isotope  2

                          Files used for pseudopotentials:
                                    H 0|0.7|2|6|8|10L(qc=10)

                           -------------------------------
                              k-Points For BZ Sampling
                           -------------------------------
                       MP grid size for SCF calculation is 10 10 10
                            with an offset of   0.000  0.000  0.000
                       Number of kpoints used =           250

                           -------------------------------
                               Symmetry and Constraints
                           -------------------------------

                      Cell is a supercell containing 2 primitive cells
                      Maximum deviation from symmetry = 0.625666E-15     ANG

                      Number of symmetry operations   =           8
                      Number of ionic constraints     =           3
                      Point group of crystal =     5: C2h, 2/m, 2/m
                      Space group of crystal =    15: C2/c, -C 2yc

             Set iprint > 1 for details on symmetry rotations/translations

                         Centre of mass is constrained
             Set iprint > 1 for details of linear ionic constraints

                         Number of cell constraints= 2
                         Cell constraints are:  1 2 3 0 5 0

                         External pressure/stress (GPa)
                        300.00000   0.00000   0.00000
                                  300.00000   0.00000
                                            300.00000
  
+---------------- MEMORY AND SCRATCH DISK ESTIMATES PER PROCESS --------------+
|                                                     Memory          Disk    |
| Baseline code, static data and system overhead      413.0 MB         0.0 MB |
| BLAS internal memory storage                          0.0 MB         0.0 MB |
| Model and support data                               39.5 MB         0.0 MB |
| Electronic energy minimisation requirements          36.9 MB         0.0 MB |
| Force calculation requirements                        9.9 MB         0.0 MB |
| Stress calculation requirements                      12.5 MB         0.0 MB |
|                                               ----------------------------- |
| Approx. total storage required per process          489.4 MB         0.0 MB |
|                                                                             |
| Requirements will fluctuate during execution and may exceed these estimates |
+-----------------------------------------------------------------------------+
Calculating finite basis set correction with  3 cut-off energies.
Calculating total energy with cut-off of 1190.000 eV.
------------------------------------------------------------------------ <-- SCF
SCF loop      Energy                           Energy gain       Timer   <-- SCF
                                               per atom          (sec)   <-- SCF
------------------------------------------------------------------------ <-- SCF
Initial   5.28556689E+002                                          2.52  <-- SCF
      1  -2.90700601E+002                    3.41357204E+001       5.21  <-- SCF
      2  -3.39363056E+002                    2.02760230E+000       7.02  <-- SCF
      3  -3.39524101E+002                    6.71021870E-003       9.68  <-- SCF
      4  -3.39526328E+002                    9.27730934E-005      12.40  <-- SCF
      5  -3.39527325E+002                    4.15414955E-005      15.26  <-- SCF
      6  -3.39527536E+002                    8.78012272E-006      18.01  <-- SCF
      7  -3.39527588E+002                    2.17393088E-006      20.62  <-- SCF
      8  -3.39527613E+002                    1.02782803E-006      23.57  <-- SCF
      9  -3.39527626E+002                    5.57253265E-007      25.65  <-- SCF
     10  -3.39527631E+002                    2.06671670E-007      28.33  <-- SCF
     11  -3.39527634E+002                    1.31352945E-007      31.30  <-- SCF
     12  -3.39527637E+002                    1.04144108E-007      33.31  <-- SCF
     13  -3.39527639E+002                    9.35873675E-008      35.49  <-- SCF
     14  -3.39527640E+002                    6.98975991E-008      37.38  <-- SCF
     15  -3.39527642E+002                    5.77665722E-008      39.27  <-- SCF
     16  -3.39527643E+002                    4.76550263E-008      41.16  <-- SCF
     17  -3.39527644E+002                    4.07012103E-008      43.38  <-- SCF
     18  -3.39527645E+002                    3.48087024E-008      45.40  <-- SCF
     19  -3.39527646E+002                    2.97488259E-008      47.36  <-- SCF
     20  -3.39527646E+002                    2.56089157E-008      49.16  <-- SCF
     21  -3.39527647E+002                    2.22694604E-008      50.96  <-- SCF
     22  -3.39527647E+002                    1.92195827E-008      52.80  <-- SCF
     23  -3.39527648E+002                    1.67466087E-008      54.74  <-- SCF
     24  -3.39527648E+002                    1.44584518E-008      56.73  <-- SCF
     25  -3.39527648E+002                    1.24700173E-008      58.60  <-- SCF
     26  -3.39527648E+002                    1.09060734E-008      60.47  <-- SCF
     27  -3.39527649E+002                    9.63719952E-009      62.39  <-- SCF
     28  -3.39527649E+002                    8.35365129E-009      64.39  <-- SCF
     29  -3.39527649E+002                    7.67172715E-009      66.41  <-- SCF
     30  -3.39527649E+002                    6.59036711E-009      68.39  <-- SCF
     31  -3.39527649E+002                    6.36231454E-009      70.21  <-- SCF
     32  -3.39527649E+002                    5.19567974E-009      72.08  <-- SCF
     33  -3.39527650E+002                    4.94515040E-009      74.13  <-- SCF
     34  -3.39527650E+002                    4.11960657E-009      76.29  <-- SCF
     35  -3.39527650E+002                    3.67216182E-009      78.17  <-- SCF
     36  -3.39527650E+002                    3.05672339E-009      80.12  <-- SCF
     37  -3.39527650E+002                    2.76167958E-009      82.17  <-- SCF
     38  -3.39527650E+002                    2.29902476E-009      84.14  <-- SCF
     39  -3.39527650E+002                    1.96821550E-009      86.10  <-- SCF
     40  -3.39527650E+002                    1.66526051E-009      88.18  <-- SCF
     41  -3.39527650E+002                    1.27409227E-009      90.07  <-- SCF
     42  -3.39527650E+002                    1.09117651E-009      92.07  <-- SCF
     43  -3.39527650E+002                    9.62015665E-010      93.91  <-- SCF
     44  -3.39527650E+002                    8.26093665E-010      95.99  <-- SCF
     45  -3.39527650E+002                    6.85817294E-010      98.10  <-- SCF
     46  -3.39527650E+002                    5.83306322E-010      99.93  <-- SCF
     47  -3.39527650E+002                    5.08313277E-010     101.69  <-- SCF
     48  -3.39527650E+002                    4.29507640E-010     103.57  <-- SCF
     49  -3.39527650E+002                    4.07975462E-010     105.54  <-- SCF
     50  -3.39527650E+002                    3.34130423E-010     107.40  <-- SCF
     51  -3.39527650E+002                    2.60462620E-010     109.25  <-- SCF
     52  -3.39527650E+002                    2.21126265E-010     111.49  <-- SCF
     53  -3.39527650E+002                    1.92055508E-010     113.45  <-- SCF
     54  -3.39527650E+002                    1.61063351E-010     115.42  <-- SCF
     55  -3.39527650E+002                    1.42860393E-010     117.35  <-- SCF
     56  -3.39527650E+002                    1.21183203E-010     119.40  <-- SCF
     57  -3.39527650E+002                    9.13873896E-011     121.19  <-- SCF
     58  -3.39527650E+002                    7.64149630E-011     123.44  <-- SCF
     59  -3.39527650E+002                    6.52027625E-011     125.39  <-- SCF
     60  -3.39527650E+002                    5.41738403E-011     127.58  <-- SCF
     61  -3.39527650E+002                    4.62767614E-011     129.36  <-- SCF
     62  -3.39527650E+002                    3.72618864E-011     131.52  <-- SCF
     63  -3.39527650E+002                    5.27801197E-011     133.48  <-- SCF
     64  -3.39527650E+002                    3.97915296E-011     135.46  <-- SCF
     65  -3.39527650E+002                    3.02026511E-011     137.38  <-- SCF
     66  -3.39527650E+002                    2.29641656E-011     139.41  <-- SCF
     67  -3.39527650E+002                    1.85977114E-011     141.22  <-- SCF
     68  -3.39527650E+002                    1.46582352E-011     143.20  <-- SCF
     69  -3.39527650E+002                    1.26462021E-011     145.13  <-- SCF
     70  -3.39527650E+002                    8.42073115E-012     147.20  <-- SCF
     71  -3.39527650E+002                    4.22144283E-012     149.11  <-- SCF
     72  -3.39527650E+002                   -8.45899804E-013     151.19  <-- SCF
------------------------------------------------------------------------ <-- SCF
 
Final energy =  -339.5276502819     eV
(energy not corrected for finite basis set)
 
Calculating total energy with cut-off of 1195.000 eV.
------------------------------------------------------------------------ <-- SCF
SCF loop      Energy                           Energy gain       Timer   <-- SCF
                                               per atom          (sec)   <-- SCF
------------------------------------------------------------------------ <-- SCF
Initial  -3.39527650E+002                                        152.36  <-- SCF
      1  -3.39529582E+002                    8.04899178E-005     154.48  <-- SCF
      2  -3.39529582E+002                    2.49433698E-010     157.16  <-- SCF
      3  -3.39529583E+002                    2.44090592E-008     160.23  <-- SCF
      4  -3.39529583E+002                    1.01205064E-009     162.94  <-- SCF
      5  -3.39529583E+002                    7.73998321E-012     164.82  <-- SCF
      6  -3.39529583E+002                    1.58505511E-012     166.67  <-- SCF
------------------------------------------------------------------------ <-- SCF
 
Final energy =  -339.5295826563     eV
(energy not corrected for finite basis set)
 
Calculating total energy with cut-off of 1200.000 eV.
------------------------------------------------------------------------ <-- SCF
SCF loop      Energy                           Energy gain       Timer   <-- SCF
                                               per atom          (sec)   <-- SCF
------------------------------------------------------------------------ <-- SCF
Initial  -3.39529583E+002                                        167.83  <-- SCF
      1  -3.39531502E+002                    7.99846994E-005     170.02  <-- SCF
      2  -3.39531502E+002                    2.22896612E-010     172.96  <-- SCF
      3  -3.39531503E+002                    2.50974283E-008     175.88  <-- SCF
      4  -3.39531503E+002                    1.01717437E-009     178.42  <-- SCF
      5  -3.39531503E+002                    8.97862221E-012     180.41  <-- SCF
      6  -3.39531503E+002                    3.73605747E-012     182.37  <-- SCF
      7  -3.39531503E+002                    2.76327269E-012     184.31  <-- SCF
------------------------------------------------------------------------ <-- SCF
 
Final energy =  -339.5315029215     eV
(energy not corrected for finite basis set)
 
 For future reference: finite basis dEtot/dlog(Ecut) =      -0.459566eV
 Total energy corrected for finite basis set =    -339.531490 eV
 
+---------------- MEMORY AND SCRATCH DISK ESTIMATES PER PROCESS --------------+
|                                                     Memory          Disk    |
| Model and support data                               46.5 MB         0.0 MB |
| Electronic energy minimisation requirements          36.9 MB         0.0 MB |
| Geometry minimisation requirements                   48.4 MB         0.0 MB |
|                                               ----------------------------- |
| Approx. total storage required per process          131.8 MB         0.0 MB |
|                                                                             |
| Requirements will fluctuate during execution and may exceed these estimates |
+-----------------------------------------------------------------------------+
 

 ******************************** Symmetrised Forces ********************************
 *                                                                                  *
 *                           Cartesian components (eV/A)                            *
 * -------------------------------------------------------------------------------- *
 *                         x                    y                    z              *
 *                                                                                  *
 * H               1      0.03625             -0.06150              0.01111         *
 * H               2      0.03331              0.09778              0.01250         *
 * H               3      0.00000              0.14360             -0.00000         *
 * H               4     -0.00000             -0.10535             -0.00000         *
 * H               5     -0.03625             -0.06150             -0.01111         *
 * H               6     -0.03331              0.09778             -0.01250         *
 * H               7      0.03625             -0.06150              0.01111         *
 * H               8      0.03331              0.09778              0.01250         *
 * H               9      0.00000              0.14360             -0.00000         *
 * H              10      0.00000             -0.10535             -0.00000         *
 * H              11     -0.03625             -0.06150             -0.01111         *
 * H              12     -0.03331              0.09778             -0.01250         *
 * H              13     -0.03625              0.06150             -0.01111         *
 * H              14     -0.03331             -0.09778             -0.01250         *
 * H              15     -0.00000             -0.14360             -0.00000         *
 * H              16     -0.00000              0.10535             -0.00000         *
 * H              17      0.03625              0.06150              0.01111         *
 * H              18      0.03331             -0.09778              0.01250         *
 * H              19     -0.03625              0.06150             -0.01111         *
 * H              20     -0.03331             -0.09778             -0.01250         *
 * H              21      0.00000             -0.14360             -0.00000         *
 * H              22      0.00000              0.10535             -0.00000         *
 * H              23      0.03625              0.06150              0.01111         *
 * H              24      0.03331             -0.09778              0.01250         *
 *                                                                                  *
 ************************************************************************************

 *********** Symmetrised Stress Tensor ***********
 *                                               *
 *          Cartesian components (GPa)           *
 * --------------------------------------------- *
 *             x             y             z     *
 *                                               *
 *  x   -326.847523      0.000000     -2.073846  *
 *  y      0.000000   -365.517262      0.000000  *
 *  z     -2.073846      0.000000   -233.083727  *
 *                                               *
 *  Pressure:  308.4828                          *
 *                                               *
 *************************************************
 LBFGS: finished iteration     0 with enthalpy= -2.73883907E+002 eV
  
 +-----------+-----------------+-----------------+------------+-----+ <-- LBFGS
 | Parameter |      value      |    tolerance    |    units   | OK? | <-- LBFGS
 +-----------+-----------------+-----------------+------------+-----+ <-- LBFGS
 |  dE/ion   |   0.000000E+000 |   1.000000E-009 |         eV | No  | <-- LBFGS
 |  |F|max   |   1.435975E-001 |   1.000000E-005 |       eV/A | No  | <-- LBFGS
 |  |dR|max  |   0.000000E+000 |   1.000000E-005 |          A | No  | <-- LBFGS
 |   Smax    |   6.691627E+001 |   1.000000E-005 |        GPa | No  | <-- LBFGS
 +-----------+-----------------+-----------------+------------+-----+ <-- LBFGS
  

================================================================================
 Starting LBFGS iteration          1 ...
================================================================================
  
 +------------+-------------+-------------+-----------------+ <-- min LBFGS
 |    Step    |   lambda    |   F.delta'  |    enthalpy     | <-- min LBFGS
 +------------+-------------+-------------+-----------------+ <-- min LBFGS
 |  previous  |    0.000000 |    0.768244 |     -273.883907 | <-- min LBFGS
 +------------+-------------+-------------+-----------------+ <-- min LBFGS
  

--------------------------------------------------------------------------------
 LBFGS: starting iteration         1 with trial guess (lambda=  1.000000)
--------------------------------------------------------------------------------
 
+---------------- MEMORY AND SCRATCH DISK ESTIMATES PER PROCESS --------------+
|                                                     Memory          Disk    |
| Model and support data                               47.6 MB         0.0 MB |
| Electronic energy minimisation requirements          37.8 MB         0.0 MB |
| Geometry minimisation requirements                   49.4 MB         0.0 MB |
|                                               ----------------------------- |
| Approx. total storage required per process          134.9 MB         0.0 MB |
|                                                                             |
| Requirements will fluctuate during execution and may exceed these estimates |
+-----------------------------------------------------------------------------+
 

                           -------------------------------
                                      Unit Cell
                           -------------------------------
        Real Lattice(A)              Reciprocal Lattice(1/A)
     4.9160676     0.0000000    -0.0141074        1.282681951   0.000000000   1.599576158
     0.0000000     2.7665384     0.0000000        0.000000000   2.271136165   0.000000000
    -3.2745128     0.0000000     2.6257946        0.006891375   0.000000000   2.401463971

                       Lattice parameters(A)       Cell Angles
                    a =      4.916088          alpha =   90.000000
                    b =      2.766538          beta  =  141.438689
                    c =      4.197289          gamma =   90.000000

                Current cell volume =            35.584293 A**3

                           -------------------------------
                                     Cell Contents
                           -------------------------------

            xxxxxxxxxxxxxxxxxxxxxxxxxxxxxxxxxxxxxxxxxxxxxxxxxxxxxxxxxxxxxxxxx
            x  Element         Atom        Fractional coordinates of atoms  x
            x                 Number           u          v          w      x
            x---------------------------------------------------------------x
            x  H                 1         0.189375  -0.088876   0.252774   x
            x  H                 2         0.353143   0.126561   0.251327   x
            x  H                 3         0.500000   0.139080   0.750000   x
            x  H                 4         0.500000   0.424950   0.750000   x
            x  H                 5         0.810625  -0.088876   0.247226   x
            x  H                 6         0.646857   0.126561   0.248673   x
            x  H                 7         0.689375   0.411124   0.252774   x
            x  H                 8         0.853143   0.626561   0.251327   x
            x  H                 9         0.000000   0.639080   0.750000   x
            x  H                10         0.000000   0.924950   0.750000   x
            x  H                11         0.310625   0.411124   0.247226   x
            x  H                12         0.146857   0.626561   0.248673   x
            x  H                13         0.310625   0.588876   0.747226   x
            x  H                14         0.146857   0.373439   0.748673   x
            x  H                15         0.000000   0.360920   0.250000   x
            x  H                16         0.000000   0.075050   0.250000   x
            x  H                17         0.689375   0.588876   0.752774   x
            x  H                18         0.853143   0.373439   0.751327   x
            x  H                19         0.810625   1.088876   0.747226   x
            x  H                20         0.646857   0.873439   0.748673   x
            x  H                21         0.500000   0.860920   0.250000   x
            x  H                22         0.500000   0.575050   0.250000   x
            x  H                23         0.189375   1.088876   0.752774   x
            x  H                24         0.353143   0.873439   0.751327   x
            xxxxxxxxxxxxxxxxxxxxxxxxxxxxxxxxxxxxxxxxxxxxxxxxxxxxxxxxxxxxxxxxx


------------------------------------------------------------------------ <-- SCF
SCF loop      Energy                           Energy gain       Timer   <-- SCF
                                               per atom          (sec)   <-- SCF
------------------------------------------------------------------------ <-- SCF
Initial  -3.39691933E+002                                        186.90  <-- SCF
      1  -3.41215360E+002                    6.34761333E-002     189.22  <-- SCF
      2  -3.41396298E+002                    7.53910071E-003     192.20  <-- SCF
      3  -3.41430596E+002                    1.42907993E-003     195.00  <-- SCF
      4  -3.41433159E+002                    1.06783970E-004     197.88  <-- SCF
      5  -3.41433180E+002                    8.74045340E-007     200.58  <-- SCF
      6  -3.41436567E+002                    1.41122337E-004     203.49  <-- SCF
      7  -3.41436593E+002                    1.09806747E-006     206.20  <-- SCF
      8  -3.41436594E+002                    2.75091208E-008     208.98  <-- SCF
      9  -3.41436594E+002                    6.43347082E-010     211.70  <-- SCF
     10  -3.41436594E+002                    1.50409041E-011     213.63  <-- SCF
     11  -3.41436594E+002                    3.43999254E-012     215.69  <-- SCF
     12  -3.41436594E+002                    1.54678821E-012     217.73  <-- SCF
------------------------------------------------------------------------ <-- SCF
 
Final energy =  -341.4365938143     eV
(energy not corrected for finite basis set)
 

 ******************************** Symmetrised Forces ********************************
 *                                                                                  *
 *                           Cartesian components (eV/A)                            *
 * -------------------------------------------------------------------------------- *
 *                         x                    y                    z              *
 *                                                                                  *
 * H               1      0.02407             -0.33661              0.00458         *
 * H               2     -0.04294              0.29623              0.04172         *
 * H               3     -0.00000              0.15650             -0.00000         *
 * H               4     -0.00000             -0.25216              0.00000         *
 * H               5     -0.02407             -0.33661             -0.00458         *
 * H               6      0.04294              0.29623             -0.04172         *
 * H               7      0.02407             -0.33661              0.00458         *
 * H               8     -0.04294              0.29623              0.04172         *
 * H               9     -0.00000              0.15650              0.00000         *
 * H              10     -0.00000             -0.25216              0.00000         *
 * H              11     -0.02407             -0.33661             -0.00458         *
 * H              12      0.04294              0.29623             -0.04172         *
 * H              13     -0.02407              0.33661             -0.00458         *
 * H              14      0.04294             -0.29623             -0.04172         *
 * H              15     -0.00000             -0.15650              0.00000         *
 * H              16     -0.00000              0.25216              0.00000         *
 * H              17      0.02407              0.33661              0.00458         *
 * H              18     -0.04294             -0.29623              0.04172         *
 * H              19     -0.02407              0.33661             -0.00458         *
 * H              20      0.04294             -0.29623             -0.04172         *
 * H              21     -0.00000             -0.15650              0.00000         *
 * H              22     -0.00000              0.25216              0.00000         *
 * H              23      0.02407              0.33661              0.00458         *
 * H              24     -0.04294             -0.29623              0.04172         *
 *                                                                                  *
 ************************************************************************************

 *********** Symmetrised Stress Tensor ***********
 *                                               *
 *          Cartesian components (GPa)           *
 * --------------------------------------------- *
 *             x             y             z     *
 *                                               *
 *  x   -286.706238      0.000000      0.428329  *
 *  y      0.000000   -300.081169      0.000000  *
 *  z      0.428329      0.000000   -266.608479  *
 *                                               *
 *  Pressure:  284.4653                          *
 *                                               *
 *************************************************
  
 +------------+-------------+-------------+-----------------+ <-- min LBFGS
 |    Step    |   lambda    |   F.delta'  |    enthalpy     | <-- min LBFGS
 +------------+-------------+-------------+-----------------+ <-- min LBFGS
 |  previous  |    0.000000 |    0.768244 |     -273.883907 | <-- min LBFGS
 | trial step |    1.000000 |    0.193309 |     -274.806684 | <-- min LBFGS
 +------------+-------------+-------------+-----------------+ <-- min LBFGS
  
 LBFGS: finished iteration     1 with enthalpy= -2.74806684E+002 eV
  
 +-----------+-----------------+-----------------+------------+-----+ <-- LBFGS
 | Parameter |      value      |    tolerance    |    units   | OK? | <-- LBFGS
 +-----------+-----------------+-----------------+------------+-----+ <-- LBFGS
 |  dE/ion   |   3.844901E-002 |   1.000000E-009 |         eV | No  | <-- LBFGS
 |  |F|max   |   3.374962E-001 |   1.000000E-005 |       eV/A | No  | <-- LBFGS
 |  |dR|max  |   1.453585E-002 |   1.000000E-005 |          A | No  | <-- LBFGS
 |   Smax    |   3.339152E+001 |   1.000000E-005 |        GPa | No  | <-- LBFGS
 +-----------+-----------------+-----------------+------------+-----+ <-- LBFGS
  

================================================================================
 Starting LBFGS iteration          2 ...
================================================================================
  
 +------------+-------------+-------------+-----------------+ <-- min LBFGS
 |    Step    |   lambda    |   F.delta'  |    enthalpy     | <-- min LBFGS
 +------------+-------------+-------------+-----------------+ <-- min LBFGS
 |  previous  |    0.000000 |    0.274434 |     -274.806684 | <-- min LBFGS
 +------------+-------------+-------------+-----------------+ <-- min LBFGS
  

--------------------------------------------------------------------------------
 LBFGS: starting iteration         2 with trial guess (lambda=  1.000000)
--------------------------------------------------------------------------------

                           -------------------------------
                                      Unit Cell
                           -------------------------------
        Real Lattice(A)              Reciprocal Lattice(1/A)
     4.8951737     0.0000000    -0.0119755        1.287676605   0.000000000   1.688064773
     0.0000000     2.8151270     0.0000000        0.000000000   2.231936710   0.000000000
    -3.2599906     0.0000000     2.4867610        0.006201051   0.000000000   2.534783452

                       Lattice parameters(A)       Cell Angles
                    a =      4.895188          alpha =   90.000000
                    b =      2.815127          beta  =  142.803333
                    c =      4.100185          gamma =   90.000000

                Current cell volume =            34.158997 A**3

                           -------------------------------
                                     Cell Contents
                           -------------------------------

            xxxxxxxxxxxxxxxxxxxxxxxxxxxxxxxxxxxxxxxxxxxxxxxxxxxxxxxxxxxxxxxxx
            x  Element         Atom        Fractional coordinates of atoms  x
            x                 Number           u          v          w      x
            x---------------------------------------------------------------x
            x  H                 1         0.190590  -0.106993   0.253155   x
            x  H                 2         0.353626   0.143172   0.253388   x
            x  H                 3         0.500000   0.149262   0.750000   x
            x  H                 4         0.500000   0.410471   0.750000   x
            x  H                 5         0.809410  -0.106993   0.246845   x
            x  H                 6         0.646374   0.143172   0.246612   x
            x  H                 7         0.690590   0.393007   0.253155   x
            x  H                 8         0.853626   0.643172   0.253388   x
            x  H                 9         0.000000   0.649262   0.750000   x
            x  H                10         0.000000   0.910471   0.750000   x
            x  H                11         0.309410   0.393007   0.246845   x
            x  H                12         0.146374   0.643172   0.246612   x
            x  H                13         0.309410   0.606993   0.746845   x
            x  H                14         0.146374   0.356828   0.746612   x
            x  H                15         0.000000   0.350738   0.250000   x
            x  H                16         0.000000   0.089529   0.250000   x
            x  H                17         0.690590   0.606993   0.753155   x
            x  H                18         0.853626   0.356828   0.753388   x
            x  H                19         0.809410   1.106993   0.746845   x
            x  H                20         0.646374   0.856828   0.746612   x
            x  H                21         0.500000   0.850738   0.250000   x
            x  H                22         0.500000   0.589529   0.250000   x
            x  H                23         0.190590   1.106993   0.753155   x
            x  H                24         0.353626   0.856828   0.753388   x
            xxxxxxxxxxxxxxxxxxxxxxxxxxxxxxxxxxxxxxxxxxxxxxxxxxxxxxxxxxxxxxxxx


------------------------------------------------------------------------ <-- SCF
SCF loop      Energy                           Energy gain       Timer   <-- SCF
                                               per atom          (sec)   <-- SCF
------------------------------------------------------------------------ <-- SCF
Initial  -3.33548420E+002                                        220.28  <-- SCF
      1  -3.38706692E+002                    2.14927996E-001     222.53  <-- SCF
      2  -3.38747221E+002                    1.68873039E-003     225.45  <-- SCF
      3  -3.38566673E+002                   -7.52284985E-003     228.22  <-- SCF
      4  -3.38560418E+002                   -2.60634763E-004     230.98  <-- SCF
      5  -3.38560463E+002                    1.87906760E-006     233.65  <-- SCF
      6  -3.38561090E+002                    2.61246869E-005     236.52  <-- SCF
      7  -3.38561090E+002                   -4.01412488E-009     239.30  <-- SCF
      8  -3.38561090E+002                    7.24468873E-010     242.25  <-- SCF
      9  -3.38561090E+002                    3.70181867E-012     244.21  <-- SCF
     10  -3.38561090E+002                    5.20631189E-012     246.13  <-- SCF
------------------------------------------------------------------------ <-- SCF
 
Final energy =  -338.5610895645     eV
(energy not corrected for finite basis set)
 

 ******************************** Symmetrised Forces ********************************
 *                                                                                  *
 *                           Cartesian components (eV/A)                            *
 * -------------------------------------------------------------------------------- *
 *                         x                    y                    z              *
 *                                                                                  *
 * H               1      0.31598              0.94179              0.06475         *
 * H               2      0.38107             -1.03686              0.05721         *
 * H               3      0.00000             -0.80378              0.00000         *
 * H               4      0.00000              0.50330              0.00000         *
 * H               5     -0.31598              0.94179             -0.06475         *
 * H               6     -0.38107             -1.03686             -0.05721         *
 * H               7      0.31598              0.94179              0.06475         *
 * H               8      0.38107             -1.03686              0.05721         *
 * H               9      0.00000             -0.80378              0.00000         *
 * H              10     -0.00000              0.50330              0.00000         *
 * H              11     -0.31598              0.94179             -0.06475         *
 * H              12     -0.38107             -1.03686             -0.05721         *
 * H              13     -0.31598             -0.94179             -0.06475         *
 * H              14     -0.38107              1.03686             -0.05721         *
 * H              15      0.00000              0.80378              0.00000         *
 * H              16      0.00000             -0.50330              0.00000         *
 * H              17      0.31598             -0.94179              0.06475         *
 * H              18      0.38107              1.03686              0.05721         *
 * H              19     -0.31598             -0.94179             -0.06475         *
 * H              20     -0.38107              1.03686             -0.05721         *
 * H              21      0.00000              0.80378              0.00000         *
 * H              22      0.00000             -0.50330              0.00000         *
 * H              23      0.31598             -0.94179              0.06475         *
 * H              24      0.38107              1.03686              0.05721         *
 *                                                                                  *
 ************************************************************************************

 *********** Symmetrised Stress Tensor ***********
 *                                               *
 *          Cartesian components (GPa)           *
 * --------------------------------------------- *
 *             x             y             z     *
 *                                               *
 *  x   -313.656499      0.000000     -0.036092  *
 *  y      0.000000   -330.224335      0.000000  *
 *  z     -0.036092      0.000000   -341.167567  *
 *                                               *
 *  Pressure:  328.3495                          *
 *                                               *
 *************************************************
  
 +------------+-------------+-------------+-----------------+ <-- min LBFGS
 |    Step    |   lambda    |   F.delta'  |    enthalpy     | <-- min LBFGS
 +------------+-------------+-------------+-----------------+ <-- min LBFGS
 |  previous  |    0.000000 |    0.274434 |     -274.806684 | <-- min LBFGS
 | trial step |    1.000000 |   -0.516083 |     -274.599986 | <-- min LBFGS
 +------------+-------------+-------------+-----------------+ <-- min LBFGS
  

--------------------------------------------------------------------------------
 LBFGS: improving iteration         2 with line minimization (lambda=  0.347158)
--------------------------------------------------------------------------------

                           -------------------------------
                                      Unit Cell
                           -------------------------------
        Real Lattice(A)              Reciprocal Lattice(1/A)
     4.9088141     0.0000000    -0.0133673        1.284416852   0.000000000   1.629221519
     0.0000000     2.7834063     0.0000000        0.000000000   2.257372671   0.000000000
    -3.2694713     0.0000000     2.5775280        0.006661104   0.000000000   2.446128082

                       Lattice parameters(A)       Cell Angles
                    a =      4.908832          alpha =   90.000000
                    b =      2.783406          beta  =  141.905108
                    c =      4.163303          gamma =   90.000000

                Current cell volume =            35.095697 A**3

                           -------------------------------
                                     Cell Contents
                           -------------------------------

            xxxxxxxxxxxxxxxxxxxxxxxxxxxxxxxxxxxxxxxxxxxxxxxxxxxxxxxxxxxxxxxxx
            x  Element         Atom        Fractional coordinates of atoms  x
            x                 Number           u          v          w      x
            x---------------------------------------------------------------x
            x  H                 1         0.189797  -0.095166   0.252906   x
            x  H                 2         0.353311   0.132327   0.252043   x
            x  H                 3         0.500000   0.142615   0.750000   x
            x  H                 4         0.500000   0.419924   0.750000   x
            x  H                 5         0.810203  -0.095166   0.247094   x
            x  H                 6         0.646689   0.132327   0.247957   x
            x  H                 7         0.689797   0.404834   0.252906   x
            x  H                 8         0.853311   0.632327   0.252043   x
            x  H                 9         0.000000   0.642615   0.750000   x
            x  H                10         0.000000   0.919924   0.750000   x
            x  H                11         0.310203   0.404834   0.247094   x
            x  H                12         0.146689   0.632327   0.247957   x
            x  H                13         0.310203   0.595166   0.747094   x
            x  H                14         0.146689   0.367673   0.747957   x
            x  H                15         0.000000   0.357385   0.250000   x
            x  H                16         0.000000   0.080076   0.250000   x
            x  H                17         0.689797   0.595166   0.752906   x
            x  H                18         0.853311   0.367673   0.752043   x
            x  H                19         0.810203   1.095166   0.747094   x
            x  H                20         0.646689   0.867673   0.747957   x
            x  H                21         0.500000   0.857385   0.250000   x
            x  H                22         0.500000   0.580076   0.250000   x
            x  H                23         0.189797   1.095166   0.752906   x
            x  H                24         0.353311   0.867673   0.752043   x
            xxxxxxxxxxxxxxxxxxxxxxxxxxxxxxxxxxxxxxxxxxxxxxxxxxxxxxxxxxxxxxxxx


------------------------------------------------------------------------ <-- SCF
SCF loop      Energy                           Energy gain       Timer   <-- SCF
                                               per atom          (sec)   <-- SCF
------------------------------------------------------------------------ <-- SCF
Initial  -3.38535832E+002                                        248.54  <-- SCF
      1  -3.40722855E+002                    9.11259273E-002     251.05  <-- SCF
      2  -3.40740202E+002                    7.22820602E-004     253.87  <-- SCF
      3  -3.40672372E+002                   -2.82624715E-003     256.73  <-- SCF
      4  -3.40670745E+002                   -6.77949425E-005     259.65  <-- SCF
      5  -3.40670776E+002                    1.28999762E-006     262.65  <-- SCF
      6  -3.40670777E+002                    4.90433009E-008     265.40  <-- SCF
      7  -3.40670777E+002                    5.02931743E-010     268.28  <-- SCF
      8  -3.40670777E+002                    1.80299515E-010     270.38  <-- SCF
      9  -3.40670777E+002                    2.06862783E-011     272.38  <-- SCF
     10  -3.40670777E+002                    5.01497741E-013     274.35  <-- SCF
     11  -3.40670777E+002                    2.81966601E-014     276.32  <-- SCF
------------------------------------------------------------------------ <-- SCF
 
Final energy =  -340.6707773610     eV
(energy not corrected for finite basis set)
 

 ******************************** Symmetrised Forces ********************************
 *                                                                                  *
 *                           Cartesian components (eV/A)                            *
 * -------------------------------------------------------------------------------- *
 *                         x                    y                    z              *
 *                                                                                  *
 * H               1      0.08667             -0.03610              0.01929         *
 * H               2      0.06853             -0.04715              0.04444         *
 * H               3     -0.00000             -0.11191              0.00000         *
 * H               4     -0.00000             -0.06328              0.00000         *
 * H               5     -0.08667             -0.03610             -0.01929         *
 * H               6     -0.06853             -0.04715             -0.04444         *
 * H               7      0.08667             -0.03610              0.01929         *
 * H               8      0.06853             -0.04715              0.04444         *
 * H               9      0.00000             -0.11191              0.00000         *
 * H              10      0.00000             -0.06328              0.00000         *
 * H              11     -0.08667             -0.03610             -0.01929         *
 * H              12     -0.06853             -0.04715             -0.04444         *
 * H              13     -0.08667              0.03610             -0.01929         *
 * H              14     -0.06853              0.04715             -0.04444         *
 * H              15      0.00000              0.11191              0.00000         *
 * H              16      0.00000              0.06328              0.00000         *
 * H              17      0.08667              0.03610              0.01929         *
 * H              18      0.06853              0.04715              0.04444         *
 * H              19     -0.08667              0.03610             -0.01929         *
 * H              20     -0.06853              0.04715             -0.04444         *
 * H              21      0.00000              0.11191              0.00000         *
 * H              22      0.00000              0.06328              0.00000         *
 * H              23      0.08667              0.03610              0.01929         *
 * H              24      0.06853              0.04715              0.04444         *
 *                                                                                  *
 ************************************************************************************

 *********** Symmetrised Stress Tensor ***********
 *                                               *
 *          Cartesian components (GPa)           *
 * --------------------------------------------- *
 *             x             y             z     *
 *                                               *
 *  x   -294.505645      0.000000     -0.027417  *
 *  y      0.000000   -306.820195      0.000000  *
 *  z     -0.027417      0.000000   -291.076907  *
 *                                               *
 *  Pressure:  297.4676                          *
 *                                               *
 *************************************************
  
 +------------+-------------+-------------+-----------------+ <-- min LBFGS
 |    Step    |   lambda    |   F.delta'  |    enthalpy     | <-- min LBFGS
 +------------+-------------+-------------+-----------------+ <-- min LBFGS
 |  previous  |    0.000000 |    0.274434 |     -274.806684 | <-- min LBFGS
 | trial step |    1.000000 |   -0.516083 |     -274.599986 | <-- min LBFGS
 |  line step |    0.347158 |    0.051660 |     -274.955750 | <-- min LBFGS
 +------------+-------------+-------------+-----------------+ <-- min LBFGS
  
 LBFGS: finished iteration     2 with enthalpy= -2.74955750E+002 eV
  
 +-----------+-----------------+-----------------+------------+-----+ <-- LBFGS
 | Parameter |      value      |    tolerance    |    units   | OK? | <-- LBFGS
 +-----------+-----------------+-----------------+------------+-----+ <-- LBFGS
 |  dE/ion   |   6.211089E-003 |   1.000000E-009 |         eV | No  | <-- LBFGS
 |  |F|max   |   1.119083E-001 |   1.000000E-005 |       eV/A | No  | <-- LBFGS
 |  |dR|max  |   1.758574E-002 |   1.000000E-005 |          A | No  | <-- LBFGS
 |   Smax    |   8.923093E+000 |   1.000000E-005 |        GPa | No  | <-- LBFGS
 +-----------+-----------------+-----------------+------------+-----+ <-- LBFGS
  

================================================================================
 Starting LBFGS iteration          3 ...
================================================================================
  
 +------------+-------------+-------------+-----------------+ <-- min LBFGS
 |    Step    |   lambda    |   F.delta'  |    enthalpy     | <-- min LBFGS
 +------------+-------------+-------------+-----------------+ <-- min LBFGS
 |  previous  |    0.000000 |    0.099349 |     -274.955750 | <-- min LBFGS
 +------------+-------------+-------------+-----------------+ <-- min LBFGS
  

--------------------------------------------------------------------------------
 LBFGS: starting iteration         3 with trial guess (lambda=  1.000000)
--------------------------------------------------------------------------------

                           -------------------------------
                                      Unit Cell
                           -------------------------------
        Real Lattice(A)              Reciprocal Lattice(1/A)
     4.8889890     0.0000000    -0.0127324        1.289464577   0.000000000   1.648767355
     0.0000000     2.8029183     0.0000000        0.000000000   2.241658423   0.000000000
    -3.2560288     0.0000000     2.5464683        0.006447353   0.000000000   2.475655416

                       Lattice parameters(A)       Cell Angles
                    a =      4.889006          alpha =   90.000000
                    b =      2.802918          beta  =  142.121037
                    c =      4.133549          gamma =   90.000000

                Current cell volume =            34.779166 A**3

                           -------------------------------
                                     Cell Contents
                           -------------------------------

            xxxxxxxxxxxxxxxxxxxxxxxxxxxxxxxxxxxxxxxxxxxxxxxxxxxxxxxxxxxxxxxxx
            x  Element         Atom        Fractional coordinates of atoms  x
            x                 Number           u          v          w      x
            x---------------------------------------------------------------x
            x  H                 1         0.192597  -0.097687   0.253746   x
            x  H                 2         0.356309   0.130885   0.253977   x
            x  H                 3         0.500000   0.137891   0.750000   x
            x  H                 4         0.500000   0.416219   0.750000   x
            x  H                 5         0.807403  -0.097687   0.246254   x
            x  H                 6         0.643691   0.130885   0.246023   x
            x  H                 7         0.692597   0.402313   0.253746   x
            x  H                 8         0.856309   0.630885   0.253977   x
            x  H                 9         0.000000   0.637891   0.750000   x
            x  H                10         0.000000   0.916219   0.750000   x
            x  H                11         0.307403   0.402313   0.246254   x
            x  H                12         0.143691   0.630885   0.246023   x
            x  H                13         0.307403   0.597687   0.746254   x
            x  H                14         0.143691   0.369115   0.746023   x
            x  H                15         0.000000   0.362109   0.250000   x
            x  H                16         0.000000   0.083781   0.250000   x
            x  H                17         0.692597   0.597687   0.753746   x
            x  H                18         0.856309   0.369115   0.753977   x
            x  H                19         0.807403   1.097687   0.746254   x
            x  H                20         0.643691   0.869115   0.746023   x
            x  H                21         0.500000   0.862109   0.250000   x
            x  H                22         0.500000   0.583781   0.250000   x
            x  H                23         0.192597   1.097687   0.753746   x
            x  H                24         0.356309   0.869115   0.753977   x
            xxxxxxxxxxxxxxxxxxxxxxxxxxxxxxxxxxxxxxxxxxxxxxxxxxxxxxxxxxxxxxxxx


------------------------------------------------------------------------ <-- SCF
SCF loop      Energy                           Energy gain       Timer   <-- SCF
                                               per atom          (sec)   <-- SCF
------------------------------------------------------------------------ <-- SCF
Initial  -3.39795617E+002                                        278.71  <-- SCF
      1  -3.40102388E+002                    1.27821074E-002     280.97  <-- SCF
      2  -3.40112670E+002                    4.28425200E-004     283.90  <-- SCF
      3  -3.40080989E+002                   -1.32003252E-003     286.65  <-- SCF
      4  -3.40081048E+002                    2.44687069E-006     289.43  <-- SCF
      5  -3.40081054E+002                    2.54844864E-007     292.32  <-- SCF
      6  -3.40081054E+002                    3.40403575E-009     295.29  <-- SCF
      7  -3.40081054E+002                    2.06371356E-010     297.34  <-- SCF
      8  -3.40081054E+002                    5.39361828E-012     299.39  <-- SCF
      9  -3.40081054E+002                    5.43792731E-013     301.26  <-- SCF
------------------------------------------------------------------------ <-- SCF
 
Final energy =  -340.0810539245     eV
(energy not corrected for finite basis set)
 

 ******************************** Symmetrised Forces ********************************
 *                                                                                  *
 *                           Cartesian components (eV/A)                            *
 * -------------------------------------------------------------------------------- *
 *                         x                    y                    z              *
 *                                                                                  *
 * H               1     -0.09229             -0.05529             -0.05458         *
 * H               2     -0.06481              0.18114             -0.02502         *
 * H               3     -0.00000              0.27573              0.00000         *
 * H               4      0.00000             -0.03462              0.00000         *
 * H               5      0.09229             -0.05529              0.05458         *
 * H               6      0.06481              0.18114              0.02502         *
 * H               7     -0.09229             -0.05529             -0.05458         *
 * H               8     -0.06481              0.18114             -0.02502         *
 * H               9     -0.00000              0.27573             -0.00000         *
 * H              10      0.00000             -0.03462              0.00000         *
 * H              11      0.09229             -0.05529              0.05458         *
 * H              12      0.06481              0.18114              0.02502         *
 * H              13      0.09229              0.05529              0.05458         *
 * H              14      0.06481             -0.18114              0.02502         *
 * H              15      0.00000             -0.27573              0.00000         *
 * H              16      0.00000              0.03462              0.00000         *
 * H              17     -0.09229              0.05529             -0.05458         *
 * H              18     -0.06481             -0.18114             -0.02502         *
 * H              19      0.09229              0.05529              0.05458         *
 * H              20      0.06481             -0.18114              0.02502         *
 * H              21      0.00000             -0.27573             -0.00000         *
 * H              22      0.00000              0.03462             -0.00000         *
 * H              23     -0.09229              0.05529             -0.05458         *
 * H              24     -0.06481             -0.18114             -0.02502         *
 *                                                                                  *
 ************************************************************************************

 *********** Symmetrised Stress Tensor ***********
 *                                               *
 *          Cartesian components (GPa)           *
 * --------------------------------------------- *
 *             x             y             z     *
 *                                               *
 *  x   -299.114570      0.000000     -1.093563  *
 *  y      0.000000   -297.668058      0.000000  *
 *  z     -1.093563      0.000000   -308.570317  *
 *                                               *
 *  Pressure:  301.7843                          *
 *                                               *
 *************************************************
  
 +------------+-------------+-------------+-----------------+ <-- min LBFGS
 |    Step    |   lambda    |   F.delta'  |    enthalpy     | <-- min LBFGS
 +------------+-------------+-------------+-----------------+ <-- min LBFGS
 |  previous  |    0.000000 |    0.099349 |     -274.955750 | <-- min LBFGS
 | trial step |    1.000000 |   -0.084638 |     -274.958718 | <-- min LBFGS
 +------------+-------------+-------------+-----------------+ <-- min LBFGS
  

--------------------------------------------------------------------------------
 LBFGS: improving iteration         3 with line minimization (lambda=  0.539978)
--------------------------------------------------------------------------------

                           -------------------------------
                                      Unit Cell
                           -------------------------------
        Real Lattice(A)              Reciprocal Lattice(1/A)
     4.8981090     0.0000000    -0.0130245        1.287137911   0.000000000   1.639717671
     0.0000000     2.7939423     0.0000000        0.000000000   2.248860064   0.000000000
    -3.2622127     0.0000000     2.5607565        0.006546615   0.000000000   2.461984135

                       Lattice parameters(A)       Cell Angles
                    a =      4.898126          alpha =   90.000000
                    b =      2.793942          beta  =  142.021315
                    c =      4.147229          gamma =   90.000000

                Current cell volume =            34.925328 A**3

                           -------------------------------
                                     Cell Contents
                           -------------------------------

            xxxxxxxxxxxxxxxxxxxxxxxxxxxxxxxxxxxxxxxxxxxxxxxxxxxxxxxxxxxxxxxxx
            x  Element         Atom        Fractional coordinates of atoms  x
            x                 Number           u          v          w      x
            x---------------------------------------------------------------x
            x  H                 1         0.191309  -0.096527   0.253359   x
            x  H                 2         0.354930   0.131548   0.253087   x
            x  H                 3         0.500000   0.140064   0.750000   x
            x  H                 4         0.500000   0.417923   0.750000   x
            x  H                 5         0.808691  -0.096527   0.246641   x
            x  H                 6         0.645070   0.131548   0.246913   x
            x  H                 7         0.691309   0.403473   0.253359   x
            x  H                 8         0.854930   0.631548   0.253087   x
            x  H                 9         0.000000   0.640064   0.750000   x
            x  H                10         0.000000   0.917923   0.750000   x
            x  H                11         0.308691   0.403473   0.246641   x
            x  H                12         0.145070   0.631548   0.246913   x
            x  H                13         0.308691   0.596527   0.746641   x
            x  H                14         0.145070   0.368452   0.746913   x
            x  H                15         0.000000   0.359936   0.250000   x
            x  H                16         0.000000   0.082077   0.250000   x
            x  H                17         0.691309   0.596527   0.753359   x
            x  H                18         0.854930   0.368452   0.753087   x
            x  H                19         0.808691   1.096527   0.746641   x
            x  H                20         0.645070   0.868452   0.746913   x
            x  H                21         0.500000   0.859936   0.250000   x
            x  H                22         0.500000   0.582077   0.250000   x
            x  H                23         0.191309   1.096527   0.753359   x
            x  H                24         0.354930   0.868452   0.753087   x
            xxxxxxxxxxxxxxxxxxxxxxxxxxxxxxxxxxxxxxxxxxxxxxxxxxxxxxxxxxxxxxxxx


------------------------------------------------------------------------ <-- SCF
SCF loop      Energy                           Energy gain       Timer   <-- SCF
                                               per atom          (sec)   <-- SCF
------------------------------------------------------------------------ <-- SCF
Initial  -3.40304984E+002                                        303.79  <-- SCF
      1  -3.40371035E+002                    2.75213965E-003     306.12  <-- SCF
      2  -3.40373350E+002                    9.64659153E-005     308.97  <-- SCF
      3  -3.40366659E+002                   -2.78796571E-004     311.75  <-- SCF
      4  -3.40366672E+002                    5.49277854E-007     314.65  <-- SCF
      5  -3.40366756E+002                    3.47846219E-006     317.50  <-- SCF
      6  -3.40367621E+002                    3.60695291E-005     320.37  <-- SCF
      7  -3.40367695E+002                    3.06132011E-006     323.14  <-- SCF
      8  -3.40367695E+002                    1.11991193E-008     326.03  <-- SCF
      9  -3.40367695E+002                    9.00983994E-011     329.02  <-- SCF
     10  -3.40367695E+002                   -1.02954062E-010     331.04  <-- SCF
     11  -3.40367695E+002                   -2.79771290E-011     333.13  <-- SCF
     12  -3.40367695E+002                   -4.43090374E-014     335.31  <-- SCF
     13  -3.40367695E+002                    6.34424853E-013     337.20  <-- SCF
------------------------------------------------------------------------ <-- SCF
 
Final energy =  -340.3676950912     eV
(energy not corrected for finite basis set)
 

 ******************************** Symmetrised Forces ********************************
 *                                                                                  *
 *                           Cartesian components (eV/A)                            *
 * -------------------------------------------------------------------------------- *
 *                         x                    y                    z              *
 *                                                                                  *
 * H               1     -0.01171             -0.05097             -0.01832         *
 * H               2     -0.00377              0.08260              0.00824         *
 * H               3      0.00000              0.10302              0.00000         *
 * H               4     -0.00000             -0.05419              0.00000         *
 * H               5      0.01171             -0.05097              0.01832         *
 * H               6      0.00377              0.08260             -0.00824         *
 * H               7     -0.01171             -0.05097             -0.01832         *
 * H               8     -0.00377              0.08260              0.00824         *
 * H               9     -0.00000              0.10302              0.00000         *
 * H              10      0.00000             -0.05419              0.00000         *
 * H              11      0.01171             -0.05097              0.01832         *
 * H              12      0.00377              0.08260             -0.00824         *
 * H              13      0.01171              0.05097              0.01832         *
 * H              14      0.00377             -0.08260             -0.00824         *
 * H              15      0.00000             -0.10302              0.00000         *
 * H              16      0.00000              0.05419              0.00000         *
 * H              17     -0.01171              0.05097             -0.01832         *
 * H              18     -0.00377             -0.08260              0.00824         *
 * H              19      0.01171              0.05097              0.01832         *
 * H              20      0.00377             -0.08260             -0.00824         *
 * H              21      0.00000             -0.10302              0.00000         *
 * H              22      0.00000              0.05419              0.00000         *
 * H              23     -0.01171              0.05097             -0.01832         *
 * H              24     -0.00377             -0.08260              0.00824         *
 *                                                                                  *
 ************************************************************************************

 *********** Symmetrised Stress Tensor ***********
 *                                               *
 *          Cartesian components (GPa)           *
 * --------------------------------------------- *
 *             x             y             z     *
 *                                               *
 *  x   -298.377380      0.000000     -0.316240  *
 *  y      0.000000   -300.893656      0.000000  *
 *  z     -0.316240      0.000000   -299.994977  *
 *                                               *
 *  Pressure:  299.7553                          *
 *                                               *
 *************************************************
  
 +------------+-------------+-------------+-----------------+ <-- min LBFGS
 |    Step    |   lambda    |   F.delta'  |    enthalpy     | <-- min LBFGS
 +------------+-------------+-------------+-----------------+ <-- min LBFGS
 |  previous  |    0.000000 |    0.099349 |     -274.955750 | <-- min LBFGS
 | trial step |    1.000000 |   -0.084638 |     -274.958718 | <-- min LBFGS
 |  line step |    0.539978 |   -0.002192 |     -274.971650 | <-- min LBFGS
 +------------+-------------+-------------+-----------------+ <-- min LBFGS
  
[...]
      H    23      S                    0.986
      H    24      S                    1.010
  -------------------------------------------
                           Total:      24.000
  -------------------------------------------

     Atomic Populations (Mulliken)
     -----------------------------
Species          Ion     s      p      d      f     Total  Charge (e)
=====================================================================
  H               1     0.99   0.00   0.00   0.00   0.99     0.01
  H               2     1.01   0.00   0.00   0.00   1.01    -0.01
  H               3     1.02   0.00   0.00   0.00   1.02    -0.02
  H               4     0.99   0.00   0.00   0.00   0.99     0.01
  H               5     0.99   0.00   0.00   0.00   0.99     0.01
  H               6     1.01   0.00   0.00   0.00   1.01    -0.01
  H               7     0.99   0.00   0.00   0.00   0.99     0.01
  H               8     1.01   0.00   0.00   0.00   1.01    -0.01
  H               9     1.02   0.00   0.00   0.00   1.02    -0.02
  H              10     0.99   0.00   0.00   0.00   0.99     0.01
  H              11     0.99   0.00   0.00   0.00   0.99     0.01
  H              12     1.01   0.00   0.00   0.00   1.01    -0.01
  H              13     0.99   0.00   0.00   0.00   0.99     0.01
  H              14     1.01   0.00   0.00   0.00   1.01    -0.01
  H              15     1.02   0.00   0.00   0.00   1.02    -0.02
  H              16     0.99   0.00   0.00   0.00   0.99     0.01
  H              17     0.99   0.00   0.00   0.00   0.99     0.01
  H              18     1.01   0.00   0.00   0.00   1.01    -0.01
  H              19     0.99   0.00   0.00   0.00   0.99     0.01
  H              20     1.01   0.00   0.00   0.00   1.01    -0.01
  H              21     1.02   0.00   0.00   0.00   1.02    -0.02
  H              22     0.99   0.00   0.00   0.00   0.99     0.01
  H              23     0.99   0.00   0.00   0.00   0.99     0.01
  H              24     1.01   0.00   0.00   0.00   1.01    -0.01
=====================================================================

                 Bond                   Population      Length (A)
======================================================================
              H 15 -- H 16                   1.41        0.77074
              H 3  -- H 4                    1.41        0.77074
              H 21 -- H 22                   1.41        0.77074
              H 9  -- H 10                   1.41        0.77074
              H 18 -- H 19                   1.34        0.78403
              H 14 -- H 23                   1.34        0.78403
              H 17 -- H 20                   1.34        0.78403
              H 13 -- H 24                   1.34        0.78403
              H 5  -- H 8                    1.34        0.78403
              H 6  -- H 7                    1.34        0.78403
              H 2  -- H 11                   1.34        0.78403
              H 1  -- H 12                   1.34        0.78403
              H 1  -- H 2                    0.28        1.02978
              H 11 -- H 12                   0.28        1.02978
              H 23 -- H 24                   0.28        1.02978
              H 7  -- H 8                    0.28        1.02978
              H 13 -- H 14                   0.28        1.02978
              H 5  -- H 6                    0.28        1.02978
              H 19 -- H 20                   0.28        1.02978
              H 17 -- H 18                   0.28        1.02978
              H 6  -- H 21                   0.12        1.05840
              H 2  -- H 21                   0.12        1.05840
              H 9  -- H 18                   0.12        1.05840
              H 9  -- H 14                   0.12        1.05840
              H 8  -- H 15                   0.12        1.05840
              H 12 -- H 15                   0.12        1.05840
              H 3  -- H 20                   0.12        1.05840
              H 3  -- H 24                   0.12        1.05840
              H 4  -- H 17                   0.29        1.06117
              H 10 -- H 19                   0.29        1.06117
              H 5  -- H 16                   0.29        1.06117
              H 4  -- H 13                   0.29        1.06117
              H 7  -- H 22                   0.29        1.06117
              H 11 -- H 22                   0.29        1.06117
              H 10 -- H 23                   0.29        1.06117
              H 1  -- H 16                   0.29        1.06117
              H 8  -- H 13                  -0.14        1.39082
              H 6  -- H 23                  -0.14        1.39082
              H 12 -- H 17                  -0.14        1.39082
              H 11 -- H 18                  -0.14        1.39082
              H 7  -- H 14                  -0.14        1.39082
              H 2  -- H 19                  -0.14        1.39082
              H 1  -- H 20                  -0.14        1.39082
              H 5  -- H 24                  -0.14        1.39082
              H 8  -- H 12                  -0.01        1.41007
              H 2  -- H 6                   -0.01        1.41007
              H 14 -- H 18                  -0.01        1.41007
              H 20 -- H 24                  -0.01        1.41007
              H 7  -- H 13                  -0.18        1.41734
              H 1  -- H 19                  -0.18        1.41734
              H 11 -- H 17                  -0.18        1.41734
              H 5  -- H 23                  -0.18        1.41734
              H 8  -- H 16                  -0.40        1.42983
              H 12 -- H 16                  -0.40        1.42983
              H 4  -- H 24                  -0.40        1.42983
              H 4  -- H 20                  -0.40        1.42983
              H 6  -- H 22                  -0.40        1.42983
              H 2  -- H 22                  -0.40        1.42983
              H 10 -- H 18                  -0.40        1.42983
              H 10 -- H 14                  -0.40        1.42983
              H 4  -- H 12                  -0.17        1.43298
              H 4  -- H 8                   -0.17        1.43298
              H 16 -- H 24                  -0.17        1.43298
              H 16 -- H 20                  -0.17        1.43298
              H 6  -- H 10                  -0.17        1.43298
              H 2  -- H 10                  -0.17        1.43298
              H 18 -- H 22                  -0.17        1.43298
              H 14 -- H 22                  -0.17        1.43298
              H 21 -- H 23                  -0.13        1.43972
              H 19 -- H 21                  -0.13        1.43972
              H 15 -- H 17                  -0.13        1.43972
              H 9  -- H 11                  -0.13        1.43972
              H 7  -- H 9                   -0.13        1.43972
              H 13 -- H 15                  -0.13        1.43972
              H 3  -- H 5                   -0.13        1.43972
              H 1  -- H 3                   -0.13        1.43972
              H 1  -- H 10                  -0.01        1.45665
              H 4  -- H 7                   -0.01        1.45665
              H 4  -- H 11                  -0.01        1.45665
              H 16 -- H 23                  -0.01        1.45665
              H 5  -- H 10                  -0.01        1.45665
              H 13 -- H 22                  -0.01        1.45665
              H 17 -- H 22                  -0.01        1.45665
              H 16 -- H 19                  -0.01        1.45665
              H 6  -- H 24                  -0.15        1.49067
              H 12 -- H 18                  -0.15        1.49067
              H 8  -- H 14                  -0.15        1.49067
              H 2  -- H 20                  -0.15        1.49067
              H 1  -- H 21                  -0.06        1.50672
              H 11 -- H 15                  -0.06        1.50672
              H 9  -- H 13                  -0.06        1.50672
              H 5  -- H 21                  -0.06        1.50672
              H 7  -- H 15                  -0.06        1.50672
              H 3  -- H 23                  -0.06        1.50672
              H 9  -- H 17                  -0.06        1.50672
              H 3  -- H 19                  -0.06        1.50672
              H 1  -- H 11                  -0.39        1.51064
              H 13 -- H 23                  -0.39        1.51064
              H 5  -- H 7                   -0.39        1.51064
              H 17 -- H 19                  -0.39        1.51064
              H 10 -- H 21                  -0.17        1.52291
              H 9  -- H 22                  -0.17        1.52291
              H 4  -- H 15                  -0.17        1.52291
              H 3  -- H 16                  -0.17        1.52291
              H 6  -- H 19                  -0.04        1.53205
              H 8  -- H 17                  -0.04        1.53205
              H 12 -- H 13                  -0.04        1.53205
              H 2  -- H 23                  -0.04        1.53205
              H 5  -- H 20                  -0.04        1.53205
              H 11 -- H 14                  -0.04        1.53205
              H 7  -- H 18                  -0.04        1.53205
              H 1  -- H 24                  -0.04        1.53205
              H 8  -- H 20                  -0.04        1.56102
              H 6  -- H 18                  -0.04        1.56102
              H 12 -- H 24                  -0.04        1.56102
              H 2  -- H 14                  -0.04        1.56102
              H 21 -- H 24                  -0.06        1.56526
              H 14 -- H 15                  -0.06        1.56526
              H 20 -- H 21                  -0.06        1.56526
              H 15 -- H 18                  -0.06        1.56526
              H 9  -- H 12                  -0.06        1.56526
              H 2  -- H 3                   -0.06        1.56526
              H 8  -- H 9                   -0.06        1.56526
              H 3  -- H 6                   -0.06        1.56526
              H 3  -- H 17                  -0.48        1.57612
              H 5  -- H 15                  -0.48        1.57612
              H 3  -- H 13                  -0.48        1.57612
              H 1  -- H 15                  -0.48        1.57612
              H 9  -- H 19                  -0.48        1.57612
              H 7  -- H 21                  -0.48        1.57612
              H 11 -- H 21                  -0.48        1.57612
              H 9  -- H 23                  -0.48        1.57612
              H 3  -- H 15                  -0.23        1.62787
              H 9  -- H 21                  -0.23        1.62787
              H 3  -- H 7                   -0.06        1.63145
              H 15 -- H 23                  -0.06        1.63145
              H 3  -- H 11                  -0.06        1.63145
              H 1  -- H 9                   -0.06        1.63145
              H 15 -- H 19                  -0.06        1.63145
              H 13 -- H 21                  -0.06        1.63145
              H 5  -- H 9                   -0.06        1.63145
              H 17 -- H 21                  -0.06        1.63145
              H 6  -- H 14                  -0.26        1.63742
              H 2  -- H 18                  -0.26        1.63742
              H 12 -- H 20                  -0.26        1.63742
              H 8  -- H 24                  -0.26        1.63742
              H 14 -- H 24                  -0.49        1.73926
              H 18 -- H 20                  -0.49        1.73926
              H 2  -- H 12                  -0.49        1.73926
              H 6  -- H 8                   -0.49        1.73926
              H 10 -- H 24                  -0.15        1.74116
              H 4  -- H 18                  -0.15        1.74116
              H 10 -- H 20                  -0.15        1.74116
              H 4  -- H 14                  -0.15        1.74116
              H 12 -- H 22                  -0.15        1.74116
              H 8  -- H 22                  -0.15        1.74116
              H 2  -- H 16                  -0.15        1.74116
              H 6  -- H 16                  -0.15        1.74116
              H 11 -- H 19                  -0.34        1.74616
              H 7  -- H 23                  -0.34        1.74616
              H 1  -- H 17                  -0.34        1.74616
              H 5  -- H 13                  -0.34        1.74616
              H 22 -- H 24                  -0.08        1.75034
              H 20 -- H 22                  -0.08        1.75034
              H 16 -- H 18                  -0.08        1.75034
              H 14 -- H 16                  -0.08        1.75034
              H 10 -- H 12                  -0.08        1.75034
              H 8  -- H 10                  -0.08        1.75034
              H 2  -- H 4                   -0.08        1.75034
              H 4  -- H 6                   -0.08        1.75034
              H 1  -- H 22                  -0.27        1.75309
              H 10 -- H 13                  -0.27        1.75309
              H 5  -- H 22                  -0.27        1.75309
              H 11 -- H 16                  -0.27        1.75309
              H 4  -- H 23                  -0.27        1.75309
              H 10 -- H 17                  -0.27        1.75309
              H 7  -- H 16                  -0.27        1.75309
              H 4  -- H 19                  -0.27        1.75309
              H 10 -- H 22                  -0.35        1.78231
              H 4  -- H 16                  -0.35        1.78231
              H 1  -- H 18                  -0.28        1.80397
              H 7  -- H 24                  -0.28        1.80397
              H 5  -- H 14                  -0.28        1.80397
              H 11 -- H 20                  -0.28        1.80397
              H 12 -- H 19                  -0.28        1.80397
              H 6  -- H 13                  -0.28        1.80397
              H 2  -- H 17                  -0.28        1.80397
              H 8  -- H 23                  -0.28        1.80397
              H 14 -- H 19                  -0.22        1.80559
              H 18 -- H 23                  -0.22        1.80559
              H 17 -- H 24                  -0.22        1.80559
              H 5  -- H 12                  -0.22        1.80559
              H 13 -- H 20                  -0.22        1.80559
              H 6  -- H 11                  -0.22        1.80559
              H 2  -- H 7                   -0.22        1.80559
              H 1  -- H 8                   -0.22        1.80559
              H 3  -- H 18                  -0.18        1.83901
              H 9  -- H 24                  -0.18        1.83901
              H 3  -- H 14                  -0.18        1.83901
              H 9  -- H 20                  -0.18        1.83901
              H 2  -- H 15                  -0.18        1.83901
              H 6  -- H 15                  -0.18        1.83901
              H 12 -- H 21                  -0.18        1.83901
              H 8  -- H 21                  -0.18        1.83901
              H 5  -- H 17                  -0.08        1.86734
              H 7  -- H 19                  -0.08        1.86734
              H 11 -- H 23                  -0.08        1.86734
              H 1  -- H 13                  -0.08        1.86734
              H 16 -- H 17                  -0.22        1.86999
              H 13 -- H 16                  -0.22        1.86999
              H 19 -- H 22                  -0.22        1.86999
              H 4  -- H 5                   -0.22        1.86999
              H 22 -- H 23                  -0.22        1.86999
              H 1  -- H 4                   -0.22        1.86999
              H 10 -- H 11                  -0.22        1.86999
              H 7  -- H 10                  -0.22        1.86999
              H 19 -- H 23                  -0.16        1.87663
              H 13 -- H 17                  -0.16        1.87663
              H 7  -- H 11                  -0.16        1.87663
              H 1  -- H 5                   -0.16        1.87663
              H 3  -- H 12                  -0.33        1.89762
              H 3  -- H 8                   -0.33        1.89762
              H 15 -- H 24                  -0.33        1.89762
              H 15 -- H 20                  -0.33        1.89762
              H 6  -- H 9                   -0.33        1.89762
              H 2  -- H 9                   -0.33        1.89762
              H 18 -- H 21                  -0.33        1.89762
              H 14 -- H 21                  -0.33        1.89762
              H 10 -- H 16                  -0.11        2.11826
              H 4  -- H 22                  -0.11        2.11826
              H 11 -- H 13                  -0.10        2.13466
              H 7  -- H 17                  -0.10        2.13466
              H 5  -- H 19                  -0.10        2.13466
              H 1  -- H 23                  -0.10        2.13466
              H 12 -- H 14                  -0.06        2.20866
              H 8  -- H 18                  -0.06        2.20866
              H 6  -- H 20                  -0.06        2.20866
              H 2  -- H 24                  -0.06        2.20866
              H 9  -- H 15                  -0.05        2.21774
              H 3  -- H 21                  -0.05        2.21774
              H 1  -- H 14                  -0.03        2.29200
              H 7  -- H 20                  -0.03        2.29200
              H 5  -- H 18                  -0.03        2.29200
              H 12 -- H 23                  -0.03        2.29200
              H 11 -- H 24                  -0.03        2.29200
              H 8  -- H 19                  -0.03        2.29200
              H 6  -- H 17                  -0.03        2.29200
              H 2  -- H 13                  -0.03        2.29200
              H 1  -- H 6                    0.02        2.30045
              H 8  -- H 11                   0.02        2.30045
              H 7  -- H 12                   0.02        2.30045
              H 20 -- H 23                   0.02        2.30045
              H 13 -- H 18                   0.02        2.30045
              H 14 -- H 17                   0.02        2.30045
              H 2  -- H 5                    0.02        2.30045
              H 19 -- H 24                   0.02        2.30045
              H 3  -- H 22                  -0.02        2.40641
              H 10 -- H 15                  -0.02        2.40641
              H 9  -- H 16                  -0.02        2.40641
              H 4  -- H 21                  -0.02        2.40641
              H 16 -- H 21                   0.04        2.51925
              H 4  -- H 9                    0.04        2.51925
              H 3  -- H 10                   0.04        2.51925
              H 15 -- H 22                   0.04        2.51925
======================================================================


Writing analysis data to C2c.castep_bin

Writing model to C2c.check
 
 A BibTeX formatted list of references used in this run has been written to 
 C2c.bib
 
Initialisation time =      1.52 s
Calculation time    =    817.68 s
Finalisation time   =      2.93 s
Total time          =    822.14 s
Peak Memory Use     = 534408 kB
  
Overall parallel efficiency rating: Very good (87%)                             
  
Data was distributed by:-
k-point (16-way); efficiency rating: Very good (87%)                            
