 +-------------------------------------------------+
 |                                                 |
 |      CCC   AA    SSS  TTTTT  EEEEE  PPPP        |
 |     C     A  A  S       T    E      P   P       |
 |     C     AAAA   SS     T    EEE    PPPP        |
 |     C     A  A     S    T    E      P           |
 |      CCC  A  A  SSS     T    EEEEE  P           |
 |                                                 |
 +-------------------------------------------------+
 |                                                 |
 | Welcome to Academic Release CASTEP version 18.1 |          
 | Ab Initio Total Energy Program                  |
 |                                                 |
 | Authors:                                        |
 | M. Segall, M. Probert, C. Pickard, P. Hasnip,   |
 | S. Clark, K. Refson, J. R. Yates, M. Payne      |
 |                                                 |
 | Contributors:                                   |
 | P. Lindan, P. Haynes, J. White, V. Milman,      |
 | N. Govind, M. Gibson, P. Tulip, V. Cocula,      |
 | B. Montanari, D. Quigley, M. Glover,            |
 | L. Bernasconi, A. Perlov, M. Plummer,           |
 | E. McNellis, J. Meyer, J. Gale, D. Jochym       |
 | J. Aarons, B. Walker, R. Gillen, D. Jones       |
 | T. Green, I. J. Bush, C. J. Armstrong,          |
 | E. J. Higgins, E. L. Brown, M. S. McFly,        |
 | J. Wilkins, B-C. Shih, P. J. P. Byrne           |
 |                                                 |
 | Copyright (c) 2000 - 2017                       |
 |                                                 |
 |     Distributed under the terms of an           |
 |     Agreement between the United Kingdom        |
 |     Car-Parrinello (UKCP) Consortium,           |
 |     Daresbury Laboratory and Accelrys, Inc.     |
 |                                                 |
 | Please cite                                     |
 |                                                 |
 |     "First principles methods using CASTEP"     |
 |                                                 |
 |         Zeitschrift fuer Kristallographie       |
 |           220(5-6) pp. 567-570 (2005)           |
 |                                                 |
 | S. J. Clark, M. D. Segall, C. J. Pickard,       |
 | P. J. Hasnip, M. J. Probert, K. Refson,         |
 | M. C. Payne                                     |
 |                                                 |
 |       in all publications arising from          |
 |              your use of CASTEP                 |
 |                                                 |
 +-------------------------------------------------+


 Compiled for linux_x86_64_gfortran4.8 on Thu, 19 Jul 2018 15:42:32 +0100
 from code version 70483bd0ad64+  Sun, 10 Dec 2017 12:18:29 +0000
 Compiler: GNU Fortran 4.8.5; Optimisation: fast
 MATHLIBS: Intel MKL(2018.0.0) (LAPACK version 3.7.0)
 FFT Lib : mkl
 Fundamental constants values: CODATA 2014

 Run started: Tue, 11 Aug 2020 17:11:59 +0100

 Atomic calculation performed for H: 1s1

 Converged in 41 iterations to an ae energy of -12.488 eV

   ============================================================                
   | Pseudopotential Report - Date of generation 11-08-2020   |                
   ------------------------------------------------------------                
   | Element: H Ionic charge:  1.00 Level of theory: PBE      |                
   | Atomic Solver: Koelling-Harmon                           |                
   |                                                          |                
   |               Reference Electronic Structure             |                
   |         Orbital         Occupation         Energy        |                
   |            1s              1.000           -0.239        |                
   |                                                          |                
   |                 Pseudopotential Definition               |                
   |        Beta     l      e      Rc     scheme   norm       |                
   |         loc     0   -0.239   0.702     qc      1         |                
   |                                                          |                
   | No charge augmentation                                   |                
   | No partial core correction                               |                
   ------------------------------------------------------------                
   | "0|0.7|2|6|8|10L(qc=10)"                                 |                
   ------------------------------------------------------------                
   |      Author: Chris J. Pickard, Cambridge University      |                
   ============================================================                

 Pseudo atomic calculation performed for H 1s1

 Converged in 24 iterations to a total energy of -12.4843 eV

 Calculation parallelised over 16 processes.
 Data is distributed by k-point(16-way)

 ************************************ Title ************************************
 

 ***************************** General Parameters ******************************
  
 output verbosity                               : normal  (1)
 write checkpoint data to                       : C2c.check
 type of calculation                            : geometry optimization
 stress calculation                             : on
 density difference calculation                 : off
 electron localisation func (ELF) calculation   : off
 Hirshfeld analysis                             : off
 unlimited duration calculation
 timing information                             : on
 memory usage estimate                          : on
 write extra output files                       : on
 write final potential to formatted file        : off
 write final density to formatted file          : off
 write structure in CELL formatted file         : on
 write BibTeX reference list                    : on
 write OTFG pseudopotential files               : on
 write electrostatic potential file             : on
 write bands file                               : on
 checkpoint writing                             : both castep_bin and check files
  
 output         length unit                     : A
 output           mass unit                     : amu
 output           time unit                     : ps
 output         charge unit                     : e
 output           spin unit                     : hbar/2
 output         energy unit                     : eV
 output          force unit                     : eV/A
 output       velocity unit                     : A/ps
 output       pressure unit                     : GPa
 output     inv_length unit                     : 1/A
 output      frequency unit                     : cm-1
 output force constant unit                     : eV/A**2
 output         volume unit                     : A**3
 output   IR intensity unit                     : (D/A)**2/amu
 output         dipole unit                     : D
 output         efield unit                     : eV/A/e
 output        entropy unit                     : J/mol/K
  
 wavefunctions paging                           : none
 random number generator seed                   : randomised (171159142)
 data distribution                              : optimal for this architecture
 optimization strategy                          : maximize speed(+++)

 *********************** Exchange-Correlation Parameters ***********************
  
 using functional                               : Perdew Burke Ernzerhof
 relativistic treatment                         : Koelling-Harmon
 DFT+D: Semi-empirical dispersion correction    : off

 ************************* Pseudopotential Parameters **************************
  
 pseudopotential representation                 : reciprocal space
 <beta|phi> representation                      : reciprocal space
 spin-orbit coupling                            : off

 **************************** Basis Set Parameters *****************************
  
 plane wave basis set cut-off                   :  1200.0000   eV
 size of standard grid                          :     2.0000
 size of   fine   gmax                          :    35.4943   1/A
 finite basis set correction                    : automatic
 number of sample energies                      :          3
           sample  spacing                      :     5.0000   eV

 **************************** Electronic Parameters ****************************
  
 number of  electrons                           :  24.00    
 net charge of system                           :  0.000    
 treating system as non-spin-polarized
 number of bands                                :         12

 ********************* Electronic Minimization Parameters **********************
  
 Method: Treating system as non-metallic,
         and number of  SD  steps               :          1
         and number of  CG  steps               :          4
  
 total energy / atom convergence tol.           : 0.1000E-10   eV
 eigen-energy convergence tolerance             : 0.2000E-10   eV
 max force / atom convergence tol.              : ignored
 convergence tolerance window                   :          3   cycles
 max. number of SCF cycles                      :        100
 periodic dipole correction                     : NONE

 ************************** Density Mixing Parameters **************************
  
 density-mixing scheme                          : Broyden
 max. length of mixing history                  :         20
 charge density mixing amplitude                : 0.8000    
 cut-off energy for mixing                      :  1200.       eV

 *********************** Population Analysis Parameters ************************
  
 Population analysis with cutoff                :  3.000       A
 Population analysis output                     : summary and pdos components

 ********************** Geometry Optimization Parameters ***********************
  
 optimization method                            : LBFGS
 max. no. of LBFGS updates                      : unbounded
 variable cell method                           : fixed basis quality
 max. number of steps                           :         60
 estimated bulk modulus                         :  500.0       GPa
 estimated <frequency>                          :  1668.       cm-1
 geom line minimiser                            : on
 with line minimiser tolerance                  :     0.4000
 total energy convergence tolerance             : 0.1000E-08   eV/atom
        max ionic |force| tolerance             : 0.1000E-04   eV/A
 max ionic |displacement| tolerance             : 0.1000E-04   A
   max |stress component| tolerance             : 0.1000E-04   GPa
 convergence tolerance window                   :          2   steps
 backup results every                           :      14400   seconds
 write geom trajectory file                     : on

 *******************************************************************************
  

                           -------------------------------
                                      Unit Cell
                           -------------------------------
        Real Lattice(A)                      Reciprocal Lattice(1/A)
     4.8777324     0.0000000    -0.0105413        1.291676792   0.000000000   1.638169714
     0.0000000     2.8040523     0.0000000        0.000000000   2.240751864   0.000000000
    -3.2472106     0.0000000     2.5603859        0.005317927   0.000000000   2.460743805

                       Lattice parameters(A)       Cell Angles
                    a =      4.877744          alpha =   90.000000
                    b =      2.804052          beta  =  141.868475
                    c =      4.135209          gamma =   90.000000

                       Current cell volume =            34.923482       A**3
                                   density =             0.692673   AMU/A**3
                                           =             1.150211     g/cm^3

                           -------------------------------
                                     Cell Contents
                           -------------------------------
                         Total number of ions in cell =   24
                      Total number of species in cell =    1
                        Max number of any one species =   24

            xxxxxxxxxxxxxxxxxxxxxxxxxxxxxxxxxxxxxxxxxxxxxxxxxxxxxxxxxxxx
            x  Element    Atom        Fractional coordinates of atoms  x
            x            Number           u          v          w      x
            x----------------------------------------------------------x
            x  H            1         0.194119  -0.094654   0.252635   x 
            x  H            2         0.358465   0.138490   0.254479   x 
            x  H            3         0.500000   0.143028   0.750000   x 
            x  H            4         0.500000   0.417895   0.750000   x 
            x  H            5         0.805881  -0.094654   0.247365   x 
            x  H            6         0.641535   0.138490   0.245521   x 
            x  H            7         0.694119   0.405346   0.252635   x 
            x  H            8         0.858465   0.638490   0.254479   x 
            x  H            9         0.000000   0.643028   0.750000   x 
            x  H           10         0.000000   0.917895   0.750000   x 
            x  H           11         0.305881   0.405346   0.247365   x 
            x  H           12         0.141535   0.638490   0.245521   x 
            x  H           13         0.305881   0.594654   0.747365   x 
            x  H           14         0.141535   0.361510   0.745521   x 
            x  H           15         0.000000   0.356972   0.250000   x 
            x  H           16         0.000000   0.082105   0.250000   x 
            x  H           17         0.694119   0.594654   0.752635   x 
            x  H           18         0.858465   0.361510   0.754479   x 
            x  H           19         0.805881   1.094654   0.747365   x 
            x  H           20         0.641535   0.861510   0.745521   x 
            x  H           21         0.500000   0.856972   0.250000   x 
            x  H           22         0.500000   0.582105   0.250000   x 
            x  H           23         0.194119   1.094654   0.752635   x 
            x  H           24         0.358465   0.861510   0.754479   x 
            xxxxxxxxxxxxxxxxxxxxxxxxxxxxxxxxxxxxxxxxxxxxxxxxxxxxxxxxxxxx


                         No user defined ionic velocities

                           -------------------------------
                                   Details of Species
                           -------------------------------

                               Mass of species in AMU
                                    H    1.0079400

                          Electric Quadrupole Moment (Barn)
                                    H    0.0028600 Isotope  2

                          Files used for pseudopotentials:
                                    H 0|0.7|2|6|8|10L(qc=10)

                           -------------------------------
                              k-Points For BZ Sampling
                           -------------------------------
                       MP grid size for SCF calculation is 10 10 10
                            with an offset of   0.000  0.000  0.000
                       Number of kpoints used =           250

                           -------------------------------
                               Symmetry and Constraints
                           -------------------------------

                      Cell is a supercell containing 2 primitive cells
                      Maximum deviation from symmetry = 0.319095E-14     ANG

                      Number of symmetry operations   =           8
                      Number of ionic constraints     =           3
                      Point group of crystal =     5: C2h, 2/m, 2/m
                      Space group of crystal =    15: C2/c, -C 2yc

             Set iprint > 1 for details on symmetry rotations/translations

                         Centre of mass is constrained
             Set iprint > 1 for details of linear ionic constraints

                         Number of cell constraints= 2
                         Cell constraints are:  1 2 3 0 5 0

                         External pressure/stress (GPa)
                        270.00000   0.00000   0.00000
                                  270.00000   0.00000
                                            270.00000
  
+---------------- MEMORY AND SCRATCH DISK ESTIMATES PER PROCESS --------------+
|                                                     Memory          Disk    |
| Baseline code, static data and system overhead      413.0 MB         0.0 MB |
| BLAS internal memory storage                          0.0 MB         0.0 MB |
| Model and support data                               40.1 MB         0.0 MB |
| Electronic energy minimisation requirements          37.3 MB         0.0 MB |
| Force calculation requirements                       10.5 MB         0.0 MB |
| Stress calculation requirements                      13.4 MB         0.0 MB |
|                                               ----------------------------- |
| Approx. total storage required per process          490.4 MB         0.0 MB |
|                                                                             |
| Requirements will fluctuate during execution and may exceed these estimates |
+-----------------------------------------------------------------------------+
Calculating finite basis set correction with  3 cut-off energies.
Calculating total energy with cut-off of 1190.000 eV.
------------------------------------------------------------------------ <-- SCF
SCF loop      Energy                           Energy gain       Timer   <-- SCF
                                               per atom          (sec)   <-- SCF
------------------------------------------------------------------------ <-- SCF
Initial   5.25817306E+002                                          2.51  <-- SCF
      1  -2.89531138E+002                    3.39728518E+001       5.30  <-- SCF
      2  -3.39991571E+002                    2.10251802E+000       7.15  <-- SCF
      3  -3.40359423E+002                    1.53271937E-002       9.85  <-- SCF
      4  -3.40368355E+002                    3.72151660E-004      12.81  <-- SCF
      5  -3.40368800E+002                    1.85444499E-005      15.56  <-- SCF
      6  -3.40368841E+002                    1.72065326E-006      18.41  <-- SCF
      7  -3.40368846E+002                    1.76944503E-007      21.22  <-- SCF
      8  -3.40368847E+002                    6.73715127E-008      23.49  <-- SCF
      9  -3.40368848E+002                    2.76006210E-008      25.56  <-- SCF
     10  -3.40368848E+002                    9.73446188E-009      27.55  <-- SCF
     11  -3.40368848E+002                    9.06206418E-010      29.49  <-- SCF
     12  -3.40368848E+002                    3.60446970E-009      31.43  <-- SCF
     13  -3.40368848E+002                    1.60441212E-009      33.41  <-- SCF
     14  -3.40368848E+002                    1.29689330E-009      35.40  <-- SCF
     15  -3.40368848E+002                    7.75408154E-011      37.37  <-- SCF
     16  -3.40368848E+002                    1.37962230E-012      39.25  <-- SCF
     17  -3.40368848E+002                    9.62714539E-013      41.25  <-- SCF
------------------------------------------------------------------------ <-- SCF
 
Final energy =  -340.3688482663     eV
(energy not corrected for finite basis set)
 
Calculating total energy with cut-off of 1195.000 eV.
------------------------------------------------------------------------ <-- SCF
SCF loop      Energy                           Energy gain       Timer   <-- SCF
                                               per atom          (sec)   <-- SCF
------------------------------------------------------------------------ <-- SCF
Initial  -3.40368848E+002                                         42.21  <-- SCF
      1  -3.40370687E+002                    7.66300664E-005      44.36  <-- SCF
      2  -3.40370687E+002                    1.78543266E-010      47.02  <-- SCF
      3  -3.40370688E+002                    2.40668665E-008      49.77  <-- SCF
      4  -3.40370688E+002                    8.92136285E-010      52.62  <-- SCF
      5  -3.40370688E+002                    6.96256101E-012      54.56  <-- SCF
      6  -3.40370688E+002                    4.99483694E-013      56.54  <-- SCF
------------------------------------------------------------------------ <-- SCF
 
Final energy =  -340.3706879914     eV
(energy not corrected for finite basis set)
 
Calculating total energy with cut-off of 1200.000 eV.
------------------------------------------------------------------------ <-- SCF
SCF loop      Energy                           Energy gain       Timer   <-- SCF
                                               per atom          (sec)   <-- SCF
------------------------------------------------------------------------ <-- SCF
Initial  -3.40370688E+002                                         57.58  <-- SCF
      1  -3.40372463E+002                    7.39460157E-005      59.86  <-- SCF
      2  -3.40372463E+002                    1.70037945E-010      62.60  <-- SCF
      3  -3.40372463E+002                    2.30934151E-008      65.49  <-- SCF
      4  -3.40372463E+002                    8.47414368E-010      68.26  <-- SCF
      5  -3.40372463E+002                    6.66649608E-012      70.27  <-- SCF
      6  -3.40372463E+002                    4.00795383E-013      72.36  <-- SCF
------------------------------------------------------------------------ <-- SCF
 
Final energy =  -340.3724632746     eV
(energy not corrected for finite basis set)
 
 For future reference: finite basis dEtot/dlog(Ecut) =      -0.432158eV
 Total energy corrected for finite basis set =    -340.372464 eV
 
+---------------- MEMORY AND SCRATCH DISK ESTIMATES PER PROCESS --------------+
|                                                     Memory          Disk    |
| Model and support data                               46.9 MB         0.0 MB |
| Electronic energy minimisation requirements          37.3 MB         0.0 MB |
| Geometry minimisation requirements                   48.8 MB         0.0 MB |
|                                               ----------------------------- |
| Approx. total storage required per process          132.9 MB         0.0 MB |
|                                                                             |
| Requirements will fluctuate during execution and may exceed these estimates |
+-----------------------------------------------------------------------------+
 

 ******************************** Symmetrised Forces ********************************
 *                                                                                  *
 *                           Cartesian components (eV/A)                            *
 * -------------------------------------------------------------------------------- *
 *                         x                    y                    z              *
 *                                                                                  *
 * H               1      0.00000             -0.00000              0.00000         *
 * H               2     -0.00000              0.00000             -0.00000         *
 * H               3      0.00000             -0.00000              0.00000         *
 * H               4     -0.00000              0.00000              0.00000         *
 * H               5     -0.00000             -0.00000             -0.00000         *
 * H               6      0.00000              0.00000              0.00000         *
 * H               7      0.00000             -0.00000              0.00000         *
 * H               8     -0.00000              0.00000             -0.00000         *
 * H               9     -0.00000             -0.00000              0.00000         *
 * H              10      0.00000              0.00000             -0.00000         *
 * H              11     -0.00000             -0.00000             -0.00000         *
 * H              12      0.00000              0.00000              0.00000         *
 * H              13     -0.00000              0.00000             -0.00000         *
 * H              14      0.00000             -0.00000              0.00000         *
 * H              15      0.00000              0.00000              0.00000         *
 * H              16      0.00000             -0.00000              0.00000         *
 * H              17      0.00000              0.00000              0.00000         *
 * H              18     -0.00000             -0.00000             -0.00000         *
 * H              19     -0.00000              0.00000             -0.00000         *
 * H              20      0.00000             -0.00000              0.00000         *
 * H              21     -0.00000              0.00000              0.00000         *
 * H              22      0.00000             -0.00000              0.00000         *
 * H              23      0.00000              0.00000              0.00000         *
 * H              24     -0.00000             -0.00000             -0.00000         *
 *                                                                                  *
 ************************************************************************************

 *********** Symmetrised Stress Tensor ***********
 *                                               *
 *          Cartesian components (GPa)           *
 * --------------------------------------------- *
 *             x             y             z     *
 *                                               *
 *  x   -299.916163      0.000000     -0.000018  *
 *  y      0.000000   -299.916200      0.000000  *
 *  z     -0.000018      0.000000   -299.916153  *
 *                                               *
 *  Pressure:  299.9162                          *
 *                                               *
 *************************************************
 LBFGS: finished iteration     0 with enthalpy= -2.81519151E+002 eV
  
 +-----------+-----------------+-----------------+------------+-----+ <-- LBFGS
 | Parameter |      value      |    tolerance    |    units   | OK? | <-- LBFGS
 +-----------+-----------------+-----------------+------------+-----+ <-- LBFGS
 |  dE/ion   |   0.000000E+000 |   1.000000E-009 |         eV | No  | <-- LBFGS
 |  |F|max   |   4.664050E-007 |   1.000000E-005 |       eV/A | Yes | <-- LBFGS
 |  |dR|max  |   0.000000E+000 |   1.000000E-005 |          A | No  | <-- LBFGS
 |   Smax    |   2.991620E+001 |   1.000000E-005 |        GPa | No  | <-- LBFGS
 +-----------+-----------------+-----------------+------------+-----+ <-- LBFGS
  

================================================================================
 Starting LBFGS iteration          1 ...
================================================================================
  
 +------------+-------------+-------------+-----------------+ <-- min LBFGS
 |    Step    |   lambda    |   F.delta'  |    enthalpy     | <-- min LBFGS
 +------------+-------------+-------------+-----------------+ <-- min LBFGS
 |  previous  |    0.000000 |    0.415072 |     -281.519151 | <-- min LBFGS
 +------------+-------------+-------------+-----------------+ <-- min LBFGS
  

--------------------------------------------------------------------------------
 LBFGS: starting iteration         1 with trial guess (lambda=  1.000000)
--------------------------------------------------------------------------------
 
+---------------- MEMORY AND SCRATCH DISK ESTIMATES PER PROCESS --------------+
|                                                     Memory          Disk    |
| Model and support data                               49.8 MB         0.0 MB |
| Electronic energy minimisation requirements          40.2 MB         0.0 MB |
| Geometry minimisation requirements                   52.5 MB         0.0 MB |
|                                               ----------------------------- |
| Approx. total storage required per process          142.4 MB         0.0 MB |
|                                                                             |
| Requirements will fluctuate during execution and may exceed these estimates |
+-----------------------------------------------------------------------------+
 

                           -------------------------------
                                      Unit Cell
                           -------------------------------
        Real Lattice(A)              Reciprocal Lattice(1/A)
     4.9750144     0.0000000    -0.0107515        1.266419171   0.000000000   1.606136743
     0.0000000     2.8599766     0.0000000        0.000000000   2.196935883   0.000000000
    -3.3119733     0.0000000     2.6114505        0.005213911   0.000000000   2.412626143

                       Lattice parameters(A)       Cell Angles
                    a =      4.975026          alpha =   90.000000
                    b =      2.859977          beta  =  141.868474
                    c =      4.217682          gamma =   90.000000

                Current cell volume =            37.054987 A**3

                           -------------------------------
                                     Cell Contents
                           -------------------------------

            xxxxxxxxxxxxxxxxxxxxxxxxxxxxxxxxxxxxxxxxxxxxxxxxxxxxxxxxxxxxxxxxx
            x  Element         Atom        Fractional coordinates of atoms  x
            x                 Number           u          v          w      x
            x---------------------------------------------------------------x
            x  H                 1         0.194119  -0.094654   0.252635   x
            x  H                 2         0.358465   0.138490   0.254479   x
            x  H                 3         0.500000   0.143028   0.750000   x
            x  H                 4         0.500000   0.417895   0.750000   x
            x  H                 5         0.805881  -0.094654   0.247365   x
            x  H                 6         0.641535   0.138490   0.245521   x
            x  H                 7         0.694119   0.405346   0.252635   x
            x  H                 8         0.858465   0.638490   0.254479   x
            x  H                 9         0.000000   0.643028   0.750000   x
            x  H                10         0.000000   0.917895   0.750000   x
            x  H                11         0.305881   0.405346   0.247365   x
            x  H                12         0.141535   0.638490   0.245521   x
            x  H                13         0.305881   0.594654   0.747365   x
            x  H                14         0.141535   0.361510   0.745521   x
            x  H                15        -0.000000   0.356972   0.250000   x
            x  H                16         0.000000   0.082105   0.250000   x
            x  H                17         0.694119   0.594654   0.752635   x
            x  H                18         0.858465   0.361510   0.754479   x
            x  H                19         0.805881   1.094654   0.747365   x
            x  H                20         0.641535   0.861510   0.745521   x
            x  H                21         0.500000   0.856972   0.250000   x
            x  H                22         0.500000   0.582105   0.250000   x
            x  H                23         0.194119   1.094654   0.752635   x
            x  H                24         0.358465   0.861510   0.754479   x
            xxxxxxxxxxxxxxxxxxxxxxxxxxxxxxxxxxxxxxxxxxxxxxxxxxxxxxxxxxxxxxxxx


------------------------------------------------------------------------ <-- SCF
SCF loop      Energy                           Energy gain       Timer   <-- SCF
                                               per atom          (sec)   <-- SCF
------------------------------------------------------------------------ <-- SCF
Initial  -3.43983208E+002                                         74.84  <-- SCF
      1  -3.44054648E+002                    2.97667251E-003      77.52  <-- SCF
      2  -3.44055030E+002                    1.59141529E-005      80.76  <-- SCF
      3  -3.44055388E+002                    1.49362768E-005      84.05  <-- SCF
      4  -3.44055423E+002                    1.45175481E-006      87.29  <-- SCF
      5  -3.44055424E+002                    1.87532301E-008      90.36  <-- SCF
      6  -3.44055424E+002                    1.66511348E-009      93.48  <-- SCF
      7  -3.44055424E+002                    1.80660030E-012      95.91  <-- SCF
      8  -3.44055424E+002                    9.60700492E-013      98.12  <-- SCF
------------------------------------------------------------------------ <-- SCF
 
Final energy =  -344.0554235738     eV
(energy not corrected for finite basis set)
 

 ******************************** Symmetrised Forces ********************************
 *                                                                                  *
 *                           Cartesian components (eV/A)                            *
 * -------------------------------------------------------------------------------- *
 *                         x                    y                    z              *
 *                                                                                  *
 * H               1     -0.07467             -0.19984             -0.00281         *
 * H               2     -0.08528              0.18991             -0.00440         *
 * H               3      0.00000              0.21596             -0.00000         *
 * H               4      0.00000             -0.24003             -0.00000         *
 * H               5      0.07467             -0.19984              0.00281         *
 * H               6      0.08528              0.18991              0.00440         *
 * H               7     -0.07467             -0.19984             -0.00281         *
 * H               8     -0.08528              0.18991             -0.00440         *
 * H               9      0.00000              0.21596             -0.00000         *
 * H              10      0.00000             -0.24003             -0.00000         *
 * H              11      0.07467             -0.19984              0.00281         *
 * H              12      0.08528              0.18991              0.00440         *
 * H              13      0.07467              0.19984              0.00281         *
 * H              14      0.08528             -0.18991              0.00440         *
 * H              15      0.00000             -0.21596             -0.00000         *
 * H              16      0.00000              0.24003             -0.00000         *
 * H              17     -0.07467              0.19984             -0.00281         *
 * H              18     -0.08528             -0.18991             -0.00440         *
 * H              19      0.07467              0.19984              0.00281         *
 * H              20      0.08528             -0.18991              0.00440         *
 * H              21      0.00000             -0.21596             -0.00000         *
 * H              22     -0.00000              0.24003             -0.00000         *
 * H              23     -0.07467              0.19984             -0.00281         *
 * H              24     -0.08528             -0.18991             -0.00440         *
 *                                                                                  *
 ************************************************************************************

 *********** Symmetrised Stress Tensor ***********
 *                                               *
 *          Cartesian components (GPa)           *
 * --------------------------------------------- *
 *             x             y             z     *
 *                                               *
 *  x   -256.948627      0.000000      0.244789  *
 *  y      0.000000   -247.824054      0.000000  *
 *  z      0.244789      0.000000   -260.927696  *
 *                                               *
 *  Pressure:  255.2335                          *
 *                                               *
 *************************************************
  
 +------------+-------------+-------------+-----------------+ <-- min LBFGS
 |    Step    |   lambda    |   F.delta'  |    enthalpy     | <-- min LBFGS
 +------------+-------------+-------------+-----------------+ <-- min LBFGS
 |  previous  |    0.000000 |    0.415072 |     -281.519151 | <-- min LBFGS
 | trial step |    1.000000 |   -0.213132 |     -281.610100 | <-- min LBFGS
 +------------+-------------+-------------+-----------------+ <-- min LBFGS
  
 LBFGS: finished iteration     1 with enthalpy= -2.81610100E+002 eV
  
 +-----------+-----------------+-----------------+------------+-----+ <-- LBFGS
 | Parameter |      value      |    tolerance    |    units   | OK? | <-- LBFGS
 +-----------+-----------------+-----------------+------------+-----+ <-- LBFGS
 |  dE/ion   |   3.789554E-003 |   1.000000E-009 |         eV | No  | <-- LBFGS
 |  |F|max   |   2.400253E-001 |   1.000000E-005 |       eV/A | No  | <-- LBFGS
 |  |dR|max  |   4.613882E-008 |   1.000000E-005 |          A | Yes | <-- LBFGS
 |   Smax    |   2.217595E+001 |   1.000000E-005 |        GPa | No  | <-- LBFGS
 +-----------+-----------------+-----------------+------------+-----+ <-- LBFGS
  

================================================================================
 Starting LBFGS iteration          2 ...
================================================================================
  
 +------------+-------------+-------------+-----------------+ <-- min LBFGS
 |    Step    |   lambda    |   F.delta'  |    enthalpy     | <-- min LBFGS
 +------------+-------------+-------------+-----------------+ <-- min LBFGS
 |  previous  |    0.000000 |    0.179552 |     -281.610100 | <-- min LBFGS
 +------------+-------------+-------------+-----------------+ <-- min LBFGS
  

--------------------------------------------------------------------------------
 LBFGS: starting iteration         2 with trial guess (lambda=  1.000000)
--------------------------------------------------------------------------------

                           -------------------------------
                                      Unit Cell
                           -------------------------------
        Real Lattice(A)              Reciprocal Lattice(1/A)
     4.9597803     0.0000000    -0.0112849        1.270486734   0.000000000   1.608326571
     0.0000000     2.8394942     0.0000000        0.000000000   2.212783297   0.000000000
    -3.3021181     0.0000000     2.6084859        0.005496409   0.000000000   2.415706007

                       Lattice parameters(A)       Cell Angles
                    a =      4.959793          alpha =   90.000000
                    b =      2.839494          beta  =  141.823630
                    c =      4.208109          gamma =   90.000000

                Current cell volume =            36.630194 A**3

                           -------------------------------
                                     Cell Contents
                           -------------------------------

            xxxxxxxxxxxxxxxxxxxxxxxxxxxxxxxxxxxxxxxxxxxxxxxxxxxxxxxxxxxxxxxxx
            x  Element         Atom        Fractional coordinates of atoms  x
            x                 Number           u          v          w      x
            x---------------------------------------------------------------x
            x  H                 1         0.193067  -0.099312   0.252559   x
            x  H                 2         0.357244   0.142917   0.254362   x
            x  H                 3         0.500000   0.148063   0.750000   x
            x  H                 4         0.500000   0.412300   0.750000   x
            x  H                 5         0.806933  -0.099312   0.247441   x
            x  H                 6         0.642756   0.142917   0.245638   x
            x  H                 7         0.693067   0.400688   0.252559   x
            x  H                 8         0.857244   0.642917   0.254362   x
            x  H                 9         0.000000   0.648063   0.750000   x
            x  H                10         0.000000   0.912300   0.750000   x
            x  H                11         0.306933   0.400688   0.247441   x
            x  H                12         0.142756   0.642917   0.245638   x
            x  H                13         0.306933   0.599312   0.747441   x
            x  H                14         0.142756   0.357083   0.745638   x
            x  H                15        -0.000000   0.351937   0.250000   x
            x  H                16         0.000000   0.087700   0.250000   x
            x  H                17         0.693067   0.599312   0.752559   x
            x  H                18         0.857244   0.357083   0.754362   x
            x  H                19         0.806933   1.099312   0.747441   x
            x  H                20         0.642756   0.857083   0.745638   x
            x  H                21         0.500000   0.851937   0.250000   x
            x  H                22         0.500000   0.587700   0.250000   x
            x  H                23         0.193067   1.099312   0.752559   x
            x  H                24         0.357244   0.857083   0.754362   x
            xxxxxxxxxxxxxxxxxxxxxxxxxxxxxxxxxxxxxxxxxxxxxxxxxxxxxxxxxxxxxxxxx


------------------------------------------------------------------------ <-- SCF
SCF loop      Energy                           Energy gain       Timer   <-- SCF
                                               per atom          (sec)   <-- SCF
------------------------------------------------------------------------ <-- SCF
Initial  -3.42843349E+002                                        101.04  <-- SCF
      1  -3.43376670E+002                    2.22217059E-002     103.61  <-- SCF
      2  -3.43382189E+002                    2.29950913E-004     106.60  <-- SCF
      3  -3.43347589E+002                   -1.44166290E-003     109.89  <-- SCF
      4  -3.43346262E+002                   -5.52783728E-005     112.90  <-- SCF
      5  -3.43346261E+002                   -3.73836617E-008     116.26  <-- SCF
      6  -3.43346261E+002                    1.42583058E-009     119.51  <-- SCF
      7  -3.43346261E+002                    5.41496718E-011     121.97  <-- SCF
      8  -3.43346261E+002                    9.72784775E-012     124.26  <-- SCF
      9  -3.43346261E+002                   -1.97376621E-013     126.54  <-- SCF
------------------------------------------------------------------------ <-- SCF
 
Final energy =  -343.3462614779     eV
(energy not corrected for finite basis set)
 

 ******************************** Symmetrised Forces ********************************
 *                                                                                  *
 *                           Cartesian components (eV/A)                            *
 * -------------------------------------------------------------------------------- *
 *                         x                    y                    z              *
 *                                                                                  *
 * H               1      0.11380              0.21659              0.04313         *
 * H               2      0.10380             -0.27783              0.01599         *
 * H               3      0.00000             -0.52071              0.00000         *
 * H               4      0.00000              0.33896              0.00000         *
 * H               5     -0.11380              0.21659             -0.04313         *
 * H               6     -0.10380             -0.27783             -0.01599         *
 * H               7      0.11380              0.21659              0.04313         *
 * H               8      0.10380             -0.27783              0.01599         *
 * H               9      0.00000             -0.52071             -0.00000         *
 * H              10      0.00000              0.33896             -0.00000         *
 * H              11     -0.11380              0.21659             -0.04313         *
 * H              12     -0.10380             -0.27783             -0.01599         *
 * H              13     -0.11380             -0.21659             -0.04313         *
 * H              14     -0.10380              0.27783             -0.01599         *
 * H              15      0.00000              0.52071              0.00000         *
 * H              16     -0.00000             -0.33896              0.00000         *
 * H              17      0.11380             -0.21659              0.04313         *
 * H              18      0.10380              0.27783              0.01599         *
 * H              19     -0.11380             -0.21659             -0.04313         *
 * H              20     -0.10380              0.27783             -0.01599         *
 * H              21     -0.00000              0.52071              0.00000         *
 * H              22      0.00000             -0.33896              0.00000         *
 * H              23      0.11380             -0.21659              0.04313         *
 * H              24      0.10380              0.27783              0.01599         *
 *                                                                                  *
 ************************************************************************************

 *********** Symmetrised Stress Tensor ***********
 *                                               *
 *          Cartesian components (GPa)           *
 * --------------------------------------------- *
 *             x             y             z     *
 *                                               *
 *  x   -268.970144      0.000000      0.758715  *
 *  y      0.000000   -278.080231      0.000000  *
 *  z      0.758715      0.000000   -264.485882  *
 *                                               *
 *  Pressure:  270.5121                          *
 *                                               *
 *************************************************
  
 +------------+-------------+-------------+-----------------+ <-- min LBFGS
 |    Step    |   lambda    |   F.delta'  |    enthalpy     | <-- min LBFGS
 +------------+-------------+-------------+-----------------+ <-- min LBFGS
 |  previous  |    0.000000 |    0.179552 |     -281.610100 | <-- min LBFGS
 | trial step |    1.000000 |   -0.177505 |     -281.616782 | <-- min LBFGS
 +------------+-------------+-------------+-----------------+ <-- min LBFGS
  

--------------------------------------------------------------------------------
 LBFGS: improving iteration         2 with line minimization (lambda=  0.502866)
--------------------------------------------------------------------------------

                           -------------------------------
                                      Unit Cell
                           -------------------------------
        Real Lattice(A)              Reciprocal Lattice(1/A)
     4.9673537     0.0000000    -0.0110197        1.268461432   0.000000000   1.607237123
     0.0000000     2.8496767     0.0000000        0.000000000   2.204876539   0.000000000
    -3.3070175     0.0000000     2.6099597        0.005355668   0.000000000   2.414173913

                       Lattice parameters(A)       Cell Angles
                    a =      4.967366          alpha =   90.000000
                    b =      2.849677          beta  =  141.845948
                    c =      4.212868          gamma =   90.000000

                Current cell volume =            36.841049 A**3

                           -------------------------------
                                     Cell Contents
                           -------------------------------

            xxxxxxxxxxxxxxxxxxxxxxxxxxxxxxxxxxxxxxxxxxxxxxxxxxxxxxxxxxxxxxxxx
            x  Element         Atom        Fractional coordinates of atoms  x
            x                 Number           u          v          w      x
            x---------------------------------------------------------------x
            x  H                 1         0.193590  -0.096996   0.252597   x
            x  H                 2         0.357851   0.140716   0.254420   x
            x  H                 3         0.500000   0.145560   0.750000   x
            x  H                 4         0.500000   0.415081   0.750000   x
            x  H                 5         0.806410  -0.096996   0.247403   x
            x  H                 6         0.642149   0.140716   0.245580   x
            x  H                 7         0.693590   0.403004   0.252597   x
            x  H                 8         0.857851   0.640716   0.254420   x
            x  H                 9         0.000000   0.645560   0.750000   x
            x  H                10         0.000000   0.915081   0.750000   x
            x  H                11         0.306410   0.403004   0.247403   x
            x  H                12         0.142149   0.640716   0.245580   x
            x  H                13         0.306410   0.596996   0.747403   x
            x  H                14         0.142149   0.359284   0.745580   x
            x  H                15        -0.000000   0.354440   0.250000   x
            x  H                16         0.000000   0.084919   0.250000   x
            x  H                17         0.693590   0.596996   0.752597   x
            x  H                18         0.857851   0.359284   0.754420   x
            x  H                19         0.806410   1.096996   0.747403   x
            x  H                20         0.642149   0.859284   0.745580   x
            x  H                21         0.500000   0.854440   0.250000   x
            x  H                22         0.500000   0.584919   0.250000   x
            x  H                23         0.193590   1.096996   0.752597   x
            x  H                24         0.357851   0.859284   0.754420   x
            xxxxxxxxxxxxxxxxxxxxxxxxxxxxxxxxxxxxxxxxxxxxxxxxxxxxxxxxxxxxxxxxx


------------------------------------------------------------------------ <-- SCF
SCF loop      Energy                           Energy gain       Timer   <-- SCF
                                               per atom          (sec)   <-- SCF
------------------------------------------------------------------------ <-- SCF
Initial  -3.43602807E+002                                        129.37  <-- SCF
      1  -3.43736940E+002                    5.58890490E-003     131.98  <-- SCF
      2  -3.43737815E+002                    3.64219431E-005     135.15  <-- SCF
      3  -3.43729175E+002                   -3.59985395E-004     138.32  <-- SCF
      4  -3.43728846E+002                   -1.37080711E-005     141.91  <-- SCF
      5  -3.43728846E+002                   -1.01730106E-008     145.09  <-- SCF
      6  -3.43728925E+002                    3.30643723E-006     148.28  <-- SCF
      7  -3.43728926E+002                    5.94801295E-008     150.52  <-- SCF
      8  -3.43728926E+002                   -2.15960234E-009     154.13  <-- SCF
      9  -3.43728926E+002                   -1.69314902E-010     157.35  <-- SCF
     10  -3.43728926E+002                   -1.00198846E-011     159.54  <-- SCF
     11  -3.43728926E+002                    9.02293125E-013     161.94  <-- SCF
     12  -3.43728926E+002                    1.89320432E-013     164.17  <-- SCF
------------------------------------------------------------------------ <-- SCF
 
Final energy =  -343.7289264269     eV
(energy not corrected for finite basis set)
 

 ******************************** Symmetrised Forces ********************************
 *                                                                                  *
 *                           Cartesian components (eV/A)                            *
 * -------------------------------------------------------------------------------- *
 *                         x                    y                    z              *
 *                                                                                  *
 * H               1      0.01662             -0.01074              0.02048         *
 * H               2      0.00437             -0.02773              0.00636         *
 * H               3     -0.00000             -0.12610              0.00000         *
 * H               4      0.00000              0.02774              0.00000         *
 * H               5     -0.01662             -0.01074             -0.02048         *
 * H               6     -0.00437             -0.02773             -0.00636         *
 * H               7      0.01662             -0.01074              0.02048         *
 * H               8      0.00437             -0.02773              0.00636         *
 * H               9      0.00000             -0.12610              0.00000         *
 * H              10      0.00000              0.02774              0.00000         *
 * H              11     -0.01662             -0.01074             -0.02048         *
 * H              12     -0.00437             -0.02773             -0.00636         *
 * H              13     -0.01662              0.01074             -0.02048         *
 * H              14     -0.00437              0.02773             -0.00636         *
 * H              15     -0.00000              0.12610              0.00000         *
 * H              16      0.00000             -0.02774              0.00000         *
 * H              17      0.01662              0.01074              0.02048         *
 * H              18      0.00437              0.02773              0.00636         *
 * H              19     -0.01662              0.01074             -0.02048         *
 * H              20     -0.00437              0.02773             -0.00636         *
 * H              21      0.00000              0.12610              0.00000         *
 * H              22     -0.00000             -0.02774              0.00000         *
 * H              23      0.01662              0.01074              0.02048         *
 * H              24      0.00437              0.02773              0.00636         *
 *                                                                                  *
 ************************************************************************************

 *********** Symmetrised Stress Tensor ***********
 *                                               *
 *          Cartesian components (GPa)           *
 * --------------------------------------------- *
 *             x             y             z     *
 *                                               *
 *  x   -262.250796      0.000000      0.667160  *
 *  y      0.000000   -262.763117      0.000000  *
 *  z      0.667160      0.000000   -262.930390  *
 *                                               *
 *  Pressure:  262.6481                          *
 *                                               *
 *************************************************
  
 +------------+-------------+-------------+-----------------+ <-- min LBFGS
 |    Step    |   lambda    |   F.delta'  |    enthalpy     | <-- min LBFGS
 +------------+-------------+-------------+-----------------+ <-- min LBFGS
 |  previous  |    0.000000 |    0.179552 |     -281.610100 | <-- min LBFGS
 | trial step |    1.000000 |   -0.177505 |     -281.616782 | <-- min LBFGS
 |  line step |    0.502866 |    0.011546 |     -281.644131 | <-- min LBFGS
 +------------+-------------+-------------+-----------------+ <-- min LBFGS
  
 LBFGS: finished iteration     2 with enthalpy= -2.81644131E+002 eV
  
 +-----------+-----------------+-----------------+------------+-----+ <-- LBFGS
 | Parameter |      value      |    tolerance    |    units   | OK? | <-- LBFGS
 +-----------+-----------------+-----------------+------------+-----+ <-- LBFGS
 |  dE/ion   |   1.417945E-003 |   1.000000E-009 |         eV | No  | <-- LBFGS
 |  |F|max   |   1.260967E-001 |   1.000000E-005 |       eV/A | No  | <-- LBFGS
 |  |dR|max  |   8.017610E-003 |   1.000000E-005 |          A | No  | <-- LBFGS
 |   Smax    |   7.749204E+000 |   1.000000E-005 |        GPa | No  | <-- LBFGS
 +-----------+-----------------+-----------------+------------+-----+ <-- LBFGS
  

================================================================================
 Starting LBFGS iteration          3 ...
================================================================================
  
 +------------+-------------+-------------+-----------------+ <-- min LBFGS
 |    Step    |   lambda    |   F.delta'  |    enthalpy     | <-- min LBFGS
 +------------+-------------+-------------+-----------------+ <-- min LBFGS
 |  previous  |    0.000000 |    0.094908 |     -281.644131 | <-- min LBFGS
 +------------+-------------+-------------+-----------------+ <-- min LBFGS
  

--------------------------------------------------------------------------------
 LBFGS: starting iteration         3 with trial guess (lambda=  1.000000)
--------------------------------------------------------------------------------

                           -------------------------------
                                      Unit Cell
                           -------------------------------
        Real Lattice(A)              Reciprocal Lattice(1/A)
     4.9363031     0.0000000    -0.0133635        1.277230291   0.000000000   1.617136235
     0.0000000     2.8327829     0.0000000        0.000000000   2.218025723   0.000000000
    -3.2876056     0.0000000     2.5965836        0.006573345   0.000000000   2.428112008

                       Lattice parameters(A)       Cell Angles
                    a =      4.936321          alpha =   90.000000
                    b =      2.832783          beta  =  141.853079
                    c =      4.189343          gamma =   90.000000

                Current cell volume =            36.184807 A**3

                           -------------------------------
                                     Cell Contents
                           -------------------------------

            xxxxxxxxxxxxxxxxxxxxxxxxxxxxxxxxxxxxxxxxxxxxxxxxxxxxxxxxxxxxxxxxx
            x  Element         Atom        Fractional coordinates of atoms  x
            x                 Number           u          v          w      x
            x---------------------------------------------------------------x
            x  H                 1         0.194509  -0.097427   0.253446   x
            x  H                 2         0.358114   0.139701   0.254683   x
            x  H                 3         0.500000   0.140853   0.750000   x
            x  H                 4         0.500000   0.416090   0.750000   x
            x  H                 5         0.805491  -0.097427   0.246554   x
            x  H                 6         0.641886   0.139701   0.245317   x
            x  H                 7         0.694509   0.402573   0.253446   x
            x  H                 8         0.858114   0.639701   0.254683   x
            x  H                 9         0.000000   0.640853   0.750000   x
            x  H                10         0.000000   0.916090   0.750000   x
            x  H                11         0.305491   0.402573   0.246554   x
            x  H                12         0.141886   0.639701   0.245317   x
            x  H                13         0.305491   0.597427   0.746554   x
            x  H                14         0.141886   0.360299   0.745317   x
            x  H                15        -0.000000   0.359147   0.250000   x
            x  H                16         0.000000   0.083910   0.250000   x
            x  H                17         0.694509   0.597427   0.753446   x
            x  H                18         0.858114   0.360299   0.754683   x
            x  H                19         0.805491   1.097427   0.746554   x
            x  H                20         0.641886   0.860299   0.745317   x
            x  H                21         0.500000   0.859147   0.250000   x
            x  H                22         0.500000   0.583910   0.250000   x
            x  H                23         0.194509   1.097427   0.753446   x
            x  H                24         0.358114   0.860299   0.754683   x
            xxxxxxxxxxxxxxxxxxxxxxxxxxxxxxxxxxxxxxxxxxxxxxxxxxxxxxxxxxxxxxxxx


------------------------------------------------------------------------ <-- SCF
SCF loop      Energy                           Energy gain       Timer   <-- SCF
                                               per atom          (sec)   <-- SCF
------------------------------------------------------------------------ <-- SCF
Initial  -3.42539427E+002                                        166.93  <-- SCF
      1  -3.42639149E+002                    4.15507890E-003     169.62  <-- SCF
      2  -3.42639847E+002                    2.90932841E-005     172.81  <-- SCF
      3  -3.42626781E+002                   -5.44409361E-004     176.07  <-- SCF
      4  -3.42626694E+002                   -3.63352093E-006     179.19  <-- SCF
      5  -3.42626694E+002                   -1.39214766E-008     182.27  <-- SCF
      6  -3.42626694E+002                   -1.15179329E-009     185.68  <-- SCF
      7  -3.42626694E+002                    8.87570440E-011     188.00  <-- SCF
      8  -3.42626694E+002                    9.17197074E-012     190.28  <-- SCF
      9  -3.42626694E+002                   -1.81264244E-014     192.42  <-- SCF
------------------------------------------------------------------------ <-- SCF
 
Final energy =  -342.6266938607     eV
(energy not corrected for finite basis set)
 

 ******************************** Symmetrised Forces ********************************
 *                                                                                  *
 *                           Cartesian components (eV/A)                            *
 * -------------------------------------------------------------------------------- *
 *                         x                    y                    z              *
 *                                                                                  *
 * H               1     -0.03036              0.07256             -0.01740         *
 * H               2      0.01338             -0.04109             -0.00462         *
 * H               3      0.00000              0.21787             -0.00000         *
 * H               4     -0.00000             -0.16495             -0.00000         *
 * H               5      0.03036              0.07256              0.01740         *
 * H               6     -0.01338             -0.04109              0.00462         *
 * H               7     -0.03036              0.07256             -0.01740         *
 * H               8      0.01338             -0.04109             -0.00462         *
 * H               9      0.00000              0.21787             -0.00000         *
 * H              10      0.00000             -0.16495             -0.00000         *
 * H              11      0.03036              0.07256              0.01740         *
 * H              12     -0.01338             -0.04109              0.00462         *
 * H              13      0.03036             -0.07256              0.01740         *
 * H              14     -0.01338              0.04109              0.00462         *
 * H              15      0.00000             -0.21787             -0.00000         *
 * H              16     -0.00000              0.16495             -0.00000         *
 * H              17     -0.03036             -0.07256             -0.01740         *
 * H              18      0.01338              0.04109             -0.00462         *
 * H              19      0.03036             -0.07256              0.01740         *
 * H              20     -0.01338              0.04109              0.00462         *
 * H              21      0.00000             -0.21787             -0.00000         *
 * H              22      0.00000              0.16495             -0.00000         *
 * H              23     -0.03036             -0.07256             -0.01740         *
 * H              24      0.01338              0.04109             -0.00462         *
 *                                                                                  *
 ************************************************************************************

 *********** Symmetrised Stress Tensor ***********
 *                                               *
 *          Cartesian components (GPa)           *
 * --------------------------------------------- *
 *             x             y             z     *
 *                                               *
 *  x   -274.683790      0.000000     -0.018788  *
 *  y      0.000000   -274.076663      0.000000  *
 *  z     -0.018788      0.000000   -274.376531  *
 *                                               *
 *  Pressure:  274.3790                          *
 *                                               *
 *************************************************
  
 +------------+-------------+-------------+-----------------+ <-- min LBFGS
 |    Step    |   lambda    |   F.delta'  |    enthalpy     | <-- min LBFGS
 +------------+-------------+-------------+-----------------+ <-- min LBFGS
 |  previous  |    0.000000 |    0.094908 |     -281.644131 | <-- min LBFGS
 | trial step |    1.000000 |   -0.077544 |     -281.647770 | <-- min LBFGS
 +------------+-------------+-------------+-----------------+ <-- min LBFGS
  

--------------------------------------------------------------------------------
 LBFGS: improving iteration         3 with line minimization (lambda=  0.550342)
--------------------------------------------------------------------------------

                           -------------------------------
                                      Unit Cell
                           -------------------------------
        Real Lattice(A)              Reciprocal Lattice(1/A)
     4.9502653     0.0000000    -0.0123096        1.273272496   0.000000000   1.612669861
     0.0000000     2.8403793     0.0000000        0.000000000   2.212093736   0.000000000
    -3.2963343     0.0000000     2.6025983        0.006022234   0.000000000   2.421824630

                       Lattice parameters(A)       Cell Angles
                    a =      4.950281          alpha =   90.000000
                    b =      2.840379          beta  =  141.849858
                    c =      4.199921          gamma =   90.000000

                Current cell volume =            36.478922 A**3

                           -------------------------------
                                     Cell Contents
                           -------------------------------

            xxxxxxxxxxxxxxxxxxxxxxxxxxxxxxxxxxxxxxxxxxxxxxxxxxxxxxxxxxxxxxxxx
            x  Element         Atom        Fractional coordinates of atoms  x
            x                 Number           u          v          w      x
            x---------------------------------------------------------------x
            x  H                 1         0.194096  -0.097233   0.253064   x
            x  H                 2         0.357996   0.140158   0.254565   x
            x  H                 3         0.500000   0.142969   0.750000   x
            x  H                 4         0.500000   0.415636   0.750000   x
            x  H                 5         0.805904  -0.097233   0.246936   x
            x  H                 6         0.642004   0.140158   0.245435   x
            x  H                 7         0.694096   0.402767   0.253064   x
            x  H                 8         0.857996   0.640158   0.254565   x
            x  H                 9         0.000000   0.642969   0.750000   x
            x  H                10         0.000000   0.915636   0.750000   x
            x  H                11         0.305904   0.402767   0.246936   x
            x  H                12         0.142004   0.640158   0.245435   x
            x  H                13         0.305904   0.597233   0.746936   x
            x  H                14         0.142004   0.359842   0.745435   x
            x  H                15        -0.000000   0.357031   0.250000   x
            x  H                16         0.000000   0.084364   0.250000   x
            x  H                17         0.694096   0.597233   0.753064   x
            x  H                18         0.857996   0.359842   0.754565   x
            x  H                19         0.805904   1.097233   0.746936   x
            x  H                20         0.642004   0.859842   0.745435   x
            x  H                21         0.500000   0.857031   0.250000   x
            x  H                22         0.500000   0.584364   0.250000   x
            x  H                23         0.194096   1.097233   0.753064   x
            x  H                24         0.357996   0.859842   0.754565   x
            xxxxxxxxxxxxxxxxxxxxxxxxxxxxxxxxxxxxxxxxxxxxxxxxxxxxxxxxxxxxxxxxx


------------------------------------------------------------------------ <-- SCF
SCF loop      Energy                           Energy gain       Timer   <-- SCF
                                               per atom          (sec)   <-- SCF
------------------------------------------------------------------------ <-- SCF
Initial  -3.43109743E+002                                        195.21  <-- SCF
      1  -3.43131947E+002                    9.25142583E-004     198.01  <-- SCF
      2  -3.43132093E+002                    6.08917328E-006     201.22  <-- SCF
      3  -3.43129477E+002                   -1.08994020E-004     204.53  <-- SCF
      4  -3.43129459E+002                   -7.37609468E-007     207.85  <-- SCF
      5  -3.43129459E+002                   -6.45418127E-009     211.08  <-- SCF
      6  -3.43129459E+002                   -1.00797018E-010     214.19  <-- SCF
      7  -3.43129459E+002                    1.45394064E-011     216.64  <-- SCF
      8  -3.43129459E+002                    1.98182240E-012     218.84  <-- SCF
      9  -3.43129459E+002                   -2.55783988E-013     221.11  <-- SCF
------------------------------------------------------------------------ <-- SCF
 
Final energy =  -343.1294593068     eV
(energy not corrected for finite basis set)
 

 ******************************** Symmetrised Forces ********************************
 *                                                                                  *
 *                           Cartesian components (eV/A)                            *
 * -------------------------------------------------------------------------------- *
 *                         x                    y                    z              *
 *                                                                                  *
 * H               1     -0.00903              0.03484             -0.00019         *
 * H               2      0.00957             -0.03517              0.00028         *
 * H               3      0.00000              0.06631              0.00000         *
 * H               4     -0.00000             -0.08250             -0.00000         *
 * H               5      0.00903              0.03484              0.00019         *
 * H               6     -0.00957             -0.03517             -0.00028         *
 * H               7     -0.00903              0.03484             -0.00019         *
 * H               8      0.00957             -0.03517              0.00028         *
 * H               9      0.00000              0.06631              0.00000         *
 * H              10      0.00000             -0.08250             -0.00000         *
 * H              11      0.00903              0.03484              0.00019         *
 * H              12     -0.00957             -0.03517             -0.00028         *
 * H              13      0.00903             -0.03484              0.00019         *
 * H              14     -0.00957              0.03517             -0.00028         *
 * H              15      0.00000             -0.06631              0.00000         *
 * H              16      0.00000              0.08250              0.00000         *
 * H              17     -0.00903             -0.03484             -0.00019         *
 * H              18      0.00957              0.03517              0.00028         *
 * H              19      0.00903             -0.03484              0.00019         *
 * H              20     -0.00957              0.03517             -0.00028         *
 * H              21     -0.00000             -0.06631             -0.00000         *
 * H              22      0.00000              0.08250              0.00000         *
 * H              23     -0.00903             -0.03484             -0.00019         *
 * H              24      0.00957              0.03517              0.00028         *
 *                                                                                  *
 ************************************************************************************

 *********** Symmetrised Stress Tensor ***********
 *                                               *
 *          Cartesian components (GPa)           *
 * --------------------------------------------- *
 *             x             y             z     *
 *                                               *
 *  x   -269.037068      0.000000      0.296613  *
 *  y      0.000000   -268.824556      0.000000  *
 *  z      0.296613      0.000000   -269.192254  *
 *                                               *
 *  Pressure:  269.0180                          *
 *                                               *
 *************************************************
  
 +------------+-------------+-------------+-----------------+ <-- min LBFGS
 |    Step    |   lambda    |   F.delta'  |    enthalpy     | <-- min LBFGS
 +------------+-------------+-------------+-----------------+ <-- min LBFGS
 |  previous  |    0.000000 |    0.094908 |     -281.644131 | <-- min LBFGS
 | trial step |    1.000000 |   -0.077544 |     -281.647770 | <-- min LBFGS
 |  line step |    0.550342 |   -0.000060 |     -281.654894 | <-- min LBFGS
 +------------+-------------+-------------+-----------------+ <-- min LBFGS
  
 LBFGS: finished iteration     3 with enthalpy= -2.81654894E+002 eV
  
 +-----------+-----------------+-----------------+------------+-----+ <-- LBFGS
 | Parameter |      value      |    tolerance    |    units   | OK? | <-- LBFGS
 +-----------+-----------------+-----------------+------------+-----+ <-- LBFGS
 |  dE/ion   |   4.484551E-004 |   1.000000E-009 |         eV | No  | <-- LBFGS
 |  |F|max   |   8.250018E-002 |   1.000000E-005 |       eV/A | No  | <-- LBFGS
 |  |dR|max  |   7.357949E-003 |   1.000000E-005 |          A | No  | <-- LBFGS
 |   Smax    |   1.175444E+000 |   1.000000E-005 |        GPa | No  | <-- LBFGS
 +-----------+-----------------+-----------------+------------+-----+ <-- LBFGS
  

================================================================================
 Starting LBFGS iteration          4 ...
================================================================================
  
 +------------+-------------+-------------+-----------------+ <-- min LBFGS
 |    Step    |   lambda    |   F.delta'  |    enthalpy     | <-- min LBFGS
 +------------+-------------+-------------+-----------------+ <-- min LBFGS
 |  previous  |    0.000000 |    0.028266 |     -281.654894 | <-- min LBFGS
 +------------+-------------+-------------+-----------------+ <-- min LBFGS
  

--------------------------------------------------------------------------------
 LBFGS: starting iteration         4 with trial guess (lambda=  1.000000)
--------------------------------------------------------------------------------

                           -------------------------------
                                      Unit Cell
                           -------------------------------
        Real Lattice(A)              Reciprocal Lattice(1/A)
     4.9420757     0.0000000    -0.0137504        1.275860660   0.000000000   1.615564210
     0.0000000     2.8362214     0.0000000        0.000000000   2.215336655   0.000000000
    -3.2916453     0.0000000     2.5995134        0.006748811   0.000000000   2.425607824

                       Lattice parameters(A)       Cell Angles
                    a =      4.942095          alpha =   90.000000
                    b =      2.836221          beta  =  141.860181
                    c =      4.194329          gamma =   90.000000

                Current cell volume =            36.308542 A**3

                           -------------------------------
                                     Cell Contents
                           -------------------------------

            xxxxxxxxxxxxxxxxxxxxxxxxxxxxxxxxxxxxxxxxxxxxxxxxxxxxxxxxxxxxxxxxx
            x  Element         Atom        Fractional coordinates of atoms  x
            x                 Number           u          v          w      x
            x---------------------------------------------------------------x
            x  H                 1         0.194168  -0.095799   0.253238   x
            x  H                 2         0.358330   0.138426   0.254639   x
            x  H                 3         0.500000   0.143983   0.750000   x
            x  H                 4         0.500000   0.413322   0.750000   x
            x  H                 5         0.805832  -0.095799   0.246762   x
            x  H                 6         0.641670   0.138426   0.245361   x
            x  H                 7         0.694168   0.404201   0.253238   x
            x  H                 8         0.858330   0.638426   0.254639   x
            x  H                 9         0.000000   0.643983   0.750000   x
            x  H                10         0.000000   0.913322   0.750000   x
            x  H                11         0.305832   0.404201   0.246762   x
            x  H                12         0.141670   0.638426   0.245361   x
            x  H                13         0.305832   0.595799   0.746762   x
            x  H                14         0.141670   0.361574   0.745361   x
            x  H                15        -0.000000   0.356017   0.250000   x
            x  H                16         0.000000   0.086678   0.250000   x
            x  H                17         0.694168   0.595799   0.753238   x
            x  H                18         0.858330   0.361574   0.754639   x
            x  H                19         0.805832   1.095799   0.746762   x
            x  H                20         0.641670   0.861574   0.745361   x
            x  H                21         0.500000   0.856017   0.250000   x
            x  H                22         0.500000   0.586678   0.250000   x
            x  H                23         0.194168   1.095799   0.753238   x
            x  H                24         0.358330   0.861574   0.754639   x
            xxxxxxxxxxxxxxxxxxxxxxxxxxxxxxxxxxxxxxxxxxxxxxxxxxxxxxxxxxxxxxxxx


------------------------------------------------------------------------ <-- SCF
SCF loop      Energy                           Energy gain       Timer   <-- SCF
                                               per atom          (sec)   <-- SCF
------------------------------------------------------------------------ <-- SCF
[...]
      H    23      S                    0.989
      H    24      S                    1.007
  -------------------------------------------
                           Total:      24.000
  -------------------------------------------

     Atomic Populations (Mulliken)
     -----------------------------
Species          Ion     s      p      d      f     Total  Charge (e)
=====================================================================
  H               1     0.99   0.00   0.00   0.00   0.99     0.01
  H               2     1.01   0.00   0.00   0.00   1.01    -0.01
  H               3     1.02   0.00   0.00   0.00   1.02    -0.02
  H               4     0.99   0.00   0.00   0.00   0.99     0.01
  H               5     0.99   0.00   0.00   0.00   0.99     0.01
  H               6     1.01   0.00   0.00   0.00   1.01    -0.01
  H               7     0.99   0.00   0.00   0.00   0.99     0.01
  H               8     1.01   0.00   0.00   0.00   1.01    -0.01
  H               9     1.02   0.00   0.00   0.00   1.02    -0.02
  H              10     0.99   0.00   0.00   0.00   0.99     0.01
  H              11     0.99   0.00   0.00   0.00   0.99     0.01
  H              12     1.01   0.00   0.00   0.00   1.01    -0.01
  H              13     0.99   0.00   0.00   0.00   0.99     0.01
  H              14     1.01   0.00   0.00   0.00   1.01    -0.01
  H              15     1.02   0.00   0.00   0.00   1.02    -0.02
  H              16     0.99   0.00   0.00   0.00   0.99     0.01
  H              17     0.99   0.00   0.00   0.00   0.99     0.01
  H              18     1.01   0.00   0.00   0.00   1.01    -0.01
  H              19     0.99   0.00   0.00   0.00   0.99     0.01
  H              20     1.01   0.00   0.00   0.00   1.01    -0.01
  H              21     1.02   0.00   0.00   0.00   1.02    -0.02
  H              22     0.99   0.00   0.00   0.00   0.99     0.01
  H              23     0.99   0.00   0.00   0.00   0.99     0.01
  H              24     1.01   0.00   0.00   0.00   1.01    -0.01
=====================================================================

                 Bond                   Population      Length (A)
======================================================================
              H 3  -- H 4                    1.40        0.77175
              H 15 -- H 16                   1.40        0.77175
              H 21 -- H 22                   1.40        0.77175
              H 9  -- H 10                   1.40        0.77175
              H 18 -- H 19                   1.34        0.78308
              H 14 -- H 23                   1.34        0.78308
              H 17 -- H 20                   1.34        0.78308
              H 13 -- H 24                   1.34        0.78308
              H 6  -- H 7                    1.34        0.78308
              H 2  -- H 11                   1.34        0.78308
              H 5  -- H 8                    1.34        0.78308
              H 1  -- H 12                   1.34        0.78308
              H 7  -- H 8                    0.25        1.04886
              H 11 -- H 12                   0.25        1.04886
              H 5  -- H 6                    0.25        1.04886
              H 1  -- H 2                    0.25        1.04886
              H 17 -- H 18                   0.25        1.04886
              H 13 -- H 14                   0.25        1.04886
              H 19 -- H 20                   0.25        1.04886
              H 23 -- H 24                   0.25        1.04886
              H 9  -- H 18                   0.12        1.07519
              H 9  -- H 14                   0.12        1.07519
              H 2  -- H 21                   0.12        1.07519
              H 6  -- H 21                   0.12        1.07519
              H 3  -- H 24                   0.12        1.07519
              H 12 -- H 15                   0.12        1.07519
              H 3  -- H 20                   0.12        1.07519
              H 8  -- H 15                   0.12        1.07519
              H 5  -- H 16                   0.27        1.07751
              H 1  -- H 16                   0.27        1.07751
              H 7  -- H 22                   0.27        1.07751
              H 11 -- H 22                   0.27        1.07751
              H 4  -- H 17                   0.27        1.07751
              H 4  -- H 13                   0.27        1.07751
              H 10 -- H 19                   0.27        1.07751
              H 10 -- H 23                   0.27        1.07751
              H 8  -- H 13                  -0.14        1.41770
              H 6  -- H 23                  -0.14        1.41770
              H 2  -- H 19                  -0.14        1.41770
              H 12 -- H 17                  -0.14        1.41770
              H 5  -- H 24                  -0.14        1.41770
              H 11 -- H 18                  -0.14        1.41770
              H 7  -- H 14                  -0.14        1.41770
              H 1  -- H 20                  -0.14        1.41770
              H 11 -- H 17                  -0.16        1.44150
              H 7  -- H 13                  -0.16        1.44150
              H 5  -- H 23                  -0.16        1.44150
              H 1  -- H 19                  -0.16        1.44150
              H 20 -- H 24                  -0.02        1.44541
              H 14 -- H 18                  -0.02        1.44541
              H 8  -- H 12                  -0.02        1.44541
              H 2  -- H 6                   -0.02        1.44541
              H 9  -- H 11                  -0.11        1.45930
              H 7  -- H 9                   -0.11        1.45930
              H 3  -- H 5                   -0.11        1.45930
              H 1  -- H 3                   -0.11        1.45930
              H 21 -- H 23                  -0.11        1.45930
              H 19 -- H 21                  -0.11        1.45930
              H 15 -- H 17                  -0.11        1.45930
              H 13 -- H 15                  -0.11        1.45930
              H 16 -- H 24                  -0.15        1.45997
              H 16 -- H 20                  -0.15        1.45997
              H 4  -- H 12                  -0.15        1.45997
              H 4  -- H 8                   -0.15        1.45997
              H 18 -- H 22                  -0.15        1.45997
              H 14 -- H 22                  -0.15        1.45997
              H 6  -- H 10                  -0.15        1.45997
              H 2  -- H 10                  -0.15        1.45997
              H 4  -- H 24                  -0.39        1.46249
              H 12 -- H 16                  -0.39        1.46249
              H 8  -- H 16                  -0.39        1.46249
              H 4  -- H 20                  -0.39        1.46249
              H 10 -- H 14                  -0.39        1.46249
              H 10 -- H 18                  -0.39        1.46249
              H 2  -- H 22                  -0.39        1.46249
              H 6  -- H 22                  -0.39        1.46249
              H 16 -- H 23                  -0.01        1.48463
              H 1  -- H 10                  -0.01        1.48463
              H 17 -- H 22                  -0.01        1.48463
              H 16 -- H 19                  -0.01        1.48463
              H 13 -- H 22                  -0.01        1.48463
              H 5  -- H 10                  -0.01        1.48463
              H 4  -- H 11                  -0.01        1.48463
              H 4  -- H 7                   -0.01        1.48463
              H 8  -- H 14                  -0.14        1.51429
              H 2  -- H 20                  -0.14        1.51429
              H 12 -- H 18                  -0.14        1.51429
              H 6  -- H 24                  -0.14        1.51429
              H 9  -- H 17                  -0.06        1.53608
              H 9  -- H 13                  -0.06        1.53608
              H 5  -- H 21                  -0.06        1.53608
              H 3  -- H 23                  -0.06        1.53608
              H 11 -- H 15                  -0.06        1.53608
              H 3  -- H 19                  -0.06        1.53608
              H 1  -- H 21                  -0.06        1.53608
              H 7  -- H 15                  -0.06        1.53608
              H 17 -- H 19                  -0.39        1.53640
              H 13 -- H 23                  -0.39        1.53640
              H 5  -- H 7                   -0.39        1.53640
              H 1  -- H 11                  -0.39        1.53640
              H 10 -- H 21                  -0.16        1.54334
              H 9  -- H 22                  -0.16        1.54334
              H 4  -- H 15                  -0.16        1.54334
              H 3  -- H 16                  -0.16        1.54334
              H 12 -- H 13                  -0.04        1.55371
              H 6  -- H 19                  -0.04        1.55371
              H 1  -- H 24                  -0.04        1.55371
              H 2  -- H 23                  -0.04        1.55371
              H 11 -- H 14                  -0.04        1.55371
              H 8  -- H 17                  -0.04        1.55371
              H 7  -- H 18                  -0.04        1.55371
              H 5  -- H 20                  -0.04        1.55371
              H 20 -- H 21                  -0.06        1.58625
              H 15 -- H 18                  -0.06        1.58625
              H 9  -- H 12                  -0.06        1.58625
              H 8  -- H 9                   -0.06        1.58625
              H 3  -- H 6                   -0.06        1.58625
              H 14 -- H 15                  -0.06        1.58625
              H 21 -- H 24                  -0.06        1.58625
              H 2  -- H 3                   -0.06        1.58625
              H 12 -- H 24                  -0.04        1.58770
              H 6  -- H 18                  -0.04        1.58770
              H 2  -- H 14                  -0.04        1.58770
              H 8  -- H 20                  -0.04        1.58770
              H 5  -- H 15                  -0.46        1.59996
              H 1  -- H 15                  -0.46        1.59996
              H 11 -- H 21                  -0.46        1.59996
              H 7  -- H 21                  -0.46        1.59996
              H 3  -- H 17                  -0.46        1.59996
              H 3  -- H 13                  -0.46        1.59996
              H 9  -- H 19                  -0.46        1.59996
              H 9  -- H 23                  -0.46        1.59996
              H 3  -- H 15                  -0.23        1.65526
              H 9  -- H 21                  -0.23        1.65526
              H 2  -- H 18                  -0.25        1.65959
              H 8  -- H 24                  -0.25        1.65959
              H 6  -- H 14                  -0.25        1.65959
              H 12 -- H 20                  -0.25        1.65959
              H 15 -- H 23                  -0.06        1.66100
              H 15 -- H 19                  -0.06        1.66100
              H 17 -- H 21                  -0.06        1.66100
              H 13 -- H 21                  -0.06        1.66100
              H 3  -- H 11                  -0.06        1.66100
              H 3  -- H 7                   -0.06        1.66100
              H 1  -- H 9                   -0.06        1.66100
              H 5  -- H 9                   -0.06        1.66100
              H 14 -- H 24                  -0.46        1.75347
              H 18 -- H 20                  -0.46        1.75347
              H 6  -- H 8                   -0.46        1.75347
              H 2  -- H 12                  -0.46        1.75347
              H 10 -- H 20                  -0.14        1.75791
              H 8  -- H 22                  -0.14        1.75791
              H 4  -- H 14                  -0.14        1.75791
              H 12 -- H 22                  -0.14        1.75791
              H 10 -- H 24                  -0.14        1.75791
              H 6  -- H 16                  -0.14        1.75791
              H 4  -- H 18                  -0.14        1.75791
              H 2  -- H 16                  -0.14        1.75791
              H 11 -- H 19                  -0.32        1.76634
              H 7  -- H 23                  -0.32        1.76634
              H 1  -- H 17                  -0.32        1.76634
              H 5  -- H 13                  -0.32        1.76634
              H 8  -- H 10                  -0.08        1.76653
              H 10 -- H 12                  -0.08        1.76653
              H 20 -- H 22                  -0.08        1.76653
              H 22 -- H 24                  -0.08        1.76653
              H 16 -- H 18                  -0.08        1.76653
              H 14 -- H 16                  -0.08        1.76653
              H 4  -- H 6                   -0.08        1.76653
              H 2  -- H 4                   -0.08        1.76653
              H 10 -- H 17                  -0.25        1.77537
              H 10 -- H 13                  -0.25        1.77537
              H 4  -- H 23                  -0.25        1.77537
              H 4  -- H 19                  -0.25        1.77537
              H 5  -- H 22                  -0.25        1.77537
              H 1  -- H 22                  -0.25        1.77537
              H 11 -- H 16                  -0.25        1.77537
              H 7  -- H 16                  -0.25        1.77537
              H 10 -- H 22                  -0.33        1.79307
              H 4  -- H 16                  -0.33        1.79307
              H 18 -- H 23                  -0.21        1.82756
              H 17 -- H 24                  -0.21        1.82756
              H 14 -- H 19                  -0.21        1.82756
              H 13 -- H 20                  -0.21        1.82756
              H 2  -- H 7                   -0.21        1.82756
              H 6  -- H 11                  -0.21        1.82756
              H 1  -- H 8                   -0.21        1.82756
              H 5  -- H 12                  -0.21        1.82756
              H 5  -- H 14                  -0.26        1.83278
              H 1  -- H 18                  -0.26        1.83278
              H 11 -- H 20                  -0.26        1.83278
              H 7  -- H 24                  -0.26        1.83278
              H 6  -- H 13                  -0.26        1.83278
              H 2  -- H 17                  -0.26        1.83278
              H 8  -- H 23                  -0.26        1.83278
              H 12 -- H 19                  -0.26        1.83278
              H 3  -- H 14                  -0.18        1.85933
              H 6  -- H 15                  -0.18        1.85933
              H 3  -- H 18                  -0.18        1.85933
              H 2  -- H 15                  -0.18        1.85933
              H 8  -- H 21                  -0.18        1.85933
              H 9  -- H 20                  -0.18        1.85933
              H 12 -- H 21                  -0.18        1.85933
              H 9  -- H 24                  -0.18        1.85933
              H 7  -- H 19                  -0.08        1.87980
              H 11 -- H 23                  -0.08        1.87980
              H 5  -- H 17                  -0.08        1.87980
              H 1  -- H 13                  -0.08        1.87980
              H 7  -- H 11                  -0.15        1.88703
              H 1  -- H 5                   -0.15        1.88703
              H 19 -- H 23                  -0.15        1.88703
              H 13 -- H 17                  -0.15        1.88703
              H 16 -- H 17                  -0.21        1.90153
              H 13 -- H 16                  -0.21        1.90153
              H 22 -- H 23                  -0.21        1.90153
              H 19 -- H 22                  -0.21        1.90153
              H 4  -- H 5                   -0.21        1.90153
              H 1  -- H 4                   -0.21        1.90153
              H 10 -- H 11                  -0.21        1.90153
              H 7  -- H 10                  -0.21        1.90153
              H 15 -- H 24                  -0.30        1.92828
              H 15 -- H 20                  -0.30        1.92828
              H 3  -- H 12                  -0.30        1.92828
              H 3  -- H 8                   -0.30        1.92828
              H 18 -- H 21                  -0.30        1.92828
              H 14 -- H 21                  -0.30        1.92828
              H 6  -- H 9                   -0.30        1.92828
              H 2  -- H 9                   -0.30        1.92828
              H 10 -- H 16                  -0.09        2.15694
              H 4  -- H 22                  -0.09        2.15694
              H 7  -- H 17                  -0.08        2.16967
              H 11 -- H 13                  -0.08        2.16967
              H 5  -- H 19                  -0.08        2.16967
              H 1  -- H 23                  -0.08        2.16967
              H 8  -- H 18                  -0.05        2.24344
              H 2  -- H 24                  -0.05        2.24344
              H 12 -- H 14                  -0.05        2.24344
              H 6  -- H 20                  -0.05        2.24344
              H 9  -- H 15                  -0.04        2.24752
              H 3  -- H 21                  -0.04        2.24752
              H 11 -- H 24                  -0.02        2.33697
              H 5  -- H 18                  -0.02        2.33697
              H 1  -- H 14                  -0.02        2.33697
              H 7  -- H 20                  -0.02        2.33697
              H 6  -- H 17                  -0.02        2.33697
              H 2  -- H 13                  -0.02        2.33697
              H 12 -- H 23                  -0.02        2.33697
              H 8  -- H 19                  -0.02        2.33697
              H 8  -- H 11                   0.03        2.35055
              H 7  -- H 12                   0.03        2.35055
              H 2  -- H 5                    0.03        2.35055
              H 19 -- H 24                   0.03        2.35055
              H 1  -- H 6                    0.03        2.35055
              H 20 -- H 23                   0.03        2.35055
              H 14 -- H 17                   0.03        2.35055
              H 13 -- H 18                   0.03        2.35055
              H 10 -- H 15                  -0.02        2.45161
              H 9  -- H 16                  -0.02        2.45161
              H 3  -- H 22                  -0.02        2.45161
              H 4  -- H 21                  -0.02        2.45161
              H 16 -- H 21                   0.04        2.55766
              H 4  -- H 9                    0.04        2.55766
              H 15 -- H 22                   0.04        2.55766
              H 3  -- H 10                   0.04        2.55766
======================================================================


Writing analysis data to C2c.castep_bin

Writing model to C2c.check
 
 A BibTeX formatted list of references used in this run has been written to 
 C2c.bib
 
Initialisation time =      1.51 s
Calculation time    =    656.75 s
Finalisation time   =      3.04 s
Total time          =    661.29 s
Peak Memory Use     = 544216 kB
  
Overall parallel efficiency rating: Very good (88%)                             
  
Data was distributed by:-
k-point (16-way); efficiency rating: Very good (89%)                            
