 +-------------------------------------------------+
 |                                                 |
 |      CCC   AA    SSS  TTTTT  EEEEE  PPPP        |
 |     C     A  A  S       T    E      P   P       |
 |     C     AAAA   SS     T    EEE    PPPP        |
 |     C     A  A     S    T    E      P           |
 |      CCC  A  A  SSS     T    EEEEE  P           |
 |                                                 |
 +-------------------------------------------------+
 |                                                 |
 | Welcome to Academic Release CASTEP version 18.1 |          
 | Ab Initio Total Energy Program                  |
 |                                                 |
 | Authors:                                        |
 | M. Segall, M. Probert, C. Pickard, P. Hasnip,   |
 | S. Clark, K. Refson, J. R. Yates, M. Payne      |
 |                                                 |
 | Contributors:                                   |
 | P. Lindan, P. Haynes, J. White, V. Milman,      |
 | N. Govind, M. Gibson, P. Tulip, V. Cocula,      |
 | B. Montanari, D. Quigley, M. Glover,            |
 | L. Bernasconi, A. Perlov, M. Plummer,           |
 | E. McNellis, J. Meyer, J. Gale, D. Jochym       |
 | J. Aarons, B. Walker, R. Gillen, D. Jones       |
 | T. Green, I. J. Bush, C. J. Armstrong,          |
 | E. J. Higgins, E. L. Brown, M. S. McFly,        |
 | J. Wilkins, B-C. Shih, P. J. P. Byrne           |
 |                                                 |
 | Copyright (c) 2000 - 2017                       |
 |                                                 |
 |     Distributed under the terms of an           |
 |     Agreement between the United Kingdom        |
 |     Car-Parrinello (UKCP) Consortium,           |
 |     Daresbury Laboratory and Accelrys, Inc.     |
 |                                                 |
 | Please cite                                     |
 |                                                 |
 |     "First principles methods using CASTEP"     |
 |                                                 |
 |         Zeitschrift fuer Kristallographie       |
 |           220(5-6) pp. 567-570 (2005)           |
 |                                                 |
 | S. J. Clark, M. D. Segall, C. J. Pickard,       |
 | P. J. Hasnip, M. J. Probert, K. Refson,         |
 | M. C. Payne                                     |
 |                                                 |
 |       in all publications arising from          |
 |              your use of CASTEP                 |
 |                                                 |
 +-------------------------------------------------+


 Compiled for linux_x86_64_gfortran4.8 on Thu, 19 Jul 2018 15:42:32 +0100
 from code version 70483bd0ad64+  Sun, 10 Dec 2017 12:18:29 +0000
 Compiler: GNU Fortran 4.8.5; Optimisation: fast
 MATHLIBS: Intel MKL(2018.0.0) (LAPACK version 3.7.0)
 FFT Lib : mkl
 Fundamental constants values: CODATA 2014

 Run started: Sat, 08 Aug 2020 13:27:30 +0100
 +-------------------------------------------------+
 |                                                 |
 |  D D D D    F F F F F  P P P P     T T T T T    |
 |  D       D  F          P       P       T        |
 |  D       D  F F F F    P P P P         T        |
 |  D       D  F          P               T        |
 |  D D D D    F          P               T        |
 |                                                 |
 +-------------------------------------------------+
 |                                                 |
 | Welcome to Castep Linear Response (DFPT)        |
 |                                                 |
 | Copyright (c) 2006 - 2017                       |
 |                                                 |
 | Please cite the following publications in all   |
 | work arising from your use of CASTEP LR.        |
 |                                                 |
 | K. Refson, S. J. Clark and P. R. Tulip          |
 | Variational density functional perturbation     |
 | theory for dielectrics and lattice dynamics     |
 | Phys. Rev. B 73(15), 155114 (2006)              |
 +-------------------------------------------------+


 Atomic calculation performed for H: 1s1

 Converged in 41 iterations to an ae energy of -12.488 eV

   ============================================================                
   | Pseudopotential Report - Date of generation  8-08-2020   |                
   ------------------------------------------------------------                
   | Element: H Ionic charge:  1.00 Level of theory: PBE      |                
   | Atomic Solver: Koelling-Harmon                           |                
   |                                                          |                
   |               Reference Electronic Structure             |                
   |         Orbital         Occupation         Energy        |                
   |            1s              1.000           -0.239        |                
   |                                                          |                
   |                 Pseudopotential Definition               |                
   |        Beta     l      e      Rc     scheme   norm       |                
   |         loc     0   -0.239   0.702     qc      1         |                
   |                                                          |                
   | No charge augmentation                                   |                
   | No partial core correction                               |                
   ------------------------------------------------------------                
   | "0|0.7|2|6|8|10L(qc=10)"                                 |                
   ------------------------------------------------------------                
   |      Author: Chris J. Pickard, Cambridge University      |                
   ============================================================                

 Pseudo atomic calculation performed for H 1s1

 Converged in 24 iterations to a total energy of -12.4843 eV

 Calculation parallelised over 8 processes.
 Data is distributed by G-vector(8-way)

 ************************************ Title ************************************
 

 ***************************** General Parameters ******************************
  
 output verbosity                               : normal  (1)
 write checkpoint data to                       : Cmca-12.check
 type of calculation                            : phonon calculation
 stress calculation                             : on
 density difference calculation                 : off
 electron localisation func (ELF) calculation   : off
 Hirshfeld analysis                             : off
 unlimited duration calculation
 timing information                             : on
 memory usage estimate                          : on
 write extra output files                       : on
 write final potential to formatted file        : off
 write final density to formatted file          : off
 write structure in CELL formatted file         : on
 write BibTeX reference list                    : on
 write OTFG pseudopotential files               : on
 write electrostatic potential file             : on
 write bands file                               : on
 checkpoint writing                             : both castep_bin and check files
  
 output         length unit                     : A
 output           mass unit                     : amu
 output           time unit                     : ps
 output         charge unit                     : e
 output           spin unit                     : hbar/2
 output         energy unit                     : eV
 output          force unit                     : eV/A
 output       velocity unit                     : A/ps
 output       pressure unit                     : GPa
 output     inv_length unit                     : 1/A
 output      frequency unit                     : cm-1
 output force constant unit                     : eV/A**2
 output         volume unit                     : A**3
 output   IR intensity unit                     : (D/A)**2/amu
 output         dipole unit                     : D
 output         efield unit                     : eV/A/e
 output        entropy unit                     : J/mol/K
  
 wavefunctions paging                           : none
 random number generator seed                   : randomised (132730549)
 data distribution                              : optimal for this architecture
 optimization strategy                          : maximize speed(+++)

 *********************** Exchange-Correlation Parameters ***********************
  
 using functional                               : Perdew Burke Ernzerhof
 relativistic treatment                         : Koelling-Harmon
 DFT+D: Semi-empirical dispersion correction    : off

 ************************* Pseudopotential Parameters **************************
  
 pseudopotential representation                 : reciprocal space
 <beta|phi> representation                      : reciprocal space
 spin-orbit coupling                            : off

 **************************** Basis Set Parameters *****************************
  
 plane wave basis set cut-off                   :  1200.0000   eV
 size of standard grid                          :     2.0000
 size of   fine   gmax                          :    35.4943   1/A
 finite basis set correction                    : automatic
 number of sample energies                      :          3
           sample  spacing                      :     5.0000   eV

 **************************** Electronic Parameters ****************************
  
 number of  electrons                           :  24.00    
 net charge of system                           :  0.000    
 treating system as non-spin-polarized
 number of bands                                :         12

 ********************* Electronic Minimization Parameters **********************
  
 Method: Treating system as non-metallic,
         and number of  SD  steps               :          1
         and number of  CG  steps               :          4
  
 total energy / atom convergence tol.           : 0.1000E-10   eV
 eigen-energy convergence tolerance             : 0.2000E-10   eV
 max force / atom convergence tol.              : ignored
 convergence tolerance window                   :          3   cycles
 max. number of SCF cycles                      :        100
 periodic dipole correction                     : NONE

 ************************** Density Mixing Parameters **************************
  
 density-mixing scheme                          : Broyden
 max. length of mixing history                  :         20
 charge density mixing amplitude                : 0.8000    
 cut-off energy for mixing                      :  1200.       eV

 *********************** Population Analysis Parameters ************************
  
 Population analysis with cutoff                :  3.000       A
 Population analysis output                     : summary and pdos components

 ****************************** Phonon Parameters ******************************
  
 phonon calculation method                      : linear response
 phonon convergence tolerance                   : 0.1000E-04   eV/A**2
 max. number of phonon cycles                   :         50
 max. number of phonon CG steps                 :          0
 convergence tolerance window                   :          2   cycles
 DFPT solver method                             : AllBands (Gonze variational method)
 preconditioning scheme                         : TPA     
 fine phonon calculation method                 : interpolation
 non-periodic force constant method             : Weighted cumulant sum
 LO/TO splitting term                           : included
 acoustic phonon sum rule                       : correct D(q) in recip-space
 Born effective charges                         : calculated
 Born charge sum rule                           : explicitly enforced
 Raman intensities                              : calculated
 Raman frequency window start                   :  0.000       eV
 Raman frequency window stop                    :  1.000       eV
 Raman tensor calculated using                  : finite displacement method
 phonon k-points                                : use reduced set
 phonon DOS                                     : not calculated
 backups results every                          :      14400   seconds
 band convergence tolerance                     : 0.1000E-08   eV

 *******************************************************************************
  

                           -------------------------------
                                      Unit Cell
                           -------------------------------
        Real Lattice(A)                      Reciprocal Lattice(1/A)
     3.0731854     0.0000000     0.0000000        2.044518777  -0.000000000   0.000000000
     0.0000000     9.2195063     0.0000000       -0.000000000   0.681509951   0.000000000
     0.0000000     0.0000000     3.0869463        0.000000000   0.000000000   2.035404785

                       Lattice parameters(A)       Cell Angles
                    a =      3.073185          alpha =   90.000000
                    b =      9.219506          beta  =   90.000000
                    c =      3.086946          gamma =   90.000000

                       Current cell volume =            87.463229       A**3
                                   density =             0.276580   AMU/A**3
                                           =             0.459272     g/cm^3

                           -------------------------------
                                     Cell Contents
                           -------------------------------
                         Total number of ions in cell =   24
                      Total number of species in cell =    1
                        Max number of any one species =   24

            xxxxxxxxxxxxxxxxxxxxxxxxxxxxxxxxxxxxxxxxxxxxxxxxxxxxxxxxxxxx
            x  Element    Atom        Fractional coordinates of atoms  x
            x            Number           u          v          w      x
            x----------------------------------------------------------x
            x  H            1        -0.000000   0.000000   0.119518   x 
            x  H            2        -0.000000   0.166667   0.380482   x 
            x  H            3         0.000000   0.333333   0.119518   x 
            x  H            4         0.500000   0.333333   0.380482   x 
            x  H            5         0.500000   0.166667   0.119518   x 
            x  H            6         0.500000   0.000000   0.380482   x 
            x  H            7         0.500000   0.166667   0.880482   x 
            x  H            8         0.500000   0.333333   0.619518   x 
            x  H            9         0.500000   0.500000   0.880482   x 
            x  H           10         0.500000   0.666667   0.619518   x 
            x  H           11         0.500000   0.833333   0.880482   x 
            x  H           12         0.500000   1.000000   0.619518   x 
            x  H           13         0.500000   0.833333   0.119518   x 
            x  H           14         0.500000   0.666667   0.380482   x 
            x  H           15         0.500000   0.500000   0.119518   x 
            x  H           16        -0.000000   0.833333   0.380482   x 
            x  H           17        -0.000000   0.666667   0.119518   x 
            x  H           18        -0.000000   0.500000   0.380482   x 
            x  H           19        -0.000000   0.666667   0.880482   x 
            x  H           20         0.000000   0.833333   0.619518   x 
            x  H           21         0.000000   1.000000   0.880482   x 
            x  H           22         0.000000   0.166667   0.619518   x 
            x  H           23        -0.000000   0.333333   0.880482   x 
            x  H           24         0.000000   0.500000   0.619518   x 
            xxxxxxxxxxxxxxxxxxxxxxxxxxxxxxxxxxxxxxxxxxxxxxxxxxxxxxxxxxxx


                         No user defined ionic velocities

                           -------------------------------
                                   Details of Species
                           -------------------------------

                               Mass of species in AMU
                                    H    1.0078250

                          Electric Quadrupole Moment (Barn)
                                    H    0.0028600 Isotope  2

                          Files used for pseudopotentials:
                                    H 0|0.7|2|6|8|10L(qc=10)

                           -------------------------------
                              k-Points For BZ Sampling
                           -------------------------------
                       MP grid size for SCF calculation is 10 10 10
                            with an offset of   0.000  0.000  0.000
                       Number of kpoints used =           125

                           -------------------------------
                               Symmetry and Constraints
                           -------------------------------

                      Cell is a supercell containing 12 primitive cells
                      Maximum deviation from symmetry = 0.199596E-13     ANG

                      Number of symmetry operations   =          16
                      Number of ionic constraints     =           3
                      Point group of crystal =     8: D2h, mmm, 2/m 2/m 2/m
                      Space group of crystal =   139: I4/mmm, -I 4 2

             Set iprint > 1 for details on symmetry rotations/translations

                         Centre of mass is constrained
             Set iprint > 1 for details of linear ionic constraints

                         Number of cell constraints= 3
                         Cell constraints are:  1 2 3 0 0 0

                         External pressure/stress (GPa)
                         30.00000   0.00000   0.00000
                                   30.00000   0.00000
                                             30.00000
  
+---------------- MEMORY AND SCRATCH DISK ESTIMATES PER PROCESS --------------+
|                                                     Memory          Disk    |
| Baseline code, static data and system overhead      383.0 MB         0.0 MB |
| BLAS internal memory storage                          0.0 MB         0.0 MB |
| Model and support data                               87.9 MB         0.0 MB |
| Electronic energy minimisation requirements          54.2 MB         0.0 MB |
| Force calculation requirements                        2.9 MB         0.0 MB |
| Stress calculation requirements                       3.5 MB         0.0 MB |
|                                               ----------------------------- |
| Approx. total storage required per process          525.1 MB         0.0 MB |
|                                                                             |
| Requirements will fluctuate during execution and may exceed these estimates |
+-----------------------------------------------------------------------------+
Calculating finite basis set correction with  3 cut-off energies.
Calculating total energy with cut-off of 1190.000 eV.
------------------------------------------------------------------------ <-- SCF
SCF loop      Energy                           Energy gain       Timer   <-- SCF
                                               per atom          (sec)   <-- SCF
------------------------------------------------------------------------ <-- SCF
Initial   6.39313681E+002                                          4.24  <-- SCF
      1  -2.94858329E+002                    3.89238337E+001      23.11  <-- SCF
      2  -3.75701521E+002                    3.36846635E+000      36.04  <-- SCF
      3  -3.77167854E+002                    6.10972137E-002      47.63  <-- SCF
      4  -3.74146853E+002                   -1.25875034E-001      64.98  <-- SCF
      5  -3.74066690E+002                   -3.34014868E-003      82.86  <-- SCF
      6  -3.74073360E+002                    2.77939787E-004     101.16  <-- SCF
      7  -3.74074250E+002                    3.70657438E-005     119.09  <-- SCF
      8  -3.74074254E+002                    1.64157078E-007     136.71  <-- SCF
      9  -3.74074254E+002                    1.77883807E-008     154.90  <-- SCF
     10  -3.74074254E+002                   -3.61279778E-011     167.30  <-- SCF
     11  -3.74074254E+002                    1.00198846E-011     180.00  <-- SCF
     12  -3.74074254E+002                    6.28382712E-013     192.50  <-- SCF
     13  -3.74074254E+002                   -3.82668959E-014     204.73  <-- SCF
------------------------------------------------------------------------ <-- SCF
 
Final energy =  -374.0742542907     eV
(energy not corrected for finite basis set)
 
Calculating total energy with cut-off of 1195.000 eV.
------------------------------------------------------------------------ <-- SCF
SCF loop      Energy                           Energy gain       Timer   <-- SCF
                                               per atom          (sec)   <-- SCF
------------------------------------------------------------------------ <-- SCF
Initial  -3.74074254E+002                                        210.06  <-- SCF
      1  -3.74075852E+002                    6.65772210E-005     225.77  <-- SCF
      2  -3.74075852E+002                    4.75516533E-011     242.27  <-- SCF
      3  -3.74075853E+002                    3.57537578E-008     260.73  <-- SCF
      4  -3.74075853E+002                    2.81022215E-009     279.22  <-- SCF
      5  -3.74075853E+002                    5.12816686E-011     292.08  <-- SCF
      6  -3.74075853E+002                    2.32823851E-012     304.99  <-- SCF
      7  -3.74075853E+002                    8.86180747E-014     317.41  <-- SCF
------------------------------------------------------------------------ <-- SCF
 
Final energy =  -374.0758530720     eV
(energy not corrected for finite basis set)
 
Calculating total energy with cut-off of 1200.000 eV.
------------------------------------------------------------------------ <-- SCF
SCF loop      Energy                           Energy gain       Timer   <-- SCF
                                               per atom          (sec)   <-- SCF
------------------------------------------------------------------------ <-- SCF
Initial  -3.74075853E+002                                        322.59  <-- SCF
      1  -3.74077414E+002                    6.50361893E-005     338.44  <-- SCF
      2  -3.74077414E+002                    4.58135306E-011     354.86  <-- SCF
      3  -3.74077415E+002                    3.52075281E-008     373.51  <-- SCF
      4  -3.74077415E+002                    2.72610547E-009     391.89  <-- SCF
      5  -3.74077415E+002                    4.95475740E-011     404.05  <-- SCF
      6  -3.74077415E+002                    2.36650540E-012     416.80  <-- SCF
      7  -3.74077415E+002                   -3.62528488E-014     429.80  <-- SCF
------------------------------------------------------------------------ <-- SCF
 
Final energy =  -374.0774148533     eV
(energy not corrected for finite basis set)
 
 For future reference: finite basis dEtot/dlog(Ecut) =      -0.378293eV
 Total energy corrected for finite basis set =    -374.077411 eV

 Efield perturbation    1:  X                                           456.91s
  +---------------- MEMORY AND SCRATCH DISK ESTIMATES PER PROCESS --------------+
  |                                                     Memory          Disk    |
  | Baseline code, static data and system overhead      383.0 MB         0.0 MB |
  | BLAS internal memory storage                          0.0 MB         0.0 MB |
  | Model and support data                               88.2 MB         0.0 MB |
  | DFPT E-field response requirements                  171.3 MB         0.0 MB |
  |                                               ----------------------------- |
  | Approx. total storage required per process          642.5 MB         0.0 MB |
  |                                                                             |
  | Requirements will fluctuate during execution and may exceed these estimates |
  +-----------------------------------------------------------------------------+

 Efield perturbation    2:  Y                                           711.52s

 Efield perturbation    3:  Z                                           973.79s
 Perturbation    1 (of    9): H     1 X at q=( 0.000, 0.000, 0.000):   1257.10s
  Parallel strategy changed for perturbation using 500 k-points
  Data is distributed by G-vector(1-way) and k-point(8-way) and band(1-way)
  +---------------- MEMORY AND SCRATCH DISK ESTIMATES PER PROCESS --------------+
  |                                                     Memory          Disk    |
  | Baseline code, static data and system overhead      383.0 MB         0.0 MB |
  | BLAS internal memory storage                          0.0 MB         0.0 MB |
  | Model and support data                               88.2 MB         0.0 MB |
  | DFPT phonon calculation requirements                972.7 MB         0.0 MB |
  |                                               ----------------------------- |
  | Approx. total storage required per process         1443.9 MB         0.0 MB |
  |                                                                             |
  | Requirements will fluctuate during execution and may exceed these estimates |
  +-----------------------------------------------------------------------------+
 Perturbation    2 (of    9): H     2 X at q=( 0.000, 0.000, 0.000):   2002.48s
 Perturbation    3 (of    9): H     3 X at q=( 0.000, 0.000, 0.000):   2671.80s
 Perturbation    4 (of    9): H     1 Y at q=( 0.000, 0.000, 0.000):   3352.92s
  Parallel strategy changed for perturbation using 250 k-points
  Data is distributed by G-vector(1-way) and k-point(8-way) and band(1-way)
 Perturbation    5 (of    9): H     2 Y at q=( 0.000, 0.000, 0.000):   3733.27s
 Perturbation    6 (of    9): H     3 Y at q=( 0.000, 0.000, 0.000):   4089.84s
 Perturbation    7 (of    9): H     1 Z at q=( 0.000, 0.000, 0.000):   4441.76s
 Perturbation    8 (of    9): H     2 Z at q=( 0.000, 0.000, 0.000):   4827.94s
 Perturbation    9 (of    9): H     3 Z at q=( 0.000, 0.000, 0.000):   5211.05s

 Phonon calculation: q-point   1 (of    1) ( 0.000, 0.000, 0.000):     5601.43s
 -------------------------------------------------------------------------------
 
 ==============================================================================
 +                           Vibrational Frequencies                          +
 +                           -----------------------                          +
 +                                                                            +
 + Performing frequency calculation at  1 wavevector  (q-pt )                 +
 + ========================================================================== +
 +                                                                            +
 +============================================================================+
 +                       Raman Intensity Progress Report                      +
 +----------------------------------------------------------------------------+
 + RAMAN: Not a continuation; generating Raman intensities from beginning     +
 +----------------------------------------------------------------------------+
 + Mode     1: not Raman active; calculation not required                     +
 + Mode     2: not Raman active; calculation not required                     +
 + Mode     3: not Raman active; calculation not required                     +
 + Mode     4: not Raman active; calculation not required                     +
 + Mode     5: not Raman active; calculation not required                     +
 + Mode     6: not Raman active; calculation not required                     +
 + Mode     7: frequency out of range; calculation not required               +
 + Mode     8: frequency out of range; calculation not required               +
 + Mode     9: frequency out of range; calculation not required               +
 + Mode    10: not Raman active; calculation not required                     +
 + Mode    11: not Raman active; calculation not required                     +
 + Mode    12: not Raman active; calculation not required                     +
 + Mode    13: not Raman active; calculation not required                     +
 + Mode    14: not Raman active; calculation not required                     +
 + Mode    15: not Raman active; calculation not required                     +
 + Mode    16: not Raman active; calculation not required                     +
 + Mode    17: not Raman active; calculation not required                     +
 + Mode    18: performing Raman intensity calculation                         +

 Efield perturbation    1:  X                                          6003.28s

 Efield perturbation    2:  Y                                          6407.58s

 Efield perturbation    3:  Z                                          6897.55s

 Efield perturbation    1:  X                                          7548.94s

 Efield perturbation    2:  Y                                          7949.06s

 Efield perturbation    3:  Z                                          8434.64s
 + Mode number:  18 completed;                   time taken:  3150.10 seconds +
 + Mode    19: performing Raman intensity calculation                         +

 Efield perturbation    1:  X                                          9164.53s

 Efield perturbation    2:  Y                                          9797.97s

 Efield perturbation    3:  Z                                         10123.53s

 Efield perturbation    1:  X                                         10817.05s

 Efield perturbation    2:  Y                                         11432.67s

 Efield perturbation    3:  Z                                         11757.64s
 + Mode number:  19 completed;                   time taken:  3319.66 seconds +
 + Mode    20: not Raman active; calculation not required                     +
 + Mode    21: not Raman active; calculation not required                     +
 + Mode    22: not Raman active; calculation not required                     +
 + Mode    23: not Raman active; calculation not required                     +
 + Mode    24: not Raman active; calculation not required                     +
 + Mode    25: not Raman active; calculation not required                     +
 + Mode    26: performing Raman intensity calculation                         +

 Efield perturbation    1:  X                                         12348.25s

 Efield perturbation    2:  Y                                         12618.98s

 Efield perturbation    3:  Z                                         12877.34s

 Efield perturbation    1:  X                                         13362.31s

 Efield perturbation    2:  Y                                         13624.46s

 Efield perturbation    3:  Z                                         13885.56s
 + Mode number:  26 completed;                   time taken:  2058.15 seconds +
 + Mode    27: not Raman active; calculation not required                     +
 + Mode    28: not Raman active; calculation not required                     +
 + Mode    29: not Raman active; calculation not required                     +
 + Mode    30: performing Raman intensity calculation                         +

 Efield perturbation    1:  X                                         14529.82s

 Efield perturbation    2:  Y                                         15172.81s

 Efield perturbation    3:  Z                                         15484.30s

 Efield perturbation    1:  X                                         16147.11s

 Efield perturbation    2:  Y                                         16772.86s

 Efield perturbation    3:  Z                                         17074.45s
 + Mode number:  30 completed;                   time taken:  3247.68 seconds +
 + Mode    31: not Raman active; calculation not required                     +
 + Mode    32: performing Raman intensity calculation                         +

 Efield perturbation    1:  X                                         17774.13s

 Efield perturbation    2:  Y                                         18185.50s

 Efield perturbation    3:  Z                                         18687.47s

 Efield perturbation    1:  X                                         19338.17s

 Efield perturbation    2:  Y                                         19752.64s

 Efield perturbation    3:  Z                                         20259.61s
 + Mode number:  32 completed;                   time taken:  3182.78 seconds +
 + Checkpointing.....                                                         +

Writing analysis data to Cmca-12.castep_bin

Writing model to Cmca-12.check
 + Mode    33: not Raman active; calculation not required                     +
 + Mode    34: not Raman active; calculation not required                     +
 + Mode    35: not Raman active; calculation not required                     +
 + Mode    36: not Raman active; calculation not required                     +
 + Mode    37: performing Raman intensity calculation                         +

 Efield perturbation    1:  X                                         20954.02s

 Efield perturbation    2:  Y                                         21562.13s

 Efield perturbation    3:  Z                                         21862.58s

 Efield perturbation    1:  X                                         22514.94s

 Efield perturbation    2:  Y                                         23121.75s

 Efield perturbation    3:  Z                                         23420.23s
 + Mode number:  37 completed;                   time taken:  3153.66 seconds +
 + Mode    38: not Raman active; calculation not required                     +
 + Mode    39: not Raman active; calculation not required                     +
 + Mode    40: not Raman active; calculation not required                     +
 + Mode    41: not Raman active; calculation not required                     +
 + Mode    42: not Raman active; calculation not required                     +
 + Mode    43: performing Raman intensity calculation                         +

 Efield perturbation    1:  X                                         24110.77s

 Efield perturbation    2:  Y                                         24530.79s

 Efield perturbation    3:  Z                                         25050.23s

 Efield perturbation    1:  X                                         25721.57s

 Efield perturbation    2:  Y                                         26139.44s

 Efield perturbation    3:  Z                                         26662.12s
 + Mode number:  43 completed;                   time taken:  3243.96 seconds +
 + Mode    44: not Raman active; calculation not required                     +
 + Mode    45: not Raman active; calculation not required                     +
 + Mode    46: performing Raman intensity calculation                         +

 Efield perturbation    1:  X                                         27230.53s

 Efield perturbation    2:  Y                                         27481.43s

 Efield perturbation    3:  Z                                         27729.62s

 Efield perturbation    1:  X                                         28183.12s

 Efield perturbation    2:  Y                                         28435.35s

 Efield perturbation    3:  Z                                         28691.74s
 + Mode number:  46 completed;                   time taken:  1974.89 seconds +
 + Mode    47: not Raman active; calculation not required                     +
 + Mode    48: not Raman active; calculation not required                     +
 + Mode    49: not Raman active; calculation not required                     +
 + Mode    50: not Raman active; calculation not required                     +
 + Mode    51: not Raman active; calculation not required                     +
 + Mode    52: not Raman active; calculation not required                     +
 + Mode    53: not Raman active; calculation not required                     +
 + Mode    54: not Raman active; calculation not required                     +
 + Mode    55: not Raman active; calculation not required                     +
 + Mode    56: performing Raman intensity calculation                         +

 Efield perturbation    1:  X                                         29201.35s

 Efield perturbation    2:  Y                                         29441.04s

 Efield perturbation    3:  Z                                         29679.81s

 Efield perturbation    1:  X                                         30123.52s

 Efield perturbation    2:  Y                                         30363.80s

 Efield perturbation    3:  Z                                         30613.01s
 + Mode number:  56 completed;                   time taken:  1914.12 seconds +
 + Mode    57: not Raman active; calculation not required                     +
 + Mode    58: performing Raman intensity calculation                         +

 Efield perturbation    1:  X                                         31241.02s

 Efield perturbation    2:  Y                                         31892.11s

 Efield perturbation    3:  Z                                         32209.25s

 Efield perturbation    1:  X                                         32901.16s

 Efield perturbation    2:  Y                                         33525.34s

 Efield perturbation    3:  Z                                         33821.69s
 + Mode number:  58 completed;                   time taken:  3258.73 seconds +
 + Mode    59: not Raman active; calculation not required                     +
 + Mode    60: not Raman active; calculation not required                     +
 + Mode    61: performing Raman intensity calculation                         +

 Efield perturbation    1:  X                                         34364.28s

 Efield perturbation    2:  Y                                         34599.91s

 Efield perturbation    3:  Z                                         34832.94s

 Efield perturbation    1:  X                                         35269.89s

 Efield perturbation    2:  Y                                         35495.56s

 Efield perturbation    3:  Z                                         35729.87s
 + Mode number:  61 completed;                   time taken:  1796.96 seconds +
 + Checkpointing.....                                                         +

Writing analysis data to Cmca-12.castep_bin

Writing model to Cmca-12.check
 + Mode    62: not Raman active; calculation not required                     +
 + Mode    63: not Raman active; calculation not required                     +
 + Mode    64: not Raman active; calculation not required                     +
 + Mode    65: performing Raman intensity calculation                         +

 Efield perturbation    1:  X                                         36138.13s

 Efield perturbation    2:  Y                                         36368.30s

 Efield perturbation    3:  Z                                         36601.11s

 Efield perturbation    1:  X                                         37076.86s

 Efield perturbation    2:  Y                                         37320.70s

 Efield perturbation    3:  Z                                         37564.36s
 + Mode number:  65 completed;                   time taken:  1851.33 seconds +
 + Mode    66: not Raman active; calculation not required                     +
 + Mode    67: not Raman active; calculation not required                     +
 + Mode    68: not Raman active; calculation not required                     +
 + Mode    69: performing Raman intensity calculation                         +

 Efield perturbation    1:  X                                         38083.55s

 Efield perturbation    2:  Y                                         38407.71s

 Efield perturbation    3:  Z                                         38809.99s

 Efield perturbation    1:  X                                         39289.75s

 Efield perturbation    2:  Y                                         39619.25s

 Efield perturbation    3:  Z                                         40045.37s
 + Mode number:  69 completed;                   time taken:  2502.95 seconds +
 + Mode    70: not Raman active; calculation not required                     +
 + Mode    71: not Raman active; calculation not required                     +
 + Mode    72: performing Raman intensity calculation                         +

 Efield perturbation    1:  X                                         40564.79s

 Efield perturbation    2:  Y                                         40858.65s

 Efield perturbation    3:  Z                                         41218.36s

 Efield perturbation    1:  X                                         41677.93s

 Efield perturbation    2:  Y                                         41967.53s

 Efield perturbation    3:  Z                                         42323.20s
 + Mode number:  72 completed;                   time taken:  2260.53 seconds +
 +----------------------------------------------------------------------------+
 +   E N D    O F    R A M A N    I N T E N S I T Y    C A L C U L A T I O N  +
 +         Raman intensity calculation completed in   36921.87 seconds        +
 +============================================================================+
 + -------------------------------------------------------------------------- +
 +  q-pt=    1 (  0.000000  0.000000  0.000000)     1.0000000000              +
 + -------------------------------------------------------------------------- +
 +  Acoustic sum rule correction <   5.859159 cm-1 applied                    +
 +     N      Frequency irrep.    ir intensity active  raman activity  active + 
 +                (cm-1)         ((D/A)**2/amu)              (A**4/amu)       + 
 +                                                                            +
 +     1    -359.364520   a          0.0000000  N            0.0000000  N     + 
 +     2    -359.301748   b          0.0000000  N            0.0000000  N     + 
 +     3    -351.573959   c          0.0000000  N            0.0000000  Y     + 
 +     4    -351.573869   d          0.0000000  Y            0.0000000  N     + 
 +     5    -337.997797   b          0.0000000  N            0.0000000  N     + 
 +     6    -337.997615   e          0.0000000  N            0.0000000  N     + 
 +     7    -332.310406   f          0.0000000  N            0.0000000  Y     + 
 +     8    -332.230401   c          0.0000000  N            0.0000000  Y     + 
 +     9    -230.960585   g          0.0000000  N            0.0000000  Y     + 
 +    10    -230.960302   h          0.0000000  Y            0.0000000  N     + 
 +    11      -0.172531   i          0.0000000  N            0.0000000  N     + 
 +    12      -0.140871   d          0.0000000  N            0.0000000  N     + 
 +    13      -0.099611   h          0.0000000  N            0.0000000  N     + 
 +    14      42.271151   j          0.0000000  N            0.0000000  N     + 
 +    15      42.272872   k          0.0000000  N            0.0000000  N     + 
 +    16     288.387016   a          0.0000000  N            0.0000000  N     + 
 +    17     288.387132   l          0.0000000  N            0.0000000  N     + 
 +    18     386.076147   g          0.0000000  N         1382.8057086  Y     + 
 +    19     386.106499   m          0.0000000  N         1382.7686676  Y     + 
 +    20     386.162924   b          0.0000000  N            0.0000000  N     + 
 +    21     386.162970   e          0.0000000  N            0.0000000  N     + 
 +    22     390.624007   l          0.0000000  N            0.0000000  N     + 
 +    23     390.624030   a          0.0000000  N            0.0000000  N     + 
 +    24     451.983041   n          0.0000000  N            0.0000000  N     + 
 +    25     451.983149   o          0.0000000  N            0.0000000  N     + 
 +    26     478.298910   f          0.0000000  N            0.0000000  Y     + 
 +    27     478.299046   i          0.0000000  Y            0.0000000  N     + 
 +    28     538.844944   k          0.0000000  N            0.0000000  N     + 
 +    29     538.845712   j          0.0000000  N            0.0000000  N     + 
 +    30     566.069808   m          0.0000000  N            0.0000226  Y     + 
 +    31     566.069890   p          0.0000000  N            0.0000000  N     + 
 +    32     613.404253   g          0.0000000  N            0.0000002  Y     + 
 +    33     613.404255   h          0.0000000  Y            0.0000000  N     + 
 +    34     616.913049   j          0.0000000  N            0.0000000  N     + 
 +    35     616.920419   n          0.0000000  N            0.0000000  N     + 
 +    36     621.425434   d          0.0000000  Y            0.0000000  N     + 
 +    37     621.425483   c          0.0000000  N            0.0000000  Y     + 
 +    38     682.838518   k          0.0000000  N            0.0000000  N     + 
 +    39     682.847089   l          0.0000000  N            0.0000000  N     + 
 +    40     696.248306   e          0.0000000  N            0.0000000  N     + 
 +    41     696.259751   l          0.0000000  N            0.0000000  N     + 
 +    42     700.624041   h          0.0000000  Y            0.0000000  N     + 
 +    43     700.624105   g          0.0000000  N            0.0000000  Y     + 
 +    44     735.080043   a          0.0000000  N            0.0000000  N     + 
 +    45     735.080048   l          0.0000000  N            0.0000000  N     + 
 +    46     737.189921   f          0.0000000  N            0.0000000  Y     + 
 +    47     737.189987   i          0.0000000  Y            0.0000000  N     + 
 +    48     772.219769   h          0.0000000  Y            0.0000000  N     + 
 +    49     772.419840   p          0.0000000  N            0.0000000  N     + 
 +    50     807.546325   k          0.0000000  N            0.0000000  N     + 
 +    51     807.546367   j          0.0000000  N            0.0000000  N     + 
 +    52     831.008162   n          0.0000000  N            0.0000000  N     + 
 +    53     831.008195   o          0.0000000  N            0.0000000  N     + 
 +    54     849.454023   i          0.0000000  Y            0.0000000  N     + 
 +    55     895.848956   i          0.0000000  Y            0.0000000  N     + 
 +    56     895.848959   f          0.0000000  N            0.0000009  Y     + 
 +    57     954.111654   p          0.0000000  N            0.0000000  N     + 
 +    58     954.111689   m          0.0000000  N            0.0000000  Y     + 
 +    59    1020.163474   k          0.0000000  N            0.0000000  N     + 
 +    60    1020.679504   o          0.0000000  N            0.0000000  N     + 
 +    61    4314.332250   f          0.0000000  N        25389.7185958  Y     + 
 +    62    4344.358021   k          0.0000000  N            0.0000000  N     + 
 +    63    4344.358084   j          0.0000000  N            0.0000000  N     + 
 +    64    4399.664498   i          0.0000000  Y            0.0000000  N     + 
 +    65    4399.664540   f          0.0000000  N            0.0000273  Y     + 
 +    66    4425.376506   a          0.0000000  N            0.0000000  N     + 
 +    67    4425.378802   j          0.0000000  N            0.0000000  N     + 
 +    68    4451.098452   h          0.0000000  Y            0.0000000  N     + 
 +    69    4451.098494   g          0.0000000  N            0.0000000  Y     + 
 +    70    4508.388206   l          0.0000000  N            0.0000000  N     + 
 +    71    4508.388254   a          0.0000000  N            0.0000000  N     + 
 +    72    4539.647599   g          0.0000000  N            0.0000000  Y     + 
 + .......................................................................... +
 +        Character table from group theory analysis of eigenvectors          +
 +                           Point Group =   8, D2h                           +
 + .......................................................................... +
 +  Rep  Mul |    E   I   2   m   2   m   2   m                               +
 +           | --------------------------------                               +
 + a B2g   6 |    1   1  -1  -1   1   1  -1  -1                               +
 + b B1g   3 |    1   1   1   1  -1  -1  -1  -1                               +
 + c B1g   3 |    1   1   1   1  -1  -1  -1  -1                               +
 + d B2u   3 |    1  -1  -1   1   1  -1  -1   1                               +
 + e B2u   3 |    1  -1  -1   1   1  -1  -1   1                               +
 + f Ag    6 |    1   1   1   1   1   1   1   1                               +
 + g B2g   6 |    1   1  -1  -1   1   1  -1  -1                               +
 + h B1u   6 |    1  -1   1  -1  -1   1  -1   1                               +
 + i B3u   6 |    1  -1  -1   1  -1   1   1  -1                               +
 + j Ag    6 |    1   1   1   1   1   1   1   1                               +
 + k B3u   6 |    1  -1  -1   1  -1   1   1  -1                               +
 + l B1u   6 |    1  -1   1  -1  -1   1  -1   1                               +
 + m B3g   3 |    1   1  -1  -1  -1  -1   1   1                               +
 + n B3g   3 |    1   1  -1  -1  -1  -1   1   1                               +
 + o Au    3 |    1  -1   1  -1   1  -1   1  -1                               +
 + p Au    3 |    1  -1   1  -1   1  -1   1  -1                               +
 ==============================================================================
 ===================================================
                   Born Effective Charges
                   ----------------------
   H       1        -0.00000     0.00000     0.00000
                     0.00000    -0.00000     0.00000
                     0.00000     0.00000    -0.00000
   H       2         0.00000     0.00000     0.00000
                     0.00000     0.00000    -0.00000
                     0.00000    -0.00000     0.00000
   H       3         0.00000     0.00000     0.00000
                     0.00000     0.00000     0.00000
                     0.00000     0.00000    -0.00000
   H       4         0.00000     0.00000     0.00000
                     0.00000     0.00000    -0.00000
                     0.00000    -0.00000    -0.00000
   H       5         0.00000     0.00000     0.00000
                     0.00000     0.00000     0.00000
                     0.00000     0.00000     0.00000
   H       6        -0.00000     0.00000     0.00000
                     0.00000    -0.00000    -0.00000
                     0.00000    -0.00000    -0.00000
   H       7         0.00000     0.00000     0.00000
                     0.00000     0.00000     0.00000
                     0.00000     0.00000    -0.00000
   H       8         0.00000     0.00000     0.00000
                     0.00000     0.00000    -0.00000
                     0.00000    -0.00000     0.00000
   H       9        -0.00000     0.00000     0.00000
                     0.00000    -0.00000     0.00000
                     0.00000     0.00000    -0.00000
   H      10         0.00000     0.00000     0.00000
                     0.00000     0.00000    -0.00000
                     0.00000    -0.00000    -0.00000
   H      11         0.00000     0.00000     0.00000
                     0.00000     0.00000     0.00000
                     0.00000     0.00000     0.00000
   H      12        -0.00000     0.00000     0.00000
                     0.00000    -0.00000    -0.00000
                     0.00000    -0.00000    -0.00000
   H      13         0.00000     0.00000     0.00000
                     0.00000     0.00000     0.00000
                     0.00000     0.00000    -0.00000
   H      14         0.00000     0.00000     0.00000
                     0.00000     0.00000    -0.00000
                     0.00000    -0.00000     0.00000
   H      15        -0.00000     0.00000     0.00000
                     0.00000    -0.00000     0.00000
                     0.00000     0.00000    -0.00000
   H      16         0.00000     0.00000     0.00000
                     0.00000     0.00000    -0.00000
                     0.00000    -0.00000    -0.00000
   H      17         0.00000     0.00000     0.00000
                     0.00000     0.00000     0.00000
                     0.00000     0.00000     0.00000
   H      18        -0.00000     0.00000     0.00000
                     0.00000    -0.00000    -0.00000
                     0.00000    -0.00000    -0.00000
   H      19         0.00000     0.00000     0.00000
                     0.00000     0.00000     0.00000
                     0.00000     0.00000    -0.00000
   H      20         0.00000     0.00000     0.00000
                     0.00000     0.00000    -0.00000
                     0.00000    -0.00000     0.00000
   H      21        -0.00000     0.00000     0.00000
                     0.00000    -0.00000     0.00000
                     0.00000     0.00000    -0.00000
   H      22         0.00000     0.00000     0.00000
                     0.00000     0.00000    -0.00000
                     0.00000    -0.00000    -0.00000
   H      23         0.00000     0.00000     0.00000
                     0.00000     0.00000     0.00000
                     0.00000     0.00000     0.00000
   H      24        -0.00000     0.00000     0.00000
                     0.00000    -0.00000    -0.00000
                     0.00000    -0.00000    -0.00000
 ===================================================
  
 ==============================================================================
 +                      Raman Susceptibility Tensors ((A/amu)*0.5)            +
 +----------------------------------------------------------------------------+
 + Mode number:   1 Raman tensor       Depolarisation Ratio                   +
 +     0.0000    0.0000    0.0000      0.000000                               +
 +     0.0000    0.0000    0.0000                                             +
 +     0.0000    0.0000    0.0000                                             +
 +                                                                            +
 + Mode number:   2 Raman tensor       Depolarisation Ratio                   +
 +     0.0000    0.0000    0.0000      0.000000                               +
 +     0.0000    0.0000    0.0000                                             +
 +     0.0000    0.0000    0.0000                                             +
 +                                                                            +
 + Mode number:   3 Raman tensor       Depolarisation Ratio                   +
 +     0.0000    0.0000    0.0000      0.000000                               +
 +     0.0000    0.0000    0.0000                                             +
 +     0.0000    0.0000    0.0000                                             +
 +                                                                            +
 + Mode number:   4 Raman tensor       Depolarisation Ratio                   +
 +     0.0000    0.0000    0.0000      0.000000                               +
 +     0.0000    0.0000    0.0000                                             +
 +     0.0000    0.0000    0.0000                                             +
 +                                                                            +
 + Mode number:   5 Raman tensor       Depolarisation Ratio                   +
 +     0.0000    0.0000    0.0000      0.000000                               +
 +     0.0000    0.0000    0.0000                                             +
 +     0.0000    0.0000    0.0000                                             +
 +                                                                            +
 + Mode number:   6 Raman tensor       Depolarisation Ratio                   +
 +     0.0000    0.0000    0.0000      0.000000                               +
 +     0.0000    0.0000    0.0000                                             +
 +     0.0000    0.0000    0.0000                                             +
 +                                                                            +
 + Mode number:   7 is outside of the requested Raman frequency range         +
 +                                                                            +
 + Mode number:   8 is outside of the requested Raman frequency range         +
 +                                                                            +
 + Mode number:   9 is outside of the requested Raman frequency range         +
 +                                                                            +
 + Mode number:  10 Raman tensor       Depolarisation Ratio                   +
 +     0.0000    0.0000    0.0000      0.000000                               +
 +     0.0000    0.0000    0.0000                                             +
 +     0.0000    0.0000    0.0000                                             +
 +                                                                            +
 + Mode number:  11 Raman tensor       Depolarisation Ratio                   +
 +     0.0000    0.0000    0.0000      0.000000                               +
 +     0.0000    0.0000    0.0000                                             +
 +     0.0000    0.0000    0.0000                                             +
 +                                                                            +
 + Mode number:  12 Raman tensor       Depolarisation Ratio                   +
 +     0.0000    0.0000    0.0000      0.000000                               +
 +     0.0000    0.0000    0.0000                                             +
 +     0.0000    0.0000    0.0000                                             +
 +                                                                            +
 + Mode number:  13 Raman tensor       Depolarisation Ratio                   +
 +     0.0000    0.0000    0.0000      0.000000                               +
 +     0.0000    0.0000    0.0000                                             +
 +     0.0000    0.0000    0.0000                                             +
 +                                                                            +
 + Mode number:  14 Raman tensor       Depolarisation Ratio                   +
 +     0.0000    0.0000    0.0000      0.000000                               +
 +     0.0000    0.0000    0.0000                                             +
 +     0.0000    0.0000    0.0000                                             +
 +                                                                            +
 + Mode number:  15 Raman tensor       Depolarisation Ratio                   +
 +     0.0000    0.0000    0.0000      0.000000                               +
 +     0.0000    0.0000    0.0000                                             +
 +     0.0000    0.0000    0.0000                                             +
 +                                                                            +
 + Mode number:  16 Raman tensor       Depolarisation Ratio                   +
 +     0.0000    0.0000    0.0000      0.000000                               +
 +     0.0000    0.0000    0.0000                                             +
 +     0.0000    0.0000    0.0000                                             +
 +                                                                            +
 + Mode number:  17 Raman tensor       Depolarisation Ratio                   +
 +     0.0000    0.0000    0.0000      0.000000                               +
 +     0.0000    0.0000    0.0000                                             +
 +     0.0000    0.0000    0.0000                                             +
 +                                                                            +
 + Mode number:  18 Raman tensor       Depolarisation Ratio                   +
 +     0.0000    0.0000    0.0000      0.750000                               +
 +     0.0000    0.0000    0.8677                                             +
 +     0.0000    0.8677   -0.0000                                             +
 +                                                                            +
 + Mode number:  19 Raman tensor       Depolarisation Ratio                   +
 +     0.0000    0.0000    0.8677      0.750000                               +
 +     0.0000    0.0000    0.0000                                             +
 +     0.8677    0.0000   -0.0000                                             +
 +                                                                            +
 + Mode number:  20 Raman tensor       Depolarisation Ratio                   +
 +     0.0000    0.0000    0.0000      0.000000                               +
 +     0.0000    0.0000    0.0000                                             +
 +     0.0000    0.0000    0.0000                                             +
 +                                                                            +
 + Mode number:  21 Raman tensor       Depolarisation Ratio                   +
 +     0.0000    0.0000    0.0000      0.000000                               +
 +     0.0000    0.0000    0.0000                                             +
 +     0.0000    0.0000    0.0000                                             +
 +                                                                            +
 + Mode number:  22 Raman tensor       Depolarisation Ratio                   +
 +     0.0000    0.0000    0.0000      0.000000                               +
 +     0.0000    0.0000    0.0000                                             +
 +     0.0000    0.0000    0.0000                                             +
 +                                                                            +
 + Mode number:  23 Raman tensor       Depolarisation Ratio                   +
 +     0.0000    0.0000    0.0000      0.000000                               +
 +     0.0000    0.0000    0.0000                                             +
 +     0.0000    0.0000    0.0000                                             +
 +                                                                            +
 + Mode number:  24 Raman tensor       Depolarisation Ratio                   +
 +     0.0000    0.0000    0.0000      0.000000                               +
 +     0.0000    0.0000    0.0000                                             +
 +     0.0000    0.0000    0.0000                                             +
 +                                                                            +
 + Mode number:  25 Raman tensor       Depolarisation Ratio                   +
 +     0.0000    0.0000    0.0000      0.000000                               +
 +     0.0000    0.0000    0.0000                                             +
 +     0.0000    0.0000    0.0000                                             +
 +                                                                            +
 + Mode number:  26 Raman tensor       Depolarisation Ratio                   +
 +     0.0000    0.0000    0.0000      0.414155                               +
 +     0.0000    0.0000    0.0000                                             +
 +     0.0000    0.0000   -0.0000                                             +
 +                                                                            +
 + Mode number:  27 Raman tensor       Depolarisation Ratio                   +
 +     0.0000    0.0000    0.0000      0.000000                               +
 +     0.0000    0.0000    0.0000                                             +
 +     0.0000    0.0000    0.0000                                             +
 +                                                                            +
 + Mode number:  28 Raman tensor       Depolarisation Ratio                   +
 +     0.0000    0.0000    0.0000      0.000000                               +
 +     0.0000    0.0000    0.0000                                             +
 +     0.0000    0.0000    0.0000                                             +
 +                                                                            +
 + Mode number:  29 Raman tensor       Depolarisation Ratio                   +
 +     0.0000    0.0000    0.0000      0.000000                               +
 +     0.0000    0.0000    0.0000                                             +
 +     0.0000    0.0000    0.0000                                             +
 +                                                                            +
 + Mode number:  30 Raman tensor       Depolarisation Ratio                   +
 +     0.0000    0.0000    0.0001      0.749971                               +
 +     0.0000    0.0000    0.0000                                             +
 +     0.0001    0.0000   -0.0000                                             +
 +                                                                            +
 + Mode number:  31 Raman tensor       Depolarisation Ratio                   +
 +     0.0000    0.0000    0.0000      0.000000                               +
 +     0.0000    0.0000    0.0000                                             +
 +     0.0000    0.0000    0.0000                                             +
 +                                                                            +
 + Mode number:  32 Raman tensor       Depolarisation Ratio                   +
 +     0.0000    0.0000    0.0000      0.747152                               +
 +     0.0000    0.0000    0.0000                                             +
 +     0.0000    0.0000   -0.0000                                             +
 +                                                                            +
 + Mode number:  33 Raman tensor       Depolarisation Ratio                   +
 +     0.0000    0.0000    0.0000      0.000000                               +
 +     0.0000    0.0000    0.0000                                             +
 +     0.0000    0.0000    0.0000                                             +
 +                                                                            +
 + Mode number:  34 Raman tensor       Depolarisation Ratio                   +
 +     0.0000    0.0000    0.0000      0.000000                               +
 +     0.0000    0.0000    0.0000                                             +
 +     0.0000    0.0000    0.0000                                             +
 +                                                                            +
 + Mode number:  35 Raman tensor       Depolarisation Ratio                   +
 +     0.0000    0.0000    0.0000      0.000000                               +
 +     0.0000    0.0000    0.0000                                             +
 +     0.0000    0.0000    0.0000                                             +
 +                                                                            +
 + Mode number:  36 Raman tensor       Depolarisation Ratio                   +
 +     0.0000    0.0000    0.0000      0.000000                               +
 +     0.0000    0.0000    0.0000                                             +
 +     0.0000    0.0000    0.0000                                             +
 +                                                                            +
 + Mode number:  37 Raman tensor       Depolarisation Ratio                   +
 +     0.0000   -0.0000    0.0000      0.737144                               +
 +    -0.0000    0.0000    0.0000                                             +
 +     0.0000    0.0000   -0.0000                                             +
 +                                                                            +
 + Mode number:  38 Raman tensor       Depolarisation Ratio                   +
 +     0.0000    0.0000    0.0000      0.000000                               +
 +     0.0000    0.0000    0.0000                                             +
 +     0.0000    0.0000    0.0000                                             +
 +                                                                            +
 + Mode number:  39 Raman tensor       Depolarisation Ratio                   +
 +     0.0000    0.0000    0.0000      0.000000                               +
 +     0.0000    0.0000    0.0000                                             +
 +     0.0000    0.0000    0.0000                                             +
 +                                                                            +
 + Mode number:  40 Raman tensor       Depolarisation Ratio                   +
 +     0.0000    0.0000    0.0000      0.000000                               +
 +     0.0000    0.0000    0.0000                                             +
 +     0.0000    0.0000    0.0000                                             +
 +                                                                            +
 + Mode number:  41 Raman tensor       Depolarisation Ratio                   +
 +     0.0000    0.0000    0.0000      0.000000                               +
 +     0.0000    0.0000    0.0000                                             +
 +     0.0000    0.0000    0.0000                                             +
 +                                                                            +
 + Mode number:  42 Raman tensor       Depolarisation Ratio                   +
 +     0.0000    0.0000    0.0000      0.000000                               +
 +     0.0000    0.0000    0.0000                                             +
 +     0.0000    0.0000    0.0000                                             +
 +                                                                            +
 + Mode number:  43 Raman tensor       Depolarisation Ratio                   +
 +     0.0000    0.0000    0.0000      0.423321                               +
 +     0.0000    0.0000   -0.0000                                             +
 +     0.0000   -0.0000   -0.0000                                             +
 +                                                                            +
 + Mode number:  44 Raman tensor       Depolarisation Ratio                   +
 +     0.0000    0.0000    0.0000      0.000000                               +
 +     0.0000    0.0000    0.0000                                             +
 +     0.0000    0.0000    0.0000                                             +
 +                                                                            +
 + Mode number:  45 Raman tensor       Depolarisation Ratio                   +
 +     0.0000    0.0000    0.0000      0.000000                               +
 +     0.0000    0.0000    0.0000                                             +
 +     0.0000    0.0000    0.0000                                             +
 +                                                                            +
 + Mode number:  46 Raman tensor       Depolarisation Ratio                   +
 +     0.0000    0.0000    0.0000      0.397622                               +
 +     0.0000    0.0000    0.0000                                             +
 +     0.0000    0.0000   -0.0000                                             +
 +                                                                            +
 + Mode number:  47 Raman tensor       Depolarisation Ratio                   +
 +     0.0000    0.0000    0.0000      0.000000                               +
 +     0.0000    0.0000    0.0000                                             +
 +     0.0000    0.0000    0.0000                                             +
 +                                                                            +
 + Mode number:  48 Raman tensor       Depolarisation Ratio                   +
 +     0.0000    0.0000    0.0000      0.000000                               +
 +     0.0000    0.0000    0.0000                                             +
 +     0.0000    0.0000    0.0000                                             +
 +                                                                            +
 + Mode number:  49 Raman tensor       Depolarisation Ratio                   +
 +     0.0000    0.0000    0.0000      0.000000                               +
 +     0.0000    0.0000    0.0000                                             +
 +     0.0000    0.0000    0.0000                                             +
 +                                                                            +
 + Mode number:  50 Raman tensor       Depolarisation Ratio                   +
 +     0.0000    0.0000    0.0000      0.000000                               +
 +     0.0000    0.0000    0.0000                                             +
 +     0.0000    0.0000    0.0000                                             +
 +                                                                            +
 + Mode number:  51 Raman tensor       Depolarisation Ratio                   +
 +     0.0000    0.0000    0.0000      0.000000                               +
 +     0.0000    0.0000    0.0000                                             +
 +     0.0000    0.0000    0.0000                                             +
 +                                                                            +
 + Mode number:  52 Raman tensor       Depolarisation Ratio                   +
 +     0.0000    0.0000    0.0000      0.000000                               +
 +     0.0000    0.0000    0.0000                                             +
 +     0.0000    0.0000    0.0000                                             +
 +                                                                            +
 + Mode number:  53 Raman tensor       Depolarisation Ratio                   +
 +     0.0000    0.0000    0.0000      0.000000                               +
 +     0.0000    0.0000    0.0000                                             +
 +     0.0000    0.0000    0.0000                                             +
 +                                                                            +
 + Mode number:  54 Raman tensor       Depolarisation Ratio                   +
 +     0.0000    0.0000    0.0000      0.000000                               +
 +     0.0000    0.0000    0.0000                                             +
 +     0.0000    0.0000    0.0000                                             +
 +                                                                            +
 + Mode number:  55 Raman tensor       Depolarisation Ratio                   +
 +     0.0000    0.0000    0.0000      0.000000                               +
 +     0.0000    0.0000    0.0000                                             +
 +     0.0000    0.0000    0.0000                                             +
 +                                                                            +
 + Mode number:  56 Raman tensor       Depolarisation Ratio                   +
 +     0.0000    0.0000    0.0000      0.393886                               +
 +     0.0000   -0.0000    0.0000                                             +
 +     0.0000    0.0000    0.0000                                             +
 +                                                                            +
 + Mode number:  57 Raman tensor       Depolarisation Ratio                   +
 +     0.0000    0.0000    0.0000      0.000000                               +
 +     0.0000    0.0000    0.0000                                             +
 +     0.0000    0.0000    0.0000                                             +
 +                                                                            +
 + Mode number:  58 Raman tensor       Depolarisation Ratio                   +
 +     0.0000    0.0000   -0.0000      0.458813                               +
 +     0.0000    0.0000    0.0000                                             +
 +    -0.0000    0.0000   -0.0000                                             +
 +                                                                            +
 + Mode number:  59 Raman tensor       Depolarisation Ratio                   +
 +     0.0000    0.0000    0.0000      0.000000                               +
 +     0.0000    0.0000    0.0000                                             +
 +     0.0000    0.0000    0.0000                                             +
 +                                                                            +
 + Mode number:  60 Raman tensor       Depolarisation Ratio                   +
 +     0.0000    0.0000    0.0000      0.000000                               +
 +     0.0000    0.0000    0.0000                                             +
 +     0.0000    0.0000    0.0000                                             +
 +                                                                            +
 + Mode number:  61 Raman tensor       Depolarisation Ratio                   +
 +    -1.4947    0.0000    0.0000      0.070542                               +
 +     0.0000   -1.4948    0.0000                                             +
 +     0.0000    0.0000   -4.0199                                             +
 +                                                                            +
 + Mode number:  62 Raman tensor       Depolarisation Ratio                   +
 +     0.0000    0.0000    0.0000      0.000000                               +
 +     0.0000    0.0000    0.0000                                             +
 +     0.0000    0.0000    0.0000                                             +
 +                                                                            +
 + Mode number:  63 Raman tensor       Depolarisation Ratio                   +
 +     0.0000    0.0000    0.0000      0.000000                               +
 +     0.0000    0.0000    0.0000                                             +
 +     0.0000    0.0000    0.0000                                             +
 +                                                                            +
 + Mode number:  64 Raman tensor       Depolarisation Ratio                   +
 +     0.0000    0.0000    0.0000      0.000000                               +
 +     0.0000    0.0000    0.0000                                             +
 +     0.0000    0.0000    0.0000                                             +
 +                                                                            +
 + Mode number:  65 Raman tensor       Depolarisation Ratio                   +
 +     0.0001    0.0000    0.0000      0.159277                               +
 +     0.0000   -0.0000    0.0000                                             +
 +     0.0000    0.0000    0.0001                                             +
 +                                                                            +
 + Mode number:  66 Raman tensor       Depolarisation Ratio                   +
 +     0.0000    0.0000    0.0000      0.000000                               +
 +     0.0000    0.0000    0.0000                                             +
 +     0.0000    0.0000    0.0000                                             +
 +                                                                            +
 + Mode number:  67 Raman tensor       Depolarisation Ratio                   +
 +     0.0000    0.0000    0.0000      0.000000                               +
 +     0.0000    0.0000    0.0000                                             +
 +     0.0000    0.0000    0.0000                                             +
 +                                                                            +
 + Mode number:  68 Raman tensor       Depolarisation Ratio                   +
 +     0.0000    0.0000    0.0000      0.000000                               +
 +     0.0000    0.0000    0.0000                                             +
 +     0.0000    0.0000    0.0000                                             +
 +                                                                            +
 + Mode number:  69 Raman tensor       Depolarisation Ratio                   +
 +     0.0000    0.0000    0.0000      0.435076                               +
 +     0.0000    0.0000   -0.0000                                             +
 +     0.0000   -0.0000   -0.0000                                             +
 +                                                                            +
 + Mode number:  70 Raman tensor       Depolarisation Ratio                   +
 +     0.0000    0.0000    0.0000      0.000000                               +
 +     0.0000    0.0000    0.0000                                             +
 +     0.0000    0.0000    0.0000                                             +
 +                                                                            +
 + Mode number:  71 Raman tensor       Depolarisation Ratio                   +
 +     0.0000    0.0000    0.0000      0.000000                               +
 +     0.0000    0.0000    0.0000                                             +
 +     0.0000    0.0000    0.0000                                             +
 +                                                                            +
 + Mode number:  72 Raman tensor       Depolarisation Ratio                   +
 +     0.0000    0.0000    0.0000      0.706640                               +
 +     0.0000    0.0000   -0.0000                                             +
 +     0.0000   -0.0000   -0.0000                                             +
 +                                                                            +
 +----------------------------------------------------------------------------+
  

 ******************** Symmetrised Forces ********************
 *                                                          *
 *               Cartesian components (eV/A)                *
 * -------------------------------------------------------- *
 *                         x            y            z      *
 *                                                          *
 * H               1      0.00000      0.00000      0.00000 *
 * H               2     -0.00000      0.00000      0.00000 *
 * H               3      0.00000      0.00000     -0.00000 *
 * H               4      0.00000      0.00000      0.00000 *
 * H               5      0.00000      0.00000     -0.00000 *
 * H               6      0.00000      0.00000     -0.00000 *
 * H               7      0.00000     -0.00000      0.00000 *
 * H               8      0.00000     -0.00000     -0.00000 *
 * H               9      0.00000     -0.00000     -0.00000 *
 * H              10      0.00000     -0.00000     -0.00000 *
 * H              11      0.00000     -0.00000      0.00000 *
 * H              12      0.00000     -0.00000      0.00000 *
 * H              13      0.00000      0.00000     -0.00000 *
 * H              14     -0.00000      0.00000      0.00000 *
 * H              15      0.00000      0.00000      0.00000 *
 * H              16      0.00000      0.00000      0.00000 *
 * H              17      0.00000      0.00000     -0.00000 *
 * H              18      0.00000      0.00000     -0.00000 *
 * H              19      0.00000     -0.00000      0.00000 *
 * H              20      0.00000     -0.00000     -0.00000 *
 * H              21      0.00000     -0.00000     -0.00000 *
 * H              22      0.00000     -0.00000     -0.00000 *
 * H              23      0.00000     -0.00000      0.00000 *
 * H              24     -0.00000     -0.00000      0.00000 *
 *                                                          *
 ************************************************************

 *********** Symmetrised Stress Tensor ***********
 *                                               *
 *          Cartesian components (GPa)           *
 * --------------------------------------------- *
 *             x             y             z     *
 *                                               *
 *  x    -29.969634      0.000000      0.000000  *
 *  y      0.000000    -29.969646      0.000000  *
 *  z      0.000000      0.000000    -29.969648  *
 *                                               *
 *  Pressure:   29.9696                          *
 *                                               *
 *************************************************

 Pseudo atomic calculation performed for H 1s1

 Converged in 24 iterations to a total energy of -12.4843 eV

Charge spilling parameter for spin component 1 = 0.79%

            Orbital Populations       
     Ion    Atom   Orbital             Charge
  -------------------------------------------
      H     1      S                    1.000
      H     2      S                    1.000
      H     3      S                    1.000
      H     4      S                    1.000
      H     5      S                    1.000
      H     6      S                    1.000
      H     7      S                    1.000
      H     8      S                    1.000
      H     9      S                    1.000
      H    10      S                    1.000
      H    11      S                    1.000
      H    12      S                    1.000
      H    13      S                    1.000
      H    14      S                    1.000
      H    15      S                    1.000
      H    16      S                    1.000
      H    17      S                    1.000
      H    18      S                    1.000
      H    19      S                    1.000
      H    20      S                    1.000
      H    21      S                    1.000
      H    22      S                    1.000
      H    23      S                    1.000
      H    24      S                    1.000
  -------------------------------------------
                           Total:      24.000
  -------------------------------------------

     Atomic Populations (Mulliken)
     -----------------------------
Species          Ion     s      p      d      f     Total  Charge (e)
=====================================================================
  H               1     1.00   0.00   0.00   0.00   1.00     0.00
  H               2     1.00   0.00   0.00   0.00   1.00     0.00
  H               3     1.00   0.00   0.00   0.00   1.00    -0.00
  H               4     1.00   0.00   0.00   0.00   1.00    -0.00
  H               5     1.00   0.00   0.00   0.00   1.00     0.00
  H               6     1.00   0.00   0.00   0.00   1.00     0.00
  H               7     1.00   0.00   0.00   0.00   1.00    -0.00
  H               8     1.00   0.00   0.00   0.00   1.00     0.00
  H               9     1.00   0.00   0.00   0.00   1.00     0.00
  H              10     1.00   0.00   0.00   0.00   1.00    -0.00
  H              11     1.00   0.00   0.00   0.00   1.00     0.00
  H              12     1.00   0.00   0.00   0.00   1.00     0.00
  H              13     1.00   0.00   0.00   0.00   1.00    -0.00
  H              14     1.00   0.00   0.00   0.00   1.00     0.00
  H              15     1.00   0.00   0.00   0.00   1.00     0.00
  H              16     1.00   0.00   0.00   0.00   1.00    -0.00
  H              17     1.00   0.00   0.00   0.00   1.00     0.00
  H              18     1.00   0.00   0.00   0.00   1.00     0.00
  H              19     1.00   0.00   0.00   0.00   1.00    -0.00
  H              20     1.00   0.00   0.00   0.00   1.00     0.00
  H              21     1.00   0.00   0.00   0.00   1.00     0.00
  H              22     1.00   0.00   0.00   0.00   1.00    -0.00
  H              23     1.00   0.00   0.00   0.00   1.00     0.00
  H              24     1.00   0.00   0.00   0.00   1.00     0.00
=====================================================================

                 Bond                   Population      Length (A)
======================================================================
              H 18 -- H 24                   1.31        0.73789
              H 9  -- H 15                   1.31        0.73789
              H 6  -- H 12                   1.31        0.73789
              H 1  -- H 21                   1.31        0.73789
              H 16 -- H 20                   1.31        0.73789
              H 4  -- H 8                    1.31        0.73789
              H 17 -- H 19                   1.31        0.73789
              H 11 -- H 13                   1.31        0.73789
              H 10 -- H 14                   1.31        0.73789
              H 5  -- H 7                    1.31        0.73789
              H 3  -- H 23                   1.31        0.73789
              H 2  -- H 22                   1.31        0.73789
              H 22 -- H 23                  -0.08        1.73495
              H 7  -- H 8                   -0.08        1.73495
              H 2  -- H 3                   -0.08        1.73495
              H 4  -- H 5                   -0.08        1.73495
              H 13 -- H 14                  -0.08        1.73495
              H 19 -- H 20                  -0.08        1.73495
              H 10 -- H 11                  -0.08        1.73495
              H 16 -- H 17                  -0.08        1.73495
              H 3  -- H 18                  -0.08        1.73495
              H 19 -- H 24                  -0.08        1.73495
              H 9  -- H 10                  -0.08        1.73495
              H 4  -- H 15                  -0.08        1.73495
              H 21 -- H 22                  -0.08        1.73495
              H 7  -- H 12                  -0.08        1.73495
              H 6  -- H 13                  -0.08        1.73495
              H 1  -- H 16                  -0.08        1.73495
              H 17 -- H 18                  -0.08        1.73495
              H 14 -- H 15                  -0.08        1.73495
              H 1  -- H 2                   -0.08        1.73495
              H 5  -- H 6                   -0.08        1.73495
              H 20 -- H 21                  -0.08        1.73495
              H 11 -- H 12                  -0.08        1.73495
              H 23 -- H 24                  -0.08        1.73495
              H 8  -- H 9                   -0.08        1.73495
              H 14 -- H 17                  -0.18        1.73496
              H 11 -- H 20                  -0.18        1.73496
              H 2  -- H 5                   -0.18        1.73496
              H 8  -- H 23                  -0.18        1.73496
              H 10 -- H 19                  -0.18        1.73496
              H 7  -- H 22                  -0.18        1.73496
              H 13 -- H 16                  -0.18        1.73496
              H 3  -- H 4                   -0.18        1.73496
              H 15 -- H 18                  -0.18        1.73496
              H 1  -- H 6                   -0.18        1.73496
              H 12 -- H 21                  -0.18        1.73496
              H 9  -- H 24                  -0.18        1.73496
              H 8  -- H 22                  -0.08        2.17306
              H 7  -- H 23                  -0.08        2.17306
              H 3  -- H 5                   -0.08        2.17306
              H 2  -- H 4                   -0.08        2.17306
              H 14 -- H 16                  -0.08        2.17306
              H 13 -- H 17                  -0.08        2.17306
              H 11 -- H 19                  -0.08        2.17306
              H 10 -- H 20                  -0.08        2.17306
              H 10 -- H 24                  -0.08        2.17306
              H 9  -- H 19                  -0.08        2.17306
              H 4  -- H 18                  -0.08        2.17306
              H 3  -- H 15                  -0.08        2.17306
              H 12 -- H 22                  -0.08        2.17306
              H 7  -- H 21                  -0.08        2.17306
              H 6  -- H 16                  -0.08        2.17306
              H 1  -- H 13                  -0.08        2.17306
              H 14 -- H 18                  -0.08        2.17306
              H 12 -- H 20                  -0.08        2.17306
              H 15 -- H 17                  -0.08        2.17306
              H 11 -- H 21                  -0.08        2.17306
              H 2  -- H 6                   -0.08        2.17306
              H 1  -- H 5                   -0.08        2.17306
              H 9  -- H 23                  -0.08        2.17306
              H 8  -- H 24                  -0.08        2.17306
              H 5  -- H 8                   -0.10        2.17793
              H 2  -- H 23                  -0.10        2.17793
              H 17 -- H 20                  -0.10        2.17793
              H 11 -- H 14                  -0.10        2.17793
              H 6  -- H 7                   -0.10        2.17793
              H 1  -- H 22                  -0.10        2.17793
              H 12 -- H 13                  -0.10        2.17793
              H 3  -- H 24                  -0.10        2.17793
              H 18 -- H 19                  -0.10        2.17793
              H 16 -- H 21                  -0.10        2.17793
              H 10 -- H 15                  -0.10        2.17793
              H 4  -- H 9                   -0.10        2.17793
              H 16 -- H 19                  -0.10        2.17794
              H 4  -- H 7                   -0.10        2.17794
              H 10 -- H 13                  -0.10        2.17794
              H 3  -- H 22                  -0.10        2.17794
              H 17 -- H 24                  -0.10        2.17794
              H 9  -- H 14                  -0.10        2.17794
              H 5  -- H 12                  -0.10        2.17794
              H 2  -- H 21                  -0.10        2.17794
              H 6  -- H 11                  -0.10        2.17794
              H 1  -- H 20                  -0.10        2.17794
              H 18 -- H 23                  -0.10        2.17794
              H 8  -- H 15                  -0.10        2.17794
              H 11 -- H 16                  -0.22        2.17794
              H 4  -- H 23                  -0.22        2.17794
              H 14 -- H 19                  -0.22        2.17794
              H 13 -- H 20                  -0.22        2.17794
              H 10 -- H 17                  -0.22        2.17794
              H 5  -- H 22                  -0.22        2.17794
              H 3  -- H 8                   -0.22        2.17794
              H 2  -- H 7                   -0.22        2.17794
              H 15 -- H 24                  -0.22        2.17794
              H 9  -- H 18                  -0.22        2.17794
              H 6  -- H 21                  -0.22        2.17794
              H 1  -- H 12                  -0.22        2.17794
              H 5  -- H 23                  -0.08        2.29493
              H 2  -- H 8                   -0.08        2.29493
              H 14 -- H 20                  -0.08        2.29493
              H 11 -- H 17                  -0.08        2.29493
              H 6  -- H 22                  -0.08        2.29493
              H 1  -- H 7                   -0.08        2.29493
              H 4  -- H 24                  -0.08        2.29493
              H 12 -- H 16                  -0.08        2.29493
              H 13 -- H 21                  -0.08        2.29493
              H 3  -- H 9                   -0.08        2.29493
              H 15 -- H 19                  -0.08        2.29493
              H 10 -- H 18                  -0.08        2.29493
              H 10 -- H 16                  -0.08        2.29493
              H 4  -- H 22                  -0.08        2.29493
              H 13 -- H 19                  -0.08        2.29493
              H 3  -- H 7                   -0.08        2.29493
              H 14 -- H 24                  -0.08        2.29493
              H 9  -- H 17                  -0.08        2.29493
              H 5  -- H 21                  -0.08        2.29493
              H 2  -- H 12                  -0.08        2.29493
              H 6  -- H 20                  -0.08        2.29493
              H 1  -- H 11                  -0.08        2.29493
              H 15 -- H 23                  -0.08        2.29493
              H 8  -- H 18                  -0.08        2.29493
======================================================================


Writing analysis data to Cmca-12.castep_bin

Writing model to Cmca-12.check
 
 A BibTeX formatted list of references used in this run has been written to 
 Cmca-12.bib
 
Initialisation time =      2.73 s
Calculation time    =  42587.14 s
Finalisation time   =      3.13 s
Total time          =  42593.00 s
Peak Memory Use     = 1246884 kB
  
Overall parallel efficiency rating: Poor (41%)                                  
  
Data was distributed by:-
G-vector (8-way); efficiency rating: Poor (42%)                                 
