 +-------------------------------------------------+
 |                                                 |
 |      CCC   AA    SSS  TTTTT  EEEEE  PPPP        |
 |     C     A  A  S       T    E      P   P       |
 |     C     AAAA   SS     T    EEE    PPPP        |
 |     C     A  A     S    T    E      P           |
 |      CCC  A  A  SSS     T    EEEEE  P           |
 |                                                 |
 +-------------------------------------------------+
 |                                                 |
 | Welcome to Academic Release CASTEP version 18.1 |          
 | Ab Initio Total Energy Program                  |
 |                                                 |
 | Authors:                                        |
 | M. Segall, M. Probert, C. Pickard, P. Hasnip,   |
 | S. Clark, K. Refson, J. R. Yates, M. Payne      |
 |                                                 |
 | Contributors:                                   |
 | P. Lindan, P. Haynes, J. White, V. Milman,      |
 | N. Govind, M. Gibson, P. Tulip, V. Cocula,      |
 | B. Montanari, D. Quigley, M. Glover,            |
 | L. Bernasconi, A. Perlov, M. Plummer,           |
 | E. McNellis, J. Meyer, J. Gale, D. Jochym       |
 | J. Aarons, B. Walker, R. Gillen, D. Jones       |
 | T. Green, I. J. Bush, C. J. Armstrong,          |
 | E. J. Higgins, E. L. Brown, M. S. McFly,        |
 | J. Wilkins, B-C. Shih, P. J. P. Byrne           |
 |                                                 |
 | Copyright (c) 2000 - 2017                       |
 |                                                 |
 |     Distributed under the terms of an           |
 |     Agreement between the United Kingdom        |
 |     Car-Parrinello (UKCP) Consortium,           |
 |     Daresbury Laboratory and Accelrys, Inc.     |
 |                                                 |
 | Please cite                                     |
 |                                                 |
 |     "First principles methods using CASTEP"     |
 |                                                 |
 |         Zeitschrift fuer Kristallographie       |
 |           220(5-6) pp. 567-570 (2005)           |
 |                                                 |
 | S. J. Clark, M. D. Segall, C. J. Pickard,       |
 | P. J. Hasnip, M. J. Probert, K. Refson,         |
 | M. C. Payne                                     |
 |                                                 |
 |       in all publications arising from          |
 |              your use of CASTEP                 |
 |                                                 |
 +-------------------------------------------------+


 Compiled for linux_x86_64_gfortran4.8 on Thu, 19 Jul 2018 15:42:32 +0100
 from code version 70483bd0ad64+  Sun, 10 Dec 2017 12:18:29 +0000
 Compiler: GNU Fortran 4.8.5; Optimisation: fast
 MATHLIBS: Intel MKL(2018.0.0) (LAPACK version 3.7.0)
 FFT Lib : mkl
 Fundamental constants values: CODATA 2014

 Run started: Tue, 21 Jul 2020 19:28:38 +0100

 Atomic calculation performed for H: 1s1

 Converged in 41 iterations to an ae energy of -12.488 eV

   ============================================================                
   | Pseudopotential Report - Date of generation 21-07-2020   |                
   ------------------------------------------------------------                
   | Element: H Ionic charge:  1.00 Level of theory: PBE      |                
   | Atomic Solver: Koelling-Harmon                           |                
   |                                                          |                
   |               Reference Electronic Structure             |                
   |         Orbital         Occupation         Energy        |                
   |            1s              1.000           -0.239        |                
   |                                                          |                
   |                 Pseudopotential Definition               |                
   |        Beta     l      e      Rc     scheme   norm       |                
   |         loc     0   -0.239   0.702     qc      1         |                
   |                                                          |                
   | No charge augmentation                                   |                
   | No partial core correction                               |                
   ------------------------------------------------------------                
   | "0|0.7|2|6|8|10L(qc=10)"                                 |                
   ------------------------------------------------------------                
   |      Author: Chris J. Pickard, Cambridge University      |                
   ============================================================                

 Pseudo atomic calculation performed for H 1s1

 Converged in 24 iterations to a total energy of -12.4843 eV

 Calculation parallelised over 16 processes.
 Data is distributed by G-vector(8-way) and k-point(2-way)

 ************************************ Title ************************************
 

 ***************************** General Parameters ******************************
  
 output verbosity                               : normal  (1)
 write checkpoint data to                       : C2c.check
 type of calculation                            : geometry optimization
 stress calculation                             : on
 density difference calculation                 : off
 electron localisation func (ELF) calculation   : off
 Hirshfeld analysis                             : off
 unlimited duration calculation
 timing information                             : on
 memory usage estimate                          : on
 write extra output files                       : on
 write final potential to formatted file        : off
 write final density to formatted file          : off
 write structure in CELL formatted file         : on
 write BibTeX reference list                    : on
 write OTFG pseudopotential files               : on
 write electrostatic potential file             : on
 write bands file                               : on
 checkpoint writing                             : both castep_bin and check files
  
 output         length unit                     : A
 output           mass unit                     : amu
 output           time unit                     : ps
 output         charge unit                     : e
 output           spin unit                     : hbar/2
 output         energy unit                     : eV
 output          force unit                     : eV/A
 output       velocity unit                     : A/ps
 output       pressure unit                     : GPa
 output     inv_length unit                     : 1/A
 output      frequency unit                     : cm-1
 output force constant unit                     : eV/A**2
 output         volume unit                     : A**3
 output   IR intensity unit                     : (D/A)**2/amu
 output         dipole unit                     : D
 output         efield unit                     : eV/A/e
 output        entropy unit                     : J/mol/K
  
 wavefunctions paging                           : none
 random number generator seed                   : randomised (192838823)
 data distribution                              : optimal for this architecture
 optimization strategy                          : minimize memory(---)

 *********************** Exchange-Correlation Parameters ***********************
  
 using functional                               : Perdew Burke Ernzerhof
 relativistic treatment                         : Koelling-Harmon
 DFT+D: Semi-empirical dispersion correction    : off

 ************************* Pseudopotential Parameters **************************
  
 pseudopotential representation                 : reciprocal space
 <beta|phi> representation                      : reciprocal space
 spin-orbit coupling                            : off

 **************************** Basis Set Parameters *****************************
  
 plane wave basis set cut-off                   :  1200.0000   eV
 size of standard grid                          :     2.0000
 size of   fine   gmax                          :    35.4943   1/A
 finite basis set correction                    : automatic
 number of sample energies                      :          3
           sample  spacing                      :     5.0000   eV

 **************************** Electronic Parameters ****************************
  
 number of  electrons                           :  24.00    
 net charge of system                           :  0.000    
 treating system as non-spin-polarized
 number of bands                                :         12

 ********************* Electronic Minimization Parameters **********************
  
 Method: Treating system as non-metallic,
         and number of  SD  steps               :          1
         and number of  CG  steps               :          4
  
 total energy / atom convergence tol.           : 0.1000E-10   eV
 eigen-energy convergence tolerance             : 0.2000E-10   eV
 max force / atom convergence tol.              : ignored
 convergence tolerance window                   :          3   cycles
 max. number of SCF cycles                      :        100
 periodic dipole correction                     : NONE

 ************************** Density Mixing Parameters **************************
  
 density-mixing scheme                          : Broyden
 max. length of mixing history                  :         20
 charge density mixing amplitude                : 0.8000    
 cut-off energy for mixing                      :  1200.       eV

 *********************** Population Analysis Parameters ************************
  
 Population analysis with cutoff                :  3.000       A
 Population analysis output                     : summary and pdos components

 ********************** Geometry Optimization Parameters ***********************
  
 optimization method                            : LBFGS
 max. no. of LBFGS updates                      : unbounded
 variable cell method                           : fixed basis quality
 max. number of steps                           :         60
 estimated bulk modulus                         :  500.0       GPa
 estimated <frequency>                          :  1668.       cm-1
 geom line minimiser                            : on
 with line minimiser tolerance                  :     0.4000
 total energy convergence tolerance             : 0.1000E-08   eV/atom
        max ionic |force| tolerance             : 0.1000E-03   eV/A
 max ionic |displacement| tolerance             : 0.1000E-03   A
   max |stress component| tolerance             : 0.1000E-03   GPa
 convergence tolerance window                   :          2   steps
 backup results every                           :      14400   seconds
 write geom trajectory file                     : on

 *******************************************************************************
  

                           -------------------------------
                                      Unit Cell
                           -------------------------------
        Real Lattice(A)                      Reciprocal Lattice(1/A)
     4.8296548     0.0000000    -0.0217552        1.307851356   0.000000000   1.529991097
     0.0000000     2.6507581     0.0000000        0.000000000   2.370335247   0.000000000
    -3.2206744     0.0000000     2.7530639        0.010334897   0.000000000   2.294342153

                       Lattice parameters(A)       Cell Angles
                    a =      4.829704          alpha =   90.000000
                    b =      2.650758          beta  =  139.733942
                    c =      4.236992          gamma =   90.000000

                       Current cell volume =            35.059674       A**3
                                   density =             0.689982   AMU/A**3
                                           =             1.145743     g/cm^3

                           -------------------------------
                                     Cell Contents
                           -------------------------------
                         Total number of ions in cell =   24
                      Total number of species in cell =    1
                        Max number of any one species =   24

            xxxxxxxxxxxxxxxxxxxxxxxxxxxxxxxxxxxxxxxxxxxxxxxxxxxxxxxxxxxx
            x  Element    Atom        Fractional coordinates of atoms  x
            x            Number           u          v          w      x
            x----------------------------------------------------------x
            x  H            1         0.188380  -0.086626   0.252375   x 
            x  H            2         0.352176   0.122983   0.250879   x 
            x  H            3         0.500000   0.133826   0.750000   x 
            x  H            4         0.500000   0.428805   0.750000   x 
            x  H            5         0.811620  -0.086626   0.247625   x 
            x  H            6         0.647824   0.122983   0.249121   x 
            x  H            7         0.688380   0.413374   0.252375   x 
            x  H            8         0.852176   0.622983   0.250879   x 
            x  H            9        -0.000000   0.633826   0.750000   x 
            x  H           10        -0.000000   0.928805   0.750000   x 
            x  H           11         0.311620   0.413374   0.247625   x 
            x  H           12         0.147824   0.622983   0.249121   x 
            x  H           13         0.311620   0.586626   0.747625   x 
            x  H           14         0.147824   0.377017   0.749121   x 
            x  H           15        -0.000000   0.366174   0.250000   x 
            x  H           16        -0.000000   0.071195   0.250000   x 
            x  H           17         0.688380   0.586626   0.752375   x 
            x  H           18         0.852176   0.377017   0.750879   x 
            x  H           19         0.811620   1.086626   0.747625   x 
            x  H           20         0.647824   0.877017   0.749121   x 
            x  H           21         0.500000   0.866174   0.250000   x 
            x  H           22         0.500000   0.571195   0.250000   x 
            x  H           23         0.188380   1.086626   0.752375   x 
            x  H           24         0.352176   0.877017   0.750879   x 
            xxxxxxxxxxxxxxxxxxxxxxxxxxxxxxxxxxxxxxxxxxxxxxxxxxxxxxxxxxxx


                         No user defined ionic velocities

                           -------------------------------
                                   Details of Species
                           -------------------------------

                               Mass of species in AMU
                                    H    1.0079400

                          Electric Quadrupole Moment (Barn)
                                    H    0.0028600 Isotope  2

                          Files used for pseudopotentials:
                                    H 0|0.7|2|6|8|10L(qc=10)

                           -------------------------------
                              k-Points For BZ Sampling
                           -------------------------------
                       MP grid size for SCF calculation is  2  2  2
                            with an offset of   0.000  0.000  0.000
                       Number of kpoints used =             2

                           -------------------------------
                               Symmetry and Constraints
                           -------------------------------

                      Cell is a supercell containing 2 primitive cells
                      Maximum deviation from symmetry = 0.625666E-15     ANG

                      Number of symmetry operations   =           8
                      Number of ionic constraints     =           3
                      Point group of crystal =     5: C2h, 2/m, 2/m
                      Space group of crystal =    15: C2/c, -C 2yc

             Set iprint > 1 for details on symmetry rotations/translations

                         Centre of mass is constrained
             Set iprint > 1 for details of linear ionic constraints

                         Number of cell constraints= 2
                         Cell constraints are:  1 2 3 0 5 0

                         External pressure/stress (GPa)
                        300.00000   0.00000   0.00000
                                  300.00000   0.00000
                                            300.00000
  
+---------------- MEMORY AND SCRATCH DISK ESTIMATES PER PROCESS --------------+
|                                                     Memory          Disk    |
| Baseline code, static data and system overhead      413.0 MB         0.0 MB |
| BLAS internal memory storage                          0.0 MB         0.0 MB |
| Model and support data                                7.2 MB         0.0 MB |
| Electronic energy minimisation requirements           4.2 MB         0.2 MB |
| Force calculation requirements                        1.1 MB         0.0 MB |
| Stress calculation requirements                       1.5 MB         0.0 MB |
|                                               ----------------------------- |
| Approx. total storage required per process          424.3 MB         0.2 MB |
|                                                                             |
| Requirements will fluctuate during execution and may exceed these estimates |
+-----------------------------------------------------------------------------+
Calculating finite basis set correction with  3 cut-off energies.
Finite basis spacing too small - increasing from    5.000 eV to    6.050 eV.
Calculating total energy with cut-off of 1187.900 eV.
------------------------------------------------------------------------ <-- SCF
SCF loop      Energy                           Energy gain       Timer   <-- SCF
                                               per atom          (sec)   <-- SCF
------------------------------------------------------------------------ <-- SCF
Initial   5.45193639E+002                                         12.76  <-- SCF
      1  -2.87010819E+002                    3.46751858E+001      23.19  <-- SCF
      2  -3.43230101E+002                    2.34247007E+000      30.19  <-- SCF
      3  -3.43167621E+002                   -2.60333863E-003      42.80  <-- SCF
      4  -3.43163127E+002                   -1.87226547E-004      56.91  <-- SCF
      5  -3.43163528E+002                    1.66957191E-005      71.44  <-- SCF
      6  -3.43163552E+002                    9.88777673E-007      83.88  <-- SCF
      7  -3.43163552E+002                    9.66000256E-009      96.05  <-- SCF
      8  -3.43163552E+002                    1.50209651E-010     107.54  <-- SCF
      9  -3.43163552E+002                    6.83164794E-012     119.49  <-- SCF
     10  -3.43163552E+002                    3.42388016E-013     129.66  <-- SCF
------------------------------------------------------------------------ <-- SCF
 
Final energy =  -343.1635520057     eV
(energy not corrected for finite basis set)
 
Calculating total energy with cut-off of 1193.950 eV.
------------------------------------------------------------------------ <-- SCF
SCF loop      Energy                           Energy gain       Timer   <-- SCF
                                               per atom          (sec)   <-- SCF
------------------------------------------------------------------------ <-- SCF
Initial  -3.43163552E+002                                        140.15  <-- SCF
      1  -3.43165809E+002                    9.40325944E-005     150.04  <-- SCF
      2  -3.43165809E+002                    1.95549880E-010     163.47  <-- SCF
      3  -3.43165810E+002                    6.67632624E-008     177.68  <-- SCF
      4  -3.43165810E+002                    2.52095664E-009     191.45  <-- SCF
      5  -3.43165810E+002                    1.18244708E-011     202.18  <-- SCF
      6  -3.43165810E+002                    6.38452948E-013     211.94  <-- SCF
      7  -3.43165810E+002                    2.21545187E-014     222.18  <-- SCF
------------------------------------------------------------------------ <-- SCF
 
Final energy =  -343.1658104558     eV
(energy not corrected for finite basis set)
 
Calculating total energy with cut-off of 1200.000 eV.
------------------------------------------------------------------------ <-- SCF
SCF loop      Energy                           Energy gain       Timer   <-- SCF
                                               per atom          (sec)   <-- SCF
------------------------------------------------------------------------ <-- SCF
Initial  -3.43165810E+002                                        231.22  <-- SCF
      1  -3.43167515E+002                    7.10381777E-005     239.20  <-- SCF
      2  -3.43167515E+002                    1.59178203E-010     249.55  <-- SCF
      3  -3.43167516E+002                    3.96239005E-008     262.66  <-- SCF
      4  -3.43167516E+002                    1.24739003E-009     274.86  <-- SCF
      5  -3.43167516E+002                    5.80448390E-012     284.29  <-- SCF
      6  -3.43167516E+002                    3.26275639E-013     295.08  <-- SCF
------------------------------------------------------------------------ <-- SCF
 
Final energy =  -343.1675163570     eV
(energy not corrected for finite basis set)
 
 For future reference: finite basis dEtot/dlog(Ecut) =      -0.420838eV
 Total energy corrected for finite basis set =    -343.167591 eV
 
+---------------- MEMORY AND SCRATCH DISK ESTIMATES PER PROCESS --------------+
|                                                     Memory          Disk    |
| Model and support data                               17.6 MB         0.0 MB |
| Electronic energy minimisation requirements           4.2 MB         0.2 MB |
| Geometry minimisation requirements                    4.5 MB         0.2 MB |
|                                               ----------------------------- |
| Approx. total storage required per process           26.3 MB         0.3 MB |
|                                                                             |
| Requirements will fluctuate during execution and may exceed these estimates |
+-----------------------------------------------------------------------------+
 

 ******************************** Symmetrised Forces ********************************
 *                                                                                  *
 *                           Cartesian components (eV/A)                            *
 * -------------------------------------------------------------------------------- *
 *                         x                    y                    z              *
 *                                                                                  *
 * H               1     -0.00000             -0.00000              0.00000         *
 * H               2     -0.00000              0.00000              0.00000         *
 * H               3      0.00000              0.00000             -0.00000         *
 * H               4      0.00000             -0.00000             -0.00000         *
 * H               5      0.00000             -0.00000             -0.00000         *
 * H               6      0.00000              0.00000             -0.00000         *
 * H               7     -0.00000             -0.00000              0.00000         *
 * H               8     -0.00000              0.00000              0.00000         *
 * H               9      0.00000              0.00000              0.00000         *
 * H              10     -0.00000             -0.00000              0.00000         *
 * H              11      0.00000             -0.00000             -0.00000         *
 * H              12      0.00000              0.00000             -0.00000         *
 * H              13      0.00000              0.00000             -0.00000         *
 * H              14      0.00000             -0.00000             -0.00000         *
 * H              15      0.00000             -0.00000             -0.00000         *
 * H              16     -0.00000              0.00000              0.00000         *
 * H              17     -0.00000              0.00000              0.00000         *
 * H              18     -0.00000             -0.00000              0.00000         *
 * H              19      0.00000              0.00000             -0.00000         *
 * H              20      0.00000             -0.00000             -0.00000         *
 * H              21      0.00000             -0.00000              0.00000         *
 * H              22     -0.00000              0.00000              0.00000         *
 * H              23     -0.00000              0.00000              0.00000         *
 * H              24     -0.00000             -0.00000              0.00000         *
 *                                                                                  *
 ************************************************************************************

 *********** Symmetrised Stress Tensor ***********
 *                                               *
 *          Cartesian components (GPa)           *
 * --------------------------------------------- *
 *             x             y             z     *
 *                                               *
 *  x   -299.843619      0.000000     -0.000011  *
 *  y      0.000000   -299.843622      0.000000  *
 *  z     -0.000011      0.000000   -299.843611  *
 *                                               *
 *  Pressure:  299.8436                          *
 *                                               *
 *************************************************
 LBFGS: finished iteration     0 with enthalpy= -2.77520008E+002 eV
  
 +-----------+-----------------+-----------------+------------+-----+ <-- LBFGS
 | Parameter |      value      |    tolerance    |    units   | OK? | <-- LBFGS
 +-----------+-----------------+-----------------+------------+-----+ <-- LBFGS
 |  dE/ion   |   0.000000E+000 |   1.000000E-009 |         eV | No  | <-- LBFGS
 |  |F|max   |   1.214558E-006 |   1.000000E-004 |       eV/A | Yes | <-- LBFGS
 |  |dR|max  |   0.000000E+000 |   1.000000E-004 |          A | No  | <-- LBFGS
 |   Smax    |   1.563890E-001 |   1.000000E-004 |        GPa | No  | <-- LBFGS
 +-----------+-----------------+-----------------+------------+-----+ <-- LBFGS
  

================================================================================
 Starting LBFGS iteration          1 ...
================================================================================
  
 +------------+-------------+-------------+-----------------+ <-- min LBFGS
 |    Step    |   lambda    |   F.delta'  |    enthalpy     | <-- min LBFGS
 +------------+-------------+-------------+-----------------+ <-- min LBFGS
 |  previous  |    0.000000 |    0.002178 |     -277.520008 | <-- min LBFGS
 +------------+-------------+-------------+-----------------+ <-- min LBFGS
  

--------------------------------------------------------------------------------
 LBFGS: starting iteration         1 with trial guess (lambda=  1.000000)
--------------------------------------------------------------------------------
 
+---------------- MEMORY AND SCRATCH DISK ESTIMATES PER PROCESS --------------+
|                                                     Memory          Disk    |
| Model and support data                               17.6 MB         0.0 MB |
| Electronic energy minimisation requirements           4.2 MB         0.2 MB |
| Geometry minimisation requirements                    4.5 MB         0.2 MB |
|                                               ----------------------------- |
| Approx. total storage required per process           26.3 MB         0.3 MB |
|                                                                             |
| Requirements will fluctuate during execution and may exceed these estimates |
+-----------------------------------------------------------------------------+
 

                           -------------------------------
                                      Unit Cell
                           -------------------------------
        Real Lattice(A)              Reciprocal Lattice(1/A)
     4.8291513     0.0000000    -0.0217529        1.307987708   0.000000000   1.530150620
     0.0000000     2.6504817     0.0000000        0.000000000   2.370582385   0.000000000
    -3.2203386     0.0000000     2.7527769        0.010335957   0.000000000   2.294581384

                       Lattice parameters(A)       Cell Angles
                    a =      4.829200          alpha =   90.000000
                    b =      2.650482          beta  =  139.733942
                    c =      4.236551          gamma =   90.000000

                Current cell volume =            35.048710 A**3

                           -------------------------------
                                     Cell Contents
                           -------------------------------

            xxxxxxxxxxxxxxxxxxxxxxxxxxxxxxxxxxxxxxxxxxxxxxxxxxxxxxxxxxxxxxxxx
            x  Element         Atom        Fractional coordinates of atoms  x
            x                 Number           u          v          w      x
            x---------------------------------------------------------------x
            x  H                 1         0.188380  -0.086626   0.252375   x
            x  H                 2         0.352176   0.122983   0.250879   x
            x  H                 3         0.500000   0.133826   0.750000   x
            x  H                 4         0.500000   0.428805   0.750000   x
            x  H                 5         0.811620  -0.086626   0.247625   x
            x  H                 6         0.647824   0.122983   0.249121   x
            x  H                 7         0.688380   0.413374   0.252375   x
            x  H                 8         0.852176   0.622983   0.250879   x
            x  H                 9         0.000000   0.633826   0.750000   x
            x  H                10         0.000000   0.928805   0.750000   x
            x  H                11         0.311620   0.413374   0.247625   x
            x  H                12         0.147824   0.622983   0.249121   x
            x  H                13         0.311620   0.586626   0.747625   x
            x  H                14         0.147824   0.377017   0.749121   x
            x  H                15        -0.000000   0.366174   0.250000   x
            x  H                16         0.000000   0.071195   0.250000   x
            x  H                17         0.688380   0.586626   0.752375   x
            x  H                18         0.852176   0.377017   0.750879   x
            x  H                19         0.811620   1.086626   0.747625   x
            x  H                20         0.647824   0.877017   0.749121   x
            x  H                21         0.500000   0.866174   0.250000   x
            x  H                22         0.500000   0.571195   0.250000   x
            x  H                23         0.188380   1.086626   0.752375   x
            x  H                24         0.352176   0.877017   0.750879   x
            xxxxxxxxxxxxxxxxxxxxxxxxxxxxxxxxxxxxxxxxxxxxxxxxxxxxxxxxxxxxxxxxx


------------------------------------------------------------------------ <-- SCF
SCF loop      Energy                           Energy gain       Timer   <-- SCF
                                               per atom          (sec)   <-- SCF
------------------------------------------------------------------------ <-- SCF
Initial  -3.43146926E+002                                        312.86  <-- SCF
      1  -3.43146927E+002                    6.59071916E-008     321.42  <-- SCF
      2  -3.43146927E+002                    1.25632233E-010     333.05  <-- SCF
      3  -3.43146927E+002                    1.66501278E-010     345.15  <-- SCF
      4  -3.43146927E+002                    2.02008929E-011     354.50  <-- SCF
      5  -3.43146927E+002                    7.27071022E-013     364.70  <-- SCF
      6  -3.43146927E+002                    6.84776032E-014     374.37  <-- SCF
------------------------------------------------------------------------ <-- SCF
 
Final energy =  -343.1469271726     eV
(energy not corrected for finite basis set)
 

 ******************************** Symmetrised Forces ********************************
 *                                                                                  *
 *                           Cartesian components (eV/A)                            *
 * -------------------------------------------------------------------------------- *
 *                         x                    y                    z              *
 *                                                                                  *
 * H               1      0.00029              0.00089              0.00000         *
 * H               2      0.00037             -0.00077              0.00001         *
 * H               3      0.00000             -0.00091             -0.00000         *
 * H               4      0.00000              0.00110             -0.00000         *
 * H               5     -0.00029              0.00089             -0.00000         *
 * H               6     -0.00037             -0.00077             -0.00001         *
 * H               7      0.00029              0.00089              0.00000         *
 * H               8      0.00037             -0.00077              0.00001         *
 * H               9      0.00000             -0.00091             -0.00000         *
 * H              10      0.00000              0.00110             -0.00000         *
 * H              11     -0.00029              0.00089             -0.00000         *
 * H              12     -0.00037             -0.00077             -0.00001         *
 * H              13     -0.00029             -0.00089             -0.00000         *
 * H              14     -0.00037              0.00077             -0.00001         *
 * H              15     -0.00000              0.00091             -0.00000         *
 * H              16      0.00000             -0.00110             -0.00000         *
 * H              17      0.00029             -0.00089              0.00000         *
 * H              18      0.00037              0.00077              0.00001         *
 * H              19     -0.00029             -0.00089             -0.00000         *
 * H              20     -0.00037              0.00077             -0.00001         *
 * H              21      0.00000              0.00091             -0.00000         *
 * H              22     -0.00000             -0.00110             -0.00000         *
 * H              23      0.00029             -0.00089              0.00000         *
 * H              24      0.00037              0.00077              0.00001         *
 *                                                                                  *
 ************************************************************************************

 *********** Symmetrised Stress Tensor ***********
 *                                               *
 *          Cartesian components (GPa)           *
 * --------------------------------------------- *
 *             x             y             z     *
 *                                               *
 *  x   -300.089062      0.000000     -0.000357  *
 *  y      0.000000   -300.133465      0.000000  *
 *  z     -0.000357      0.000000   -300.060626  *
 *                                               *
 *  Pressure:  300.0944                          *
 *                                               *
 *************************************************
  
 +------------+-------------+-------------+-----------------+ <-- min LBFGS
 |    Step    |   lambda    |   F.delta'  |    enthalpy     | <-- min LBFGS
 +------------+-------------+-------------+-----------------+ <-- min LBFGS
 |  previous  |    0.000000 |    0.002178 |     -277.520008 | <-- min LBFGS
 | trial step |    1.000000 |   -0.001315 |     -277.520031 | <-- min LBFGS
 +------------+-------------+-------------+-----------------+ <-- min LBFGS
  
 LBFGS: finished iteration     1 with enthalpy= -2.77520031E+002 eV
  
 +-----------+-----------------+-----------------+------------+-----+ <-- LBFGS
 | Parameter |      value      |    tolerance    |    units   | OK? | <-- LBFGS
 +-----------+-----------------+-----------------+------------+-----+ <-- LBFGS
 |  dE/ion   |   9.424932E-007 |   1.000000E-009 |         eV | No  | <-- LBFGS
 |  |F|max   |   1.101385E-003 |   1.000000E-004 |       eV/A | No  | <-- LBFGS
 |  |dR|max  |   1.177877E-007 |   1.000000E-004 |          A | Yes | <-- LBFGS
 |   Smax    |   1.334650E-001 |   1.000000E-004 |        GPa | No  | <-- LBFGS
 +-----------+-----------------+-----------------+------------+-----+ <-- LBFGS
  

================================================================================
 Starting LBFGS iteration          2 ...
================================================================================
  
 +------------+-------------+-------------+-----------------+ <-- min LBFGS
 |    Step    |   lambda    |   F.delta'  |    enthalpy     | <-- min LBFGS
 +------------+-------------+-------------+-----------------+ <-- min LBFGS
 |  previous  |    0.000000 |    0.001069 |     -277.520031 | <-- min LBFGS
 +------------+-------------+-------------+-----------------+ <-- min LBFGS
  

--------------------------------------------------------------------------------
 LBFGS: starting iteration         2 with trial guess (lambda=  1.000000)
--------------------------------------------------------------------------------

                           -------------------------------
                                      Unit Cell
                           -------------------------------
        Real Lattice(A)              Reciprocal Lattice(1/A)
     4.8292857     0.0000000    -0.0217526        1.307951099   0.000000000   1.530125953
     0.0000000     2.6506044     0.0000000        0.000000000   2.370472694   0.000000000
    -3.2204277     0.0000000     2.7528204        0.010335328   0.000000000   2.294544684

                       Lattice parameters(A)       Cell Angles
                    a =      4.829335          alpha =   90.000000
                    b =      2.650604          beta  =  139.734266
                    c =      4.236647          gamma =   90.000000

                Current cell volume =            35.051867 A**3

                           -------------------------------
                                     Cell Contents
                           -------------------------------

            xxxxxxxxxxxxxxxxxxxxxxxxxxxxxxxxxxxxxxxxxxxxxxxxxxxxxxxxxxxxxxxxx
            x  Element         Atom        Fractional coordinates of atoms  x
            x                 Number           u          v          w      x
            x---------------------------------------------------------------x
            x  H                 1         0.188384  -0.086606   0.252375   x
            x  H                 2         0.352180   0.122965   0.250879   x
            x  H                 3         0.500000   0.133805   0.750000   x
            x  H                 4         0.500000   0.428830   0.750000   x
            x  H                 5         0.811616  -0.086606   0.247625   x
            x  H                 6         0.647820   0.122965   0.249121   x
            x  H                 7         0.688384   0.413394   0.252375   x
            x  H                 8         0.852180   0.622965   0.250879   x
            x  H                 9         0.000000   0.633805   0.750000   x
            x  H                10         0.000000   0.928830   0.750000   x
            x  H                11         0.311616   0.413394   0.247625   x
            x  H                12         0.147820   0.622965   0.249121   x
            x  H                13         0.311616   0.586606   0.747625   x
            x  H                14         0.147820   0.377035   0.749121   x
            x  H                15        -0.000000   0.366195   0.250000   x
            x  H                16         0.000000   0.071170   0.250000   x
            x  H                17         0.688384   0.586606   0.752375   x
            x  H                18         0.852180   0.377035   0.750879   x
            x  H                19         0.811616   1.086606   0.747625   x
            x  H                20         0.647820   0.877035   0.749121   x
            x  H                21         0.500000   0.866195   0.250000   x
            x  H                22         0.500000   0.571170   0.250000   x
            x  H                23         0.188384   1.086606   0.752375   x
            x  H                24         0.352180   0.877035   0.750879   x
            xxxxxxxxxxxxxxxxxxxxxxxxxxxxxxxxxxxxxxxxxxxxxxxxxxxxxxxxxxxxxxxxx


------------------------------------------------------------------------ <-- SCF
SCF loop      Energy                           Energy gain       Timer   <-- SCF
                                               per atom          (sec)   <-- SCF
------------------------------------------------------------------------ <-- SCF
Initial  -3.43152807E+002                                        392.79  <-- SCF
      1  -3.43152836E+002                    1.19668400E-006     402.23  <-- SCF
      2  -3.43152836E+002                    9.70718363E-010     413.12  <-- SCF
      3  -3.43152836E+002                   -1.54209770E-008     425.00  <-- SCF
      4  -3.43152836E+002                   -5.96399643E-010     437.57  <-- SCF
      5  -3.43152836E+002                   -7.71380060E-013     447.79  <-- SCF
      6  -3.43152836E+002                    1.49039489E-013     457.66  <-- SCF
------------------------------------------------------------------------ <-- SCF
 
Final energy =  -343.1528355049     eV
(energy not corrected for finite basis set)
 

 ******************************** Symmetrised Forces ********************************
 *                                                                                  *
 *                           Cartesian components (eV/A)                            *
 * -------------------------------------------------------------------------------- *
 *                         x                    y                    z              *
 *                                                                                  *
 * H               1     -0.00040             -0.00060             -0.00008         *
 * H               2     -0.00030              0.00109             -0.00004         *
 * H               3      0.00000              0.00192              0.00000         *
 * H               4      0.00000             -0.00097              0.00000         *
 * H               5      0.00040             -0.00060              0.00008         *
 * H               6      0.00030              0.00109              0.00004         *
 * H               7     -0.00040             -0.00060             -0.00008         *
 * H               8     -0.00030              0.00109             -0.00004         *
 * H               9      0.00000              0.00192              0.00000         *
 * H              10      0.00000             -0.00097              0.00000         *
 * H              11      0.00040             -0.00060              0.00008         *
 * H              12      0.00030              0.00109              0.00004         *
 * H              13      0.00040              0.00060              0.00008         *
 * H              14      0.00030             -0.00109              0.00004         *
 * H              15      0.00000             -0.00192              0.00000         *
 * H              16      0.00000              0.00097              0.00000         *
 * H              17     -0.00040              0.00060             -0.00008         *
 * H              18     -0.00030             -0.00109             -0.00004         *
 * H              19      0.00040              0.00060              0.00008         *
 * H              20      0.00030             -0.00109              0.00004         *
 * H              21      0.00000             -0.00192              0.00000         *
 * H              22      0.00000              0.00097              0.00000         *
 * H              23     -0.00040              0.00060             -0.00008         *
 * H              24     -0.00030             -0.00109             -0.00004         *
 *                                                                                  *
 ************************************************************************************

 *********** Symmetrised Stress Tensor ***********
 *                                               *
 *          Cartesian components (GPa)           *
 * --------------------------------------------- *
 *             x             y             z     *
 *                                               *
 *  x   -300.003519      0.000000     -0.001053  *
 *  y      0.000000   -299.961584      0.000000  *
 *  z     -0.001053      0.000000   -300.034466  *
 *                                               *
 *  Pressure:  299.9999                          *
 *                                               *
 *************************************************
  
 +------------+-------------+-------------+-----------------+ <-- min LBFGS
 |    Step    |   lambda    |   F.delta'  |    enthalpy     | <-- min LBFGS
 +------------+-------------+-------------+-----------------+ <-- min LBFGS
 |  previous  |    0.000000 |    0.001069 |     -277.520031 | <-- min LBFGS
 | trial step |    1.000000 |   -0.000538 |     -277.520010 | <-- min LBFGS
 +------------+-------------+-------------+-----------------+ <-- min LBFGS
  
 LBFGS: finished iteration     2 with enthalpy= -2.77520010E+002 eV
  
 +-----------+-----------------+-----------------+------------+-----+ <-- LBFGS
 | Parameter |      value      |    tolerance    |    units   | OK? | <-- LBFGS
 +-----------+-----------------+-----------------+------------+-----+ <-- LBFGS
 |  dE/ion   |   8.640321E-007 |   1.000000E-009 |         eV | No  | <-- LBFGS
 |  |F|max   |   1.919053E-003 |   1.000000E-004 |       eV/A | No  | <-- LBFGS
 |  |dR|max  |   6.660352E-005 |   1.000000E-004 |          A | Yes | <-- LBFGS
 |   Smax    |   3.841630E-002 |   1.000000E-004 |        GPa | No  | <-- LBFGS
 +-----------+-----------------+-----------------+------------+-----+ <-- LBFGS
  

================================================================================
 Starting LBFGS iteration          3 ...
================================================================================
  
 +------------+-------------+-------------+-----------------+ <-- min LBFGS
 |    Step    |   lambda    |   F.delta'  |    enthalpy     | <-- min LBFGS
 +------------+-------------+-------------+-----------------+ <-- min LBFGS
 |  previous  |    0.000000 |    0.000578 |     -277.520010 | <-- min LBFGS
 +------------+-------------+-------------+-----------------+ <-- min LBFGS
  

--------------------------------------------------------------------------------
 LBFGS: starting iteration         3 with trial guess (lambda=  1.000000)
--------------------------------------------------------------------------------

                           -------------------------------
                                      Unit Cell
                           -------------------------------
        Real Lattice(A)              Reciprocal Lattice(1/A)
     4.8293942     0.0000000    -0.0217508        1.307920915   0.000000000   1.530076346
     0.0000000     2.6506321     0.0000000        0.000000000   2.370447902   0.000000000
    -3.2204987     0.0000000     2.7529068        0.010333904   0.000000000   2.294471308

                       Lattice parameters(A)       Cell Angles
                    a =      4.829443          alpha =   90.000000
                    b =      2.650632          beta  =  139.733974
                    c =      4.236757          gamma =   90.000000

                Current cell volume =            35.054142 A**3

                           -------------------------------
                                     Cell Contents
                           -------------------------------

            xxxxxxxxxxxxxxxxxxxxxxxxxxxxxxxxxxxxxxxxxxxxxxxxxxxxxxxxxxxxxxxxx
            x  Element         Atom        Fractional coordinates of atoms  x
            x                 Number           u          v          w      x
            x---------------------------------------------------------------x
            x  H                 1         0.188379  -0.086613   0.252373   x
            x  H                 2         0.352177   0.122985   0.250878   x
            x  H                 3         0.500000   0.133844   0.750000   x
            x  H                 4         0.500000   0.428815   0.750000   x
            x  H                 5         0.811621  -0.086613   0.247627   x
            x  H                 6         0.647823   0.122985   0.249122   x
            x  H                 7         0.688379   0.413387   0.252373   x
            x  H                 8         0.852177   0.622985   0.250878   x
            x  H                 9         0.000000   0.633844   0.750000   x
            x  H                10         0.000000   0.928815   0.750000   x
            x  H                11         0.311621   0.413387   0.247627   x
            x  H                12         0.147823   0.622985   0.249122   x
            x  H                13         0.311621   0.586613   0.747627   x
            x  H                14         0.147823   0.377015   0.749122   x
            x  H                15        -0.000000   0.366156   0.250000   x
            x  H                16         0.000000   0.071185   0.250000   x
            x  H                17         0.688379   0.586613   0.752373   x
            x  H                18         0.852177   0.377015   0.750878   x
            x  H                19         0.811621   1.086613   0.747627   x
            x  H                20         0.647823   0.877015   0.749122   x
            x  H                21         0.500000   0.866156   0.250000   x
            x  H                22         0.500000   0.571185   0.250000   x
            x  H                23         0.188379   1.086613   0.752373   x
            x  H                24         0.352177   0.877015   0.750878   x
            xxxxxxxxxxxxxxxxxxxxxxxxxxxxxxxxxxxxxxxxxxxxxxxxxxxxxxxxxxxxxxxxx


------------------------------------------------------------------------ <-- SCF
SCF loop      Energy                           Energy gain       Timer   <-- SCF
                                               per atom          (sec)   <-- SCF
------------------------------------------------------------------------ <-- SCF
Initial  -3.43157069E+002                                        476.22  <-- SCF
      1  -3.43157078E+002                    3.73764563E-007     483.97  <-- SCF
      2  -3.43157078E+002                    1.30276425E-009     495.83  <-- SCF
      3  -3.43157078E+002                   -3.08406871E-008     507.39  <-- SCF
      4  -3.43157078E+002                   -6.25883279E-010     518.44  <-- SCF
      5  -3.43157078E+002                   -4.60209774E-012     527.09  <-- SCF
      6  -3.43157078E+002                   -6.04214146E-015     536.88  <-- SCF
------------------------------------------------------------------------ <-- SCF
 
Final energy =  -343.1570775618     eV
(energy not corrected for finite basis set)
 

 ******************************** Symmetrised Forces ********************************
 *                                                                                  *
 *                           Cartesian components (eV/A)                            *
 * -------------------------------------------------------------------------------- *
 *                         x                    y                    z              *
 *                                                                                  *
 * H               1      0.00049             -0.00025              0.00005         *
 * H               2      0.00018             -0.00012              0.00010         *
 * H               3      0.00000             -0.00166              0.00000         *
 * H               4      0.00000              0.00086              0.00000         *
 * H               5     -0.00049             -0.00025             -0.00005         *
 * H               6     -0.00018             -0.00012             -0.00010         *
 * H               7      0.00049             -0.00025              0.00005         *
 * H               8      0.00018             -0.00012              0.00010         *
 * H               9     -0.00000             -0.00166              0.00000         *
 * H              10      0.00000              0.00086              0.00000         *
 * H              11     -0.00049             -0.00025             -0.00005         *
 * H              12     -0.00018             -0.00012             -0.00010         *
 * H              13     -0.00049              0.00025             -0.00005         *
 * H              14     -0.00018              0.00012             -0.00010         *
 * H              15      0.00000              0.00166             -0.00000         *
 * H              16      0.00000             -0.00086             -0.00000         *
 * H              17      0.00049              0.00025              0.00005         *
 * H              18      0.00018              0.00012              0.00010         *
 * H              19     -0.00049              0.00025             -0.00005         *
 * H              20     -0.00018              0.00012             -0.00010         *
 * H              21      0.00000              0.00166              0.00000         *
 * H              22      0.00000             -0.00086             -0.00000         *
 * H              23      0.00049              0.00025              0.00005         *
 * H              24      0.00018              0.00012              0.00010         *
 *                                                                                  *
 ************************************************************************************

 *********** Symmetrised Stress Tensor ***********
 *                                               *
 *          Cartesian components (GPa)           *
 * --------------------------------------------- *
 *             x             y             z     *
 *                                               *
 *  x   -299.965279      0.000000     -0.000029  *
 *  y      0.000000   -299.970592      0.000000  *
 *  z     -0.000029      0.000000   -299.960684  *
 *                                               *
 *  Pressure:  299.9655                          *
 *                                               *
 *************************************************
  
 +------------+-------------+-------------+-----------------+ <-- min LBFGS
 |    Step    |   lambda    |   F.delta'  |    enthalpy     | <-- min LBFGS
 +------------+-------------+-------------+-----------------+ <-- min LBFGS
 |  previous  |    0.000000 |    0.000578 |     -277.520010 | <-- min LBFGS
 | trial step |    1.000000 |   -0.000472 |     -277.520010 | <-- min LBFGS
 +------------+-------------+-------------+-----------------+ <-- min LBFGS
  

--------------------------------------------------------------------------------
 LBFGS: improving iteration         3 with line minimization (lambda=  0.550337)
--------------------------------------------------------------------------------

                           -------------------------------
                                      Unit Cell
                           -------------------------------
        Real Lattice(A)              Reciprocal Lattice(1/A)
     4.8293454     0.0000000    -0.0217516        1.307934487   0.000000000   1.530098652
     0.0000000     2.6506196     0.0000000        0.000000000   2.370459050   0.000000000
    -3.2204668     0.0000000     2.7528680        0.010334544   0.000000000   2.294504302

                       Lattice parameters(A)       Cell Angles
                    a =      4.829394          alpha =   90.000000
                    b =      2.650620          beta  =  139.734106
                    c =      4.236707          gamma =   90.000000

                Current cell volume =            35.053119 A**3

                           -------------------------------
                                     Cell Contents
                           -------------------------------

            xxxxxxxxxxxxxxxxxxxxxxxxxxxxxxxxxxxxxxxxxxxxxxxxxxxxxxxxxxxxxxxxx
            x  Element         Atom        Fractional coordinates of atoms  x
            x                 Number           u          v          w      x
            x---------------------------------------------------------------x
            x  H                 1         0.188381  -0.086610   0.252374   x
            x  H                 2         0.352179   0.122976   0.250879   x
            x  H                 3         0.500000   0.133827   0.750000   x
            x  H                 4         0.500000   0.428822   0.750000   x
            x  H                 5         0.811619  -0.086610   0.247626   x
            x  H                 6         0.647821   0.122976   0.249121   x
            x  H                 7         0.688381   0.413390   0.252374   x
            x  H                 8         0.852179   0.622976   0.250879   x
            x  H                 9         0.000000   0.633827   0.750000   x
            x  H                10         0.000000   0.928822   0.750000   x
            x  H                11         0.311619   0.413390   0.247626   x
            x  H                12         0.147821   0.622976   0.249121   x
            x  H                13         0.311619   0.586610   0.747626   x
            x  H                14         0.147821   0.377024   0.749121   x
            x  H                15        -0.000000   0.366173   0.250000   x
            x  H                16         0.000000   0.071178   0.250000   x
            x  H                17         0.688381   0.586610   0.752374   x
            x  H                18         0.852179   0.377024   0.750879   x
            x  H                19         0.811619   1.086610   0.747626   x
            x  H                20         0.647821   0.877024   0.749121   x
            x  H                21         0.500000   0.866173   0.250000   x
            x  H                22         0.500000   0.571178   0.250000   x
            x  H                23         0.188381   1.086610   0.752374   x
            x  H                24         0.352179   0.877024   0.750879   x
            xxxxxxxxxxxxxxxxxxxxxxxxxxxxxxxxxxxxxxxxxxxxxxxxxxxxxxxxxxxxxxxxx


------------------------------------------------------------------------ <-- SCF
SCF loop      Energy                           Energy gain       Timer   <-- SCF
                                               per atom          (sec)   <-- SCF
------------------------------------------------------------------------ <-- SCF
Initial  -3.43155169E+002                                        554.87  <-- SCF
      1  -3.43155171E+002                    7.55915742E-008     562.75  <-- SCF
      2  -3.43155171E+002                    2.63592449E-010     574.35  <-- SCF
      3  -3.43155170E+002                   -6.23722207E-009     585.37  <-- SCF
      4  -3.43155170E+002                   -1.27869840E-010     594.85  <-- SCF
      5  -3.43155170E+002                    1.75222102E-013     603.82  <-- SCF
      6  -3.43155170E+002                    1.93348527E-013     613.53  <-- SCF
------------------------------------------------------------------------ <-- SCF
 
Final energy =  -343.1551704438     eV
(energy not corrected for finite basis set)
 

 ******************************** Symmetrised Forces ********************************
 *                                                                                  *
 *                           Cartesian components (eV/A)                            *
 * -------------------------------------------------------------------------------- *
 *                         x                    y                    z              *
 *                                                                                  *
 * H               1      0.00009             -0.00040             -0.00001         *
 * H               2     -0.00003              0.00042              0.00004         *
 * H               3      0.00000             -0.00005              0.00000         *
 * H               4      0.00000              0.00004              0.00000         *
 * H               5     -0.00009             -0.00040              0.00001         *
 * H               6      0.00003              0.00042             -0.00004         *
 * H               7      0.00009             -0.00040             -0.00001         *
 * H               8     -0.00003              0.00042              0.00004         *
 * H               9     -0.00000             -0.00005              0.00000         *
 * H              10      0.00000              0.00004              0.00000         *
 * H              11     -0.00009             -0.00040              0.00001         *
 * H              12      0.00003              0.00042             -0.00004         *
 * H              13     -0.00009              0.00040              0.00001         *
 * H              14      0.00003             -0.00042             -0.00004         *
 * H              15      0.00000              0.00005              0.00000         *
 * H              16      0.00000             -0.00004             -0.00000         *
 * H              17      0.00009              0.00040             -0.00001         *
 * H              18     -0.00003             -0.00042              0.00004         *
 * H              19     -0.00009              0.00040              0.00001         *
 * H              20      0.00003             -0.00042             -0.00004         *
 * H              21      0.00000              0.00005              0.00000         *
 * H              22      0.00000             -0.00004             -0.00000         *
 * H              23      0.00009              0.00040             -0.00001         *
 * H              24     -0.00003             -0.00042              0.00004         *
 *                                                                                  *
 ************************************************************************************

 *********** Symmetrised Stress Tensor ***********
 *                                               *
 *          Cartesian components (GPa)           *
 * --------------------------------------------- *
 *             x             y             z     *
 *                                               *
 *  x   -299.982440      0.000000     -0.000491  *
 *  y      0.000000   -299.966548      0.000000  *
 *  z     -0.000491      0.000000   -299.993863  *
 *                                               *
 *  Pressure:  299.9810                          *
 *                                               *
 *************************************************
  
 +------------+-------------+-------------+-----------------+ <-- min LBFGS
 |    Step    |   lambda    |   F.delta'  |    enthalpy     | <-- min LBFGS
 +------------+-------------+-------------+-----------------+ <-- min LBFGS
 |  previous  |    0.000000 |    0.000578 |     -277.520010 | <-- min LBFGS
 | trial step |    1.000000 |   -0.000472 |     -277.520010 | <-- min LBFGS
 |  line step |    0.550337 | -1.910E-007 |     -277.520011 | <-- min LBFGS
 +------------+-------------+-------------+-----------------+ <-- min LBFGS
  
 LBFGS: finished iteration     3 with enthalpy= -2.77520011E+002 eV
  
 +-----------+-----------------+-----------------+------------+-----+ <-- LBFGS
 | Parameter |      value      |    tolerance    |    units   | OK? | <-- LBFGS
 +-----------+-----------------+-----------------+------------+-----+ <-- LBFGS
 |  dE/ion   |   2.030688E-008 |   1.000000E-009 |         eV | No  | <-- LBFGS
 |  |F|max   |   4.272035E-004 |   1.000000E-004 |       eV/A | No  | <-- LBFGS
 |  |dR|max  |   5.729452E-005 |   1.000000E-004 |          A | Yes | <-- LBFGS
 |   Smax    |   3.345238E-002 |   1.000000E-004 |        GPa | No  | <-- LBFGS
 +-----------+-----------------+-----------------+------------+-----+ <-- LBFGS
  

================================================================================
 Starting LBFGS iteration          4 ...
================================================================================
  
 +------------+-------------+-------------+-----------------+ <-- min LBFGS
 |    Step    |   lambda    |   F.delta'  |    enthalpy     | <-- min LBFGS
 +------------+-------------+-------------+-----------------+ <-- min LBFGS
 |  previous  |    0.000000 |    0.000235 |     -277.520011 | <-- min LBFGS
 +------------+-------------+-------------+-----------------+ <-- min LBFGS
  

--------------------------------------------------------------------------------
 LBFGS: starting iteration         4 with trial guess (lambda=  1.000000)
--------------------------------------------------------------------------------

                           -------------------------------
                                      Unit Cell
                           -------------------------------
        Real Lattice(A)              Reciprocal Lattice(1/A)
     4.8293208     0.0000000    -0.0217500        1.307940636   0.000000000   1.530097115
     0.0000000     2.6505853     0.0000000        0.000000000   2.370489754   0.000000000
    -3.2204495     0.0000000     2.7528689        0.010333842   0.000000000   2.294502640

                       Lattice parameters(A)       Cell Angles
                    a =      4.829370          alpha =   90.000000
                    b =      2.650585          beta  =  139.733927
                    c =      4.236695          gamma =   90.000000

                Current cell volume =            35.052512 A**3

                           -------------------------------
                                     Cell Contents
                           -------------------------------

            xxxxxxxxxxxxxxxxxxxxxxxxxxxxxxxxxxxxxxxxxxxxxxxxxxxxxxxxxxxxxxxxx
            x  Element         Atom        Fractional coordinates of atoms  x
            x                 Number           u          v          w      x
            x---------------------------------------------------------------x
            x  H                 1         0.188383  -0.086622   0.252373   x
            x  H                 2         0.352180   0.122989   0.250880   x
            x  H                 3         0.500000   0.133821   0.750000   x
            x  H                 4         0.500000   0.428827   0.750000   x
            x  H                 5         0.811617  -0.086622   0.247627   x
            x  H                 6         0.647820   0.122989   0.249120   x
            x  H                 7         0.688383   0.413378   0.252373   x
            x  H                 8         0.852180   0.622989   0.250880   x
            x  H                 9         0.000000   0.633821   0.750000   x
            x  H                10         0.000000   0.928827   0.750000   x
            x  H                11         0.311617   0.413378   0.247627   x
            x  H                12         0.147820   0.622989   0.249120   x
            x  H                13         0.311617   0.586622   0.747627   x
            x  H                14         0.147820   0.377011   0.749120   x
            x  H                15        -0.000000   0.366179   0.250000   x
            x  H                16         0.000000   0.071173   0.250000   x
            x  H                17         0.688383   0.586622   0.752373   x
            x  H                18         0.852180   0.377011   0.750880   x
            x  H                19         0.811617   1.086622   0.747627   x
            x  H                20         0.647820   0.877011   0.749120   x
            x  H                21         0.500000   0.866179   0.250000   x
            x  H                22         0.500000   0.571173   0.250000   x
            x  H                23         0.188383   1.086622   0.752373   x
            x  H                24         0.352180   0.877011   0.750880   x
            xxxxxxxxxxxxxxxxxxxxxxxxxxxxxxxxxxxxxxxxxxxxxxxxxxxxxxxxxxxxxxxxx


------------------------------------------------------------------------ <-- SCF
SCF loop      Energy                           Energy gain       Timer   <-- SCF
                                               per atom          (sec)   <-- SCF
------------------------------------------------------------------------ <-- SCF
Initial  -3.43154037E+002                                        630.80  <-- SCF
      1  -3.43154039E+002                    7.92762715E-008     637.80  <-- SCF
      2  -3.43154039E+002                    2.33486472E-010     648.57  <-- SCF
      3  -3.43154039E+002                   -7.54267305E-009     661.25  <-- SCF
      4  -3.43154039E+002                   -7.38953900E-011     673.19  <-- SCF
      5  -3.43154039E+002                    3.02107073E-014     682.23  <-- SCF
      6  -3.43154039E+002                    4.63230845E-014     690.29  <-- SCF
------------------------------------------------------------------------ <-- SCF
 
Final energy =  -343.1540386970     eV
(energy not corrected for finite basis set)
 

 ******************************** Symmetrised Forces ********************************
 *                                                                                  *
 *                           Cartesian components (eV/A)                            *
 * -------------------------------------------------------------------------------- *
 *                         x                    y                    z              *
 *                                                                                  *
 * H               1      0.00014              0.00078              0.00005         *
 * H               2      0.00038             -0.00081             -0.00002         *
 * H               3      0.00000              0.00096              0.00000         *
 * H               4      0.00000             -0.00101             -0.00000         *
 * H               5     -0.00014              0.00078             -0.00005         *
 * H               6     -0.00038             -0.00081              0.00002         *
 * H               7      0.00014              0.00078              0.00005         *
 * H               8      0.00038             -0.00081             -0.00002         *
 * H               9      0.00000              0.00096              0.00000         *
 * H              10      0.00000             -0.00101              0.00000         *
 * H              11     -0.00014              0.00078             -0.00005         *
 * H              12     -0.00038             -0.00081              0.00002         *
 * H              13     -0.00014             -0.00078             -0.00005         *
 * H              14     -0.00038              0.00081              0.00002         *
 * H              15      0.00000             -0.00096              0.00000         *
 * H              16     -0.00000              0.00101              0.00000         *
 * H              17      0.00014             -0.00078              0.00005         *
 * H              18      0.00038              0.00081             -0.00002         *
 * H              19     -0.00014             -0.00078             -0.00005         *
 * H              20     -0.00038              0.00081              0.00002         *
 * H              21      0.00000             -0.00096              0.00000         *
 * H              22      0.00000              0.00101              0.00000         *
 * H              23      0.00014             -0.00078              0.00005         *
 * H              24      0.00038              0.00081             -0.00002         *
 *                                                                                  *
 ************************************************************************************

 *********** Symmetrised Stress Tensor ***********
 *                                               *
 *          Cartesian components (GPa)           *
 * --------------------------------------------- *
 *             x             y             z     *
 *                                               *
 *  x   -300.000411      0.000000      0.000197  *
 *  y      0.000000   -300.010923      0.000000  *
 *  z      0.000197      0.000000   -299.991806  *
 *                                               *
 *  Pressure:  300.0010                          *
 *                                               *
 *************************************************
  
 +------------+-------------+-------------+-----------------+ <-- min LBFGS
 |    Step    |   lambda    |   F.delta'  |    enthalpy     | <-- min LBFGS
 +------------+-------------+-------------+-----------------+ <-- min LBFGS
 |  previous  |    0.000000 |    0.000235 |     -277.520011 | <-- min LBFGS
 | trial step |    1.000000 |   -0.000373 |     -277.520011 | <-- min LBFGS
 +------------+-------------+-------------+-----------------+ <-- min LBFGS
  

--------------------------------------------------------------------------------
 LBFGS: improving iteration         4 with line minimization (lambda=  0.386293)
--------------------------------------------------------------------------------

                           -------------------------------
                                      Unit Cell
                           -------------------------------
        Real Lattice(A)              Reciprocal Lattice(1/A)
     4.8293359     0.0000000    -0.0217510        1.307936862   0.000000000   1.530098058
     0.0000000     2.6506064     0.0000000        0.000000000   2.370470910   0.000000000
    -3.2204601     0.0000000     2.7528683        0.010334273   0.000000000   2.294503660

                       Lattice parameters(A)       Cell Angles
                    a =      4.829385          alpha =   90.000000
                    b =      2.650606          beta  =  139.734037
                    c =      4.236702          gamma =   90.000000

                Current cell volume =            35.052885 A**3

                           -------------------------------
                                     Cell Contents
                           -------------------------------

            xxxxxxxxxxxxxxxxxxxxxxxxxxxxxxxxxxxxxxxxxxxxxxxxxxxxxxxxxxxxxxxxx
            x  Element         Atom        Fractional coordinates of atoms  x
            x                 Number           u          v          w      x
            x---------------------------------------------------------------x
            x  H                 1         0.188382  -0.086615   0.252374   x
            x  H                 2         0.352179   0.122981   0.250879   x
            x  H                 3         0.500000   0.133824   0.750000   x
            x  H                 4         0.500000   0.428824   0.750000   x
            x  H                 5         0.811618  -0.086615   0.247626   x
            x  H                 6         0.647821   0.122981   0.249121   x
            x  H                 7         0.688382   0.413385   0.252374   x
            x  H                 8         0.852179   0.622981   0.250879   x
            x  H                 9         0.000000   0.633824   0.750000   x
            x  H                10         0.000000   0.928824   0.750000   x
            x  H                11         0.311618   0.413385   0.247626   x
            x  H                12         0.147821   0.622981   0.249121   x
            x  H                13         0.311618   0.586615   0.747626   x
            x  H                14         0.147821   0.377019   0.749121   x
            x  H                15        -0.000000   0.366176   0.250000   x
            x  H                16         0.000000   0.071176   0.250000   x
            x  H                17         0.688382   0.586615   0.752374   x
            x  H                18         0.852179   0.377019   0.750879   x
            x  H                19         0.811618   1.086615   0.747626   x
            x  H                20         0.647821   0.877019   0.749121   x
            x  H                21         0.500000   0.866176   0.250000   x
            x  H                22         0.500000   0.571176   0.250000   x
            x  H                23         0.188382   1.086615   0.752374   x
            x  H                24         0.352179   0.877019   0.750879   x
            xxxxxxxxxxxxxxxxxxxxxxxxxxxxxxxxxxxxxxxxxxxxxxxxxxxxxxxxxxxxxxxxx


------------------------------------------------------------------------ <-- SCF
SCF loop      Energy                           Energy gain       Timer   <-- SCF
                                               per atom          (sec)   <-- SCF
------------------------------------------------------------------------ <-- SCF
Initial  -3.43154733E+002                                        709.51  <-- SCF
      1  -3.43154733E+002                    2.98480942E-008     717.49  <-- SCF
      2  -3.43154733E+002                    8.79252425E-011     728.92  <-- SCF
      3  -3.43154733E+002                   -2.83889815E-009     741.61  <-- SCF
      4  -3.43154733E+002                   -2.90848549E-011     750.14  <-- SCF
      5  -3.43154733E+002                    1.08758546E-012     759.67  <-- SCF
      6  -3.43154733E+002                    2.11474951E-013     768.76  <-- SCF
------------------------------------------------------------------------ <-- SCF
 
Final energy =  -343.1547333636     eV
(energy not corrected for finite basis set)
 

 ******************************** Symmetrised Forces ********************************
 *                                                                                  *
 *                           Cartesian components (eV/A)                            *
 * -------------------------------------------------------------------------------- *
 *                         x                    y                    z              *
 *                                                                                  *
 * H               1      0.00011              0.00005              0.00001         *
 * H               2      0.00013             -0.00005              0.00002         *
 * H               3      0.00000              0.00034              0.00000         *
 * H               4      0.00000             -0.00037              0.00000         *
 * H               5     -0.00011              0.00005             -0.00001         *
 * H               6     -0.00013             -0.00005             -0.00002         *
 * H               7      0.00011              0.00005              0.00001         *
[...]
 *                                                                                  *
 ************************************************************************************

 *********** Symmetrised Stress Tensor ***********
 *                                               *
 *          Cartesian components (GPa)           *
 * --------------------------------------------- *
 *             x             y             z     *
 *                                               *
 *  x    -30.000007      0.000000      0.000003  *
 *  y      0.000000    -29.999994      0.000000  *
 *  z      0.000003      0.000000    -30.000003  *
 *                                               *
 *  Pressure:   30.0000                          *
 *                                               *
 *************************************************

 Pseudo atomic calculation performed for H 1s1

 Converged in 24 iterations to a total energy of -12.4843 eV

Charge spilling parameter for spin component 1 = 0.73%

            Orbital Populations       
     Ion    Atom   Orbital             Charge
  -------------------------------------------
      H     1      S                    1.000
      H     2      S                    1.000
      H     3      S                    1.000
      H     4      S                    1.000
      H     5      S                    1.000
      H     6      S                    1.000
      H     7      S                    1.000
      H     8      S                    1.000
      H     9      S                    1.000
      H    10      S                    1.000
      H    11      S                    1.000
      H    12      S                    1.000
      H    13      S                    1.000
      H    14      S                    1.000
      H    15      S                    1.000
      H    16      S                    1.000
      H    17      S                    1.000
      H    18      S                    1.000
      H    19      S                    1.000
      H    20      S                    1.000
      H    21      S                    1.000
      H    22      S                    1.000
      H    23      S                    1.000
      H    24      S                    1.000
  -------------------------------------------
                           Total:      24.000
  -------------------------------------------

     Atomic Populations (Mulliken)
     -----------------------------
Species          Ion     s      p      d      f     Total  Charge (e)
=====================================================================
  H               1     1.00   0.00   0.00   0.00   1.00    -0.00
  H               2     1.00   0.00   0.00   0.00   1.00    -0.00
  H               3     1.00   0.00   0.00   0.00   1.00     0.00
  H               4     1.00   0.00   0.00   0.00   1.00     0.00
  H               5     1.00   0.00   0.00   0.00   1.00    -0.00
  H               6     1.00   0.00   0.00   0.00   1.00    -0.00
  H               7     1.00   0.00   0.00   0.00   1.00    -0.00
  H               8     1.00   0.00   0.00   0.00   1.00    -0.00
  H               9     1.00   0.00   0.00   0.00   1.00     0.00
  H              10     1.00   0.00   0.00   0.00   1.00     0.00
  H              11     1.00   0.00   0.00   0.00   1.00    -0.00
  H              12     1.00   0.00   0.00   0.00   1.00    -0.00
  H              13     1.00   0.00   0.00   0.00   1.00    -0.00
  H              14     1.00   0.00   0.00   0.00   1.00    -0.00
  H              15     1.00   0.00   0.00   0.00   1.00     0.00
  H              16     1.00   0.00   0.00   0.00   1.00     0.00
  H              17     1.00   0.00   0.00   0.00   1.00    -0.00
  H              18     1.00   0.00   0.00   0.00   1.00    -0.00
  H              19     1.00   0.00   0.00   0.00   1.00    -0.00
  H              20     1.00   0.00   0.00   0.00   1.00    -0.00
  H              21     1.00   0.00   0.00   0.00   1.00     0.00
  H              22     1.00   0.00   0.00   0.00   1.00     0.00
  H              23     1.00   0.00   0.00   0.00   1.00    -0.00
  H              24     1.00   0.00   0.00   0.00   1.00    -0.00
=====================================================================

                 Bond                   Population      Length (A)
======================================================================
              H 21 -- H 22                   1.23        0.75266
              H 9  -- H 10                   1.23        0.75266
              H 15 -- H 16                   1.23        0.75266
              H 3  -- H 4                    1.23        0.75266
              H 17 -- H 20                   1.23        0.75266
              H 13 -- H 24                   1.23        0.75266
              H 5  -- H 8                    1.23        0.75266
              H 1  -- H 12                   1.23        0.75266
              H 18 -- H 19                   1.23        0.75266
              H 14 -- H 23                   1.23        0.75266
              H 6  -- H 7                    1.23        0.75266
              H 2  -- H 11                   1.23        0.75266
              H 2  -- H 21                  -0.06        1.48609
              H 12 -- H 15                  -0.06        1.48609
              H 8  -- H 15                  -0.06        1.48609
              H 6  -- H 21                  -0.06        1.48609
              H 3  -- H 24                  -0.06        1.48609
              H 9  -- H 14                  -0.06        1.48609
              H 9  -- H 18                  -0.06        1.48609
              H 3  -- H 20                  -0.06        1.48609
              H 11 -- H 22                  -0.06        1.48609
              H 10 -- H 23                  -0.06        1.48609
              H 1  -- H 16                  -0.06        1.48609
              H 4  -- H 13                  -0.06        1.48609
              H 7  -- H 22                  -0.06        1.48609
              H 5  -- H 16                  -0.06        1.48609
              H 4  -- H 17                  -0.06        1.48609
              H 10 -- H 19                  -0.06        1.48609
              H 7  -- H 8                   -0.06        1.48609
              H 17 -- H 18                  -0.06        1.48609
              H 13 -- H 14                  -0.06        1.48609
              H 5  -- H 6                   -0.06        1.48609
              H 11 -- H 12                  -0.06        1.48609
              H 19 -- H 20                  -0.06        1.48609
              H 1  -- H 2                   -0.06        1.48609
              H 23 -- H 24                  -0.06        1.48609
              H 12 -- H 18                  -0.01        2.03632
              H 8  -- H 14                  -0.01        2.03632
              H 6  -- H 24                  -0.01        2.03632
              H 2  -- H 20                  -0.01        2.03632
              H 7  -- H 13                  -0.01        2.03632
              H 11 -- H 17                  -0.01        2.03632
              H 1  -- H 19                  -0.01        2.03632
              H 5  -- H 23                  -0.01        2.03632
              H 9  -- H 11                  -0.01        2.03632
              H 3  -- H 5                   -0.01        2.03632
              H 15 -- H 17                  -0.01        2.03632
              H 13 -- H 15                  -0.01        2.03632
              H 7  -- H 9                   -0.01        2.03632
              H 1  -- H 3                   -0.01        2.03632
              H 21 -- H 23                  -0.01        2.03632
              H 19 -- H 21                  -0.01        2.03632
              H 6  -- H 10                  -0.01        2.03632
              H 2  -- H 10                  -0.01        2.03632
              H 4  -- H 12                  -0.01        2.03632
              H 4  -- H 8                   -0.01        2.03632
              H 18 -- H 22                  -0.01        2.03632
              H 14 -- H 22                  -0.01        2.03632
              H 16 -- H 24                  -0.01        2.03632
              H 16 -- H 20                  -0.01        2.03632
              H 2  -- H 22                  -0.15        2.05727
              H 6  -- H 22                  -0.15        2.05727
              H 10 -- H 14                  -0.15        2.05727
              H 12 -- H 16                  -0.15        2.05727
              H 10 -- H 18                  -0.15        2.05727
              H 8  -- H 16                  -0.15        2.05727
              H 4  -- H 24                  -0.15        2.05727
              H 4  -- H 20                  -0.15        2.05727
              H 11 -- H 21                  -0.15        2.05727
              H 7  -- H 21                  -0.15        2.05727
              H 9  -- H 23                  -0.15        2.05727
              H 1  -- H 15                  -0.15        2.05727
              H 3  -- H 13                  -0.15        2.05727
              H 9  -- H 19                  -0.15        2.05727
              H 5  -- H 15                  -0.15        2.05727
              H 3  -- H 17                  -0.15        2.05727
              H 5  -- H 7                   -0.15        2.05727
              H 17 -- H 19                  -0.15        2.05727
              H 1  -- H 11                  -0.15        2.05727
              H 13 -- H 23                  -0.15        2.05727
              H 18 -- H 20                  -0.15        2.05727
              H 14 -- H 24                  -0.15        2.05727
              H 6  -- H 8                   -0.15        2.05727
              H 2  -- H 12                  -0.15        2.05727
              H 4  -- H 7                   -0.06        2.11531
              H 17 -- H 22                  -0.06        2.11531
              H 16 -- H 19                  -0.06        2.11531
              H 1  -- H 10                  -0.06        2.11531
              H 5  -- H 10                  -0.06        2.11531
              H 13 -- H 22                  -0.06        2.11531
              H 4  -- H 11                  -0.06        2.11531
              H 16 -- H 23                  -0.06        2.11531
              H 20 -- H 21                  -0.06        2.11531
              H 15 -- H 18                  -0.06        2.11531
              H 14 -- H 15                  -0.06        2.11531
              H 21 -- H 24                  -0.06        2.11531
              H 8  -- H 9                   -0.06        2.11531
              H 3  -- H 6                   -0.06        2.11531
              H 9  -- H 12                  -0.06        2.11531
              H 2  -- H 3                   -0.06        2.11531
              H 2  -- H 23                  -0.06        2.11531
              H 12 -- H 13                  -0.06        2.11531
              H 8  -- H 17                  -0.06        2.11531
              H 6  -- H 19                  -0.06        2.11531
              H 11 -- H 14                  -0.06        2.11531
              H 1  -- H 24                  -0.06        2.11531
              H 5  -- H 20                  -0.06        2.11531
              H 7  -- H 18                  -0.06        2.11531
              H 5  -- H 24                  -0.12        2.11806
              H 7  -- H 14                  -0.12        2.11806
              H 2  -- H 19                  -0.12        2.11806
              H 12 -- H 17                  -0.12        2.11806
              H 11 -- H 18                  -0.12        2.11806
              H 8  -- H 13                  -0.12        2.11806
              H 6  -- H 23                  -0.12        2.11806
              H 1  -- H 20                  -0.12        2.11806
              H 10 -- H 21                  -0.12        2.11806
              H 9  -- H 22                  -0.12        2.11806
              H 4  -- H 15                  -0.12        2.11806
              H 3  -- H 16                  -0.12        2.11806
              H 22 -- H 24                  -0.05        2.24523
              H 20 -- H 22                  -0.05        2.24523
              H 16 -- H 18                  -0.05        2.24523
              H 14 -- H 16                  -0.05        2.24523
              H 8  -- H 10                  -0.05        2.24523
              H 10 -- H 12                  -0.05        2.24523
              H 4  -- H 6                   -0.05        2.24523
              H 2  -- H 4                   -0.05        2.24523
              H 3  -- H 7                   -0.05        2.24523
              H 17 -- H 21                  -0.05        2.24523
              H 15 -- H 19                  -0.05        2.24523
              H 5  -- H 9                   -0.05        2.24523
              H 1  -- H 9                   -0.05        2.24523
              H 13 -- H 21                  -0.05        2.24523
              H 15 -- H 23                  -0.05        2.24523
              H 3  -- H 11                  -0.05        2.24523
              H 12 -- H 24                  -0.05        2.24523
              H 8  -- H 20                  -0.05        2.24523
              H 2  -- H 14                  -0.05        2.24523
              H 6  -- H 18                  -0.05        2.24523
              H 11 -- H 23                  -0.05        2.24523
              H 1  -- H 13                  -0.05        2.24523
              H 5  -- H 17                  -0.05        2.24523
              H 7  -- H 19                  -0.05        2.24523
              H 10 -- H 22                  -0.11        2.24781
              H 4  -- H 16                  -0.11        2.24781
              H 9  -- H 21                  -0.11        2.24781
              H 3  -- H 15                  -0.11        2.24781
              H 1  -- H 17                  -0.11        2.24781
              H 7  -- H 23                  -0.11        2.24781
              H 5  -- H 13                  -0.11        2.24781
              H 11 -- H 19                  -0.11        2.24781
              H 8  -- H 24                  -0.11        2.24781
              H 12 -- H 20                  -0.11        2.24781
              H 6  -- H 14                  -0.11        2.24781
              H 2  -- H 18                  -0.11        2.24781
              H 2  -- H 6                   -0.02        2.25487
              H 8  -- H 12                  -0.02        2.25487
              H 20 -- H 24                  -0.02        2.25487
              H 14 -- H 18                  -0.02        2.25487
              H 19 -- H 23                  -0.02        2.25487
              H 1  -- H 5                   -0.02        2.25487
              H 13 -- H 17                  -0.02        2.25487
              H 7  -- H 11                  -0.02        2.25487
              H 7  -- H 15                  -0.02        2.25487
              H 9  -- H 17                  -0.02        2.25487
              H 5  -- H 21                  -0.02        2.25487
              H 3  -- H 19                  -0.02        2.25487
              H 11 -- H 15                  -0.02        2.25487
              H 9  -- H 13                  -0.02        2.25487
              H 1  -- H 21                  -0.02        2.25487
              H 3  -- H 23                  -0.02        2.25487
              H 4  -- H 18                  -0.02        2.25487
              H 10 -- H 20                  -0.02        2.25487
              H 4  -- H 14                  -0.02        2.25487
              H 10 -- H 24                  -0.02        2.25487
              H 8  -- H 22                  -0.02        2.25487
              H 12 -- H 22                  -0.02        2.25487
              H 6  -- H 16                  -0.02        2.25487
              H 2  -- H 16                  -0.02        2.25487
              H 1  -- H 8                   -0.03        2.37717
              H 18 -- H 23                  -0.03        2.37717
              H 5  -- H 12                  -0.03        2.37717
              H 6  -- H 11                  -0.03        2.37717
              H 13 -- H 20                  -0.03        2.37717
              H 17 -- H 24                  -0.03        2.37717
              H 14 -- H 19                  -0.03        2.37717
              H 2  -- H 7                   -0.03        2.37717
              H 7  -- H 16                  -0.03        2.37717
              H 4  -- H 19                  -0.03        2.37717
              H 5  -- H 22                  -0.03        2.37717
              H 10 -- H 17                  -0.03        2.37717
              H 10 -- H 13                  -0.03        2.37717
              H 11 -- H 16                  -0.03        2.37717
              H 1  -- H 22                  -0.03        2.37717
              H 4  -- H 23                  -0.03        2.37717
              H 9  -- H 20                  -0.03        2.37717
              H 9  -- H 24                  -0.03        2.37717
              H 3  -- H 18                  -0.03        2.37717
              H 3  -- H 14                  -0.03        2.37717
              H 8  -- H 21                  -0.03        2.37717
              H 12 -- H 21                  -0.03        2.37717
              H 6  -- H 15                  -0.03        2.37717
              H 2  -- H 15                  -0.03        2.37717
              H 1  -- H 18                  -0.00        2.48405
              H 5  -- H 14                  -0.00        2.48405
              H 6  -- H 13                  -0.00        2.48405
              H 2  -- H 17                  -0.00        2.48405
              H 12 -- H 19                  -0.00        2.48405
              H 8  -- H 23                  -0.00        2.48405
              H 7  -- H 24                  -0.00        2.48405
              H 11 -- H 20                  -0.00        2.48405
              H 10 -- H 11                  -0.00        2.48405
              H 7  -- H 10                  -0.00        2.48405
              H 16 -- H 17                  -0.00        2.48405
              H 13 -- H 16                  -0.00        2.48405
              H 4  -- H 5                   -0.00        2.48405
              H 22 -- H 23                  -0.00        2.48405
              H 19 -- H 22                  -0.00        2.48405
              H 1  -- H 4                   -0.00        2.48405
              H 6  -- H 9                   -0.00        2.48405
              H 2  -- H 9                   -0.00        2.48405
              H 18 -- H 21                  -0.00        2.48405
              H 14 -- H 21                  -0.00        2.48405
              H 3  -- H 12                  -0.00        2.48405
              H 3  -- H 8                   -0.00        2.48405
              H 15 -- H 24                  -0.00        2.48405
              H 15 -- H 20                  -0.00        2.48405
======================================================================


Writing analysis data to C2c.castep_bin

Writing model to C2c.check
 
 A BibTeX formatted list of references used in this run has been written to 
 C2c.bib
 
Initialisation time =      2.72 s
Calculation time    =    180.22 s
Finalisation time   =      0.44 s
Total time          =    183.37 s
Peak Memory Use     = 453616 kB
  
Overall parallel efficiency rating: Good (74%)                                  
  
Data was distributed by:-
G-vector (8-way); efficiency rating: Good (76%)                                 
k-point (2-way); efficiency rating: Excellent (97%)                             
  
Parallel notes:
1) Calculation only took 183.0 s, so efficiency estimates may be inaccurate.    
