 +-------------------------------------------------+
 |                                                 |
 |      CCC   AA    SSS  TTTTT  EEEEE  PPPP        |
 |     C     A  A  S       T    E      P   P       |
 |     C     AAAA   SS     T    EEE    PPPP        |
 |     C     A  A     S    T    E      P           |
 |      CCC  A  A  SSS     T    EEEEE  P           |
 |                                                 |
 +-------------------------------------------------+
 |                                                 |
 | Welcome to Academic Release CASTEP version 18.1 |          
 | Ab Initio Total Energy Program                  |
 |                                                 |
 | Authors:                                        |
 | M. Segall, M. Probert, C. Pickard, P. Hasnip,   |
 | S. Clark, K. Refson, J. R. Yates, M. Payne      |
 |                                                 |
 | Contributors:                                   |
 | P. Lindan, P. Haynes, J. White, V. Milman,      |
 | N. Govind, M. Gibson, P. Tulip, V. Cocula,      |
 | B. Montanari, D. Quigley, M. Glover,            |
 | L. Bernasconi, A. Perlov, M. Plummer,           |
 | E. McNellis, J. Meyer, J. Gale, D. Jochym       |
 | J. Aarons, B. Walker, R. Gillen, D. Jones       |
 | T. Green, I. J. Bush, C. J. Armstrong,          |
 | E. J. Higgins, E. L. Brown, M. S. McFly,        |
 | J. Wilkins, B-C. Shih, P. J. P. Byrne           |
 |                                                 |
 | Copyright (c) 2000 - 2017                       |
 |                                                 |
 |     Distributed under the terms of an           |
 |     Agreement between the United Kingdom        |
 |     Car-Parrinello (UKCP) Consortium,           |
 |     Daresbury Laboratory and Accelrys, Inc.     |
 |                                                 |
 | Please cite                                     |
 |                                                 |
 |     "First principles methods using CASTEP"     |
 |                                                 |
 |         Zeitschrift fuer Kristallographie       |
 |           220(5-6) pp. 567-570 (2005)           |
 |                                                 |
 | S. J. Clark, M. D. Segall, C. J. Pickard,       |
 | P. J. Hasnip, M. J. Probert, K. Refson,         |
 | M. C. Payne                                     |
 |                                                 |
 |       in all publications arising from          |
 |              your use of CASTEP                 |
 |                                                 |
 +-------------------------------------------------+


 Compiled for linux_x86_64_gfortran4.8 on Thu, 19 Jul 2018 15:42:32 +0100
 from code version 70483bd0ad64+  Sun, 10 Dec 2017 12:18:29 +0000
 Compiler: GNU Fortran 4.8.5; Optimisation: fast
 MATHLIBS: Intel MKL(2018.0.0) (LAPACK version 3.7.0)
 FFT Lib : mkl
 Fundamental constants values: CODATA 2014

 Run started: Mon, 24 Aug 2020 17:29:51 +0100

 Atomic calculation performed for N: 1s2 2s2 2p3

 Converged in 57 iterations to an ae energy of -1470.881 eV

   ============================================================                
   | Pseudopotential Report - Date of generation 24-08-2020   |                
   ------------------------------------------------------------                
   | Element: N Ionic charge:  5.00 Level of theory: LDA      |                
   | Atomic Solver: Koelling-Harmon                           |                
   |                                                          |                
   |               Reference Electronic Structure             |                
   |         Orbital         Occupation         Energy        |                
   |            2s              2.000           -0.677        |                
   |            2p              3.000           -0.266        |                
   |                                                          |                
   |                 Pseudopotential Definition               |                
   |        Beta     l      e      Rc     scheme   norm       |                
   |          1      0   -0.677   1.100     qc      0         |                
   |          2      0    0.250   1.100     qc      0         |                
   |          3      1   -0.266   1.100     qc      0         |                
   |          4      1    0.250   1.100     qc      0         |                
   |         loc     2    0.000   1.100     pn      0         |                
   |                                                          |                
   | Augmentation charge Rinner = 0.769                       |                
   | Partial core correction Rc = 0.769                       |                
   ------------------------------------------------------------                
   | "2|1.1|14|16|18|20:21(qc=7)"                             |                
   ------------------------------------------------------------                
   |      Author: Chris J. Pickard, Cambridge University      |                
   ============================================================                

 Pseudo atomic calculation performed for N 2s2 2p3

 Converged in 21 iterations to a total energy of -264.6048 eV

 Calculation parallelised over 16 processes.
 Data is distributed by G-vector(16-way)

 ************************************ Title ************************************
 

 ***************************** General Parameters ******************************
  
 output verbosity                               : normal  (1)
 write checkpoint data to                       : N2.check
 type of calculation                            : molecular dynamics
 stress calculation                             : off
 density difference calculation                 : off
 electron localisation func (ELF) calculation   : off
 Hirshfeld analysis                             : off
 unlimited duration calculation
 timing information                             : on
 memory usage estimate                          : on
 write extra output files                       : on
 write final potential to formatted file        : off
 write final density to formatted file          : off
 write BibTeX reference list                    : on
 write OTFG pseudopotential files               : on
 write electrostatic potential file             : on
 write bands file                               : on
 checkpoint writing                             : both castep_bin and check files
  
 output         length unit                     : A
 output           mass unit                     : amu
 output           time unit                     : ps
 output         charge unit                     : e
 output           spin unit                     : hbar/2
 output         energy unit                     : eV
 output          force unit                     : eV/A
 output       velocity unit                     : A/ps
 output       pressure unit                     : GPa
 output     inv_length unit                     : 1/A
 output      frequency unit                     : cm-1
 output force constant unit                     : eV/A**2
 output         volume unit                     : A**3
 output   IR intensity unit                     : (D/A)**2/amu
 output         dipole unit                     : D
 output         efield unit                     : eV/A/e
 output        entropy unit                     : J/mol/K
  
 wavefunctions paging                           : none
 random number generator seed                   : randomised (172951463)
 data distribution                              : optimal for this architecture
 optimization strategy                          : maximize speed(+++)

 *********************** Exchange-Correlation Parameters ***********************
  
 using functional                               : Local Density Approximation
 relativistic treatment                         : Koelling-Harmon
 DFT+D: Semi-empirical dispersion correction    : off

 ************************* Pseudopotential Parameters **************************
  
 pseudopotential representation                 : reciprocal space
 <beta|phi> representation                      : reciprocal space
 spin-orbit coupling                            : off

 **************************** Basis Set Parameters *****************************
  
 plane wave basis set cut-off                   :   300.0000   eV
 size of standard grid                          :     1.7500
 size of   fine   gmax                          :    15.5288   1/A
 finite basis set correction                    : none

 **************************** Electronic Parameters ****************************
  
 number of  electrons                           :  10.00    
 net charge of system                           :  0.000    
 treating system as non-spin-polarized
 number of bands                                :          9

 ********************* Electronic Minimization Parameters **********************
  
 Method: Treating system as metallic with density mixing treatment of electrons,
         and number of  SD  steps               :          1
         and number of  CG  steps               :          4
  
 total energy / atom convergence tol.           : 0.1000E-04   eV
 eigen-energy convergence tolerance             : 0.1000E-05   eV
 max force / atom convergence tol.              : ignored
 convergence tolerance window                   :          3   cycles
 max. number of SCF cycles                      :         30
 number of fixed-spin iterations                :         10
 smearing scheme                                : Gaussian
 smearing width                                 : 0.2000       eV
 Fermi energy convergence tolerance             : 0.2721E-13   eV
 periodic dipole correction                     : NONE

 ************************** Density Mixing Parameters **************************
  
 density-mixing scheme                          : Broyden
 max. length of mixing history                  :         20
 charge density mixing amplitude                : 0.8000    
 cut-off energy for mixing                      :  300.0       eV

 *********************** Population Analysis Parameters ************************
  
 Population analysis with cutoff                :  3.000       A
 Population analysis output                     : summary and pdos components

 ************************ Molecular Dynamics Parameters ************************
  
 ensemble                                       : NVT
 temperature                                    :  300.0       K
 using                                          : Langevin thermostat
 with characteristic ionic time                 : 0.1000       ps
 path integral MD                               : OFF
 time step                                      : 0.1000E-02   ps
 number of MD steps                             :       1000
 ab initio properties sampled every             :          0   MD steps
 enhanced equilibration method                  : NONE
 using best-fit first order extrapolation for wavefunctions and charge density
 backup results every                           :          5   steps
  
 MD SCF energy / atom convergence tol.          : 0.1000E-04   eV
 MD SCF eigenenergies tolerance                 : 0.1000E-05   eV
 MD SCF convergence tolerance window            :          3   cycles
 write MD trajectory file                       : on

 *******************************************************************************
  

                           -------------------------------
                                      Unit Cell
                           -------------------------------
        Real Lattice(A)                      Reciprocal Lattice(1/A)
    10.0000000     0.0000000     0.0000000        0.628318531  -0.000000000  -0.000000000
     0.0000000    10.0000000     0.0000000        0.000000000   0.628318531  -0.000000000
     0.0000000     0.0000000    10.0000000        0.000000000   0.000000000   0.628318531

                       Lattice parameters(A)       Cell Angles
                    a =     10.000000          alpha =   90.000000
                    b =     10.000000          beta  =   90.000000
                    c =     10.000000          gamma =   90.000000

                       Current cell volume =          1000.000000       A**3
                                   density =             0.028013   AMU/A**3
                                           =             0.046517     g/cm^3

                           -------------------------------
                                     Cell Contents
                           -------------------------------
                         Total number of ions in cell =    2
                      Total number of species in cell =    1
                        Max number of any one species =    2

            xxxxxxxxxxxxxxxxxxxxxxxxxxxxxxxxxxxxxxxxxxxxxxxxxxxxxxxxxxxx
            x  Element    Atom        Fractional coordinates of atoms  x
            x            Number           u          v          w      x
            x----------------------------------------------------------x
            x  N            1         0.500000   0.500000   0.500000   x 
            x  N            2         0.615000   0.615000   0.615000   x 
            xxxxxxxxxxxxxxxxxxxxxxxxxxxxxxxxxxxxxxxxxxxxxxxxxxxxxxxxxxxx


                         No user defined ionic velocities

                           -------------------------------
                                   Details of Species
                           -------------------------------

                               Mass of species in AMU
                                    N   14.0067400

                          Electric Quadrupole Moment (Barn)
                                    N    0.0204400 Isotope 14

                          Files used for pseudopotentials:
                                    N 2|1.1|14|16|18|20:21(qc=7)

                           -------------------------------
                              k-Points For BZ Sampling
                           -------------------------------
                       MP grid size for SCF calculation is  1  1  1
                            with an offset of   0.000  0.000  0.000
                       Number of kpoints used =             1

                           -------------------------------
                               Symmetry and Constraints
                           -------------------------------

                      Maximum deviation from symmetry =  0.00000         ANG

                      Number of symmetry operations   =           1
                      Number of ionic constraints     =           3
                      Point group of crystal =     1: C1, 1, 1
                      Space group of crystal =   166: R-3m, -R 3 2"

             Set iprint > 1 for details on symmetry rotations/translations

                         Centre of mass is constrained
             Set iprint > 1 for details of linear ionic constraints

                         Number of cell constraints= 6
                         Cell constraints are:  0 0 0 0 0 0

                         External pressure/stress (GPa)
                          0.00000   0.00000   0.00000
                                    0.00000   0.00000
                                              0.00000
  
+---------------- MEMORY AND SCRATCH DISK ESTIMATES PER PROCESS --------------+
|                                                     Memory          Disk    |
| Baseline code, static data and system overhead      408.0 MB         0.0 MB |
| BLAS internal memory storage                          0.0 MB         0.0 MB |
| Model and support data                                7.3 MB         0.0 MB |
| Electronic energy minimisation requirements           2.2 MB         0.0 MB |
| Force calculation requirements                        0.9 MB         0.0 MB |
|                                               ----------------------------- |
| Approx. total storage required per process          417.5 MB         0.0 MB |
|                                                                             |
| Requirements will fluctuate during execution and may exceed these estimates |
+-----------------------------------------------------------------------------+
Calculating total energy with cut-off of  300.000 eV.
------------------------------------------------------------------------ <-- SCF
SCF loop      Energy           Fermi           Energy gain       Timer   <-- SCF
                               energy          per atom          (sec)   <-- SCF
------------------------------------------------------------------------ <-- SCF
Initial  -3.37901669E+002  0.00000000E+000                         8.05  <-- SCF
 Warning: There are no empty bands for at least one kpoint and spin; this may
          slow the convergence and/or lead to an inaccurate groundstate.
          If this warning persists, you should consider increasing nextra_bands
          and/or reducing smearing_width in the param file.
          Recommend using nextra_bands of 5 to 9.                                
      1  -4.56179491E+002  5.39797743E+000   5.91389111E+001       8.16  <-- SCF
      2  -5.30792954E+002 -6.87079575E+000   3.73067316E+001       8.22  <-- SCF
      3  -5.36182737E+002 -7.03760611E+000   2.69489139E+000       8.27  <-- SCF
      4  -5.37041938E+002 -7.24334974E+000   4.29600766E-001       8.35  <-- SCF
      5  -5.36683489E+002 -7.21975122E+000  -1.79224474E-001       8.41  <-- SCF
      6  -5.36785215E+002 -7.16441123E+000   5.08629537E-002       8.47  <-- SCF
      7  -5.36484538E+002 -7.14320417E+000  -1.50338878E-001       8.53  <-- SCF
      8  -5.36542474E+002 -7.19345208E+000   2.89683318E-002       8.60  <-- SCF
      9  -5.36578950E+002 -7.16457253E+000   1.82376070E-002       8.67  <-- SCF
     10  -5.36586780E+002 -7.16715061E+000   3.91534715E-003       8.73  <-- SCF
     11  -5.36587318E+002 -7.16238779E+000   2.68712648E-004       8.78  <-- SCF
     12  -5.36587934E+002 -7.15471765E+000   3.08020955E-004       8.83  <-- SCF
     13  -5.36588214E+002 -7.15054736E+000   1.40119956E-004       8.88  <-- SCF
     14  -5.36588246E+002 -7.15009807E+000   1.60377228E-005       8.96  <-- SCF
     15  -5.36588621E+002 -7.14670697E+000   1.87747266E-004       9.01  <-- SCF
     16  -5.36588669E+002 -7.14631985E+000   2.39108919E-005       9.07  <-- SCF
     17  -5.36588717E+002 -7.14573652E+000   2.38637563E-005       9.13  <-- SCF
     18  -5.36588783E+002 -7.14511312E+000   3.30698835E-005       9.20  <-- SCF
     19  -5.36588804E+002 -7.14457417E+000   1.03192926E-005       9.26  <-- SCF
     20  -5.36588820E+002 -7.14449959E+000   7.89440483E-006       9.32  <-- SCF
     21  -5.36588827E+002 -7.14450429E+000   3.85947035E-006       9.37  <-- SCF
     22  -5.36588834E+002 -7.14451826E+000   3.52863903E-006       9.43  <-- SCF
------------------------------------------------------------------------ <-- SCF
 
Final energy, E             =  -536.5888342503     eV
Final free energy (E-TS)    =  -536.5888343694     eV
(energies not corrected for finite basis set)
 
NB est. 0K energy (E-0.5TS)      =  -536.5888343098     eV
 

Writing analysis data to N2.castep_bin

Writing model to N2.check
 Starting MD

 ************************************** Forces **************************************
 *                                                                                  *
 *                           Cartesian components (eV/A)                            *
 * -------------------------------------------------------------------------------- *
 *                         x                    y                    z              *
 *                                                                                  *
 * N               1      4.60843              4.60843              4.60843         *
 * N               2     -4.60843             -4.60843             -4.60843         *
 *                                                                                  *
 ************************************************************************************
  
            xxxxxxxxxxxxxxxxxxxxxxxxxxxxxxxxxxxxxxxxxxxxxxxxxxxxxxxxxxxxxx
            x                                               MD Data:     x
            x                                                            x
            x              time :      0.000000                   ps     x
            x                                                            x
            x   Potential Energy:   -536.588834                   eV     x
            x   Kinetic   Energy:      0.038778                   eV     x
            x   Total     Energy:   -536.550056                   eV     x
            x   Hamilt    Energy:   -536.550056                   eV     x
            x                                                            x
            x        Temperature:    300.000000                    K     x
            xxxxxxxxxxxxxxxxxxxxxxxxxxxxxxxxxxxxxxxxxxxxxxxxxxxxxxxxxxxxxx


================================================================================
 Starting MD iteration          1 ...
================================================================================
 
+---------------- MEMORY AND SCRATCH DISK ESTIMATES PER PROCESS --------------+
|                                                     Memory          Disk    |
| Model and support data                               18.1 MB         0.0 MB |
| Molecular Dynamics requirements                       2.5 MB         0.0 MB |
|                                               ----------------------------- |
| Approx. total storage required per process           20.7 MB         0.0 MB |
|                                                                             |
| Requirements will fluctuate during execution and may exceed these estimates |
+-----------------------------------------------------------------------------+
 

                           -------------------------------
                                     Cell Contents
                           -------------------------------

            xxxxxxxxxxxxxxxxxxxxxxxxxxxxxxxxxxxxxxxxxxxxxxxxxxxxxxxxxxxxxx
            x  Element    Atom        Fractional coordinates of atoms    x
            x            Number           u          v          w        x
            x------------------------------------------------------------x
            x   N          1          0.500455   0.499861   0.499861     x
            x   N          2          0.614545   0.615139   0.615139     x
            xxxxxxxxxxxxxxxxxxxxxxxxxxxxxxxxxxxxxxxxxxxxxxxxxxxxxxxxxxxxxx

------------------------------------------------------------------------ <-- SCF
SCF loop      Energy           Fermi           Energy gain       Timer   <-- SCF
                               energy          per atom          (sec)   <-- SCF
------------------------------------------------------------------------ <-- SCF
Initial  -5.36601992E+002  0.00000000E+000                         9.72  <-- SCF
      1  -5.36605015E+002 -7.14525049E+000   1.51153811E-003       9.77  <-- SCF
      2  -5.36605040E+002 -7.14525709E+000   1.25937229E-005       9.82  <-- SCF
      3  -5.36604997E+002 -7.14423629E+000  -2.12769547E-005       9.88  <-- SCF
      4  -5.36605039E+002 -7.14425190E+000   2.07608382E-005       9.93  <-- SCF
      5  -5.36604999E+002 -7.14425058E+000  -1.99933984E-005       9.98  <-- SCF
      6  -5.36605036E+002 -7.14433836E+000   1.86153873E-005      10.02  <-- SCF
      7  -5.36605041E+002 -7.14437217E+000   2.33139673E-006      10.08  <-- SCF
      8  -5.36605041E+002 -7.14437361E+000   8.09505811E-008      10.12  <-- SCF
------------------------------------------------------------------------ <-- SCF
 
Final energy, E             =  -536.6050409111     eV
Final free energy (E-TS)    =  -536.6050410169     eV
(energies not corrected for finite basis set)
 
NB est. 0K energy (E-0.5TS)      =  -536.6050409640     eV
 

 ************************************** Forces **************************************
 *                                                                                  *
 *                           Cartesian components (eV/A)                            *
 * -------------------------------------------------------------------------------- *
 *                         x                    y                    z              *
 *                                                                                  *
 * N               1      4.59370              4.62360              4.62360         *
 * N               2     -4.59370             -4.62360             -4.62360         *
 *                                                                                  *
 ************************************************************************************
  
            xxxxxxxxxxxxxxxxxxxxxxxxxxxxxxxxxxxxxxxxxxxxxxxxxxxxxxxxxxxxxx
            x                                               MD Data:     x
            x                                                            x
            x              time :      0.001000                   ps     x
            x                                                            x
            x   Potential Energy:   -536.605041                   eV     x
            x   Kinetic   Energy:      0.054246                   eV     x
            x   Total     Energy:   -536.550795                   eV     x
            x   Hamilt    Energy:   -536.550795                   eV     x
            x                                                            x
            x        Temperature:    419.664157                    K     x
            xxxxxxxxxxxxxxxxxxxxxxxxxxxxxxxxxxxxxxxxxxxxxxxxxxxxxxxxxxxxxx


--------------------------------------------------------------------------------
 ... finished MD iteration          1

================================================================================
 Starting MD iteration          2 ...
================================================================================

                           -------------------------------
                                     Cell Contents
                           -------------------------------

            xxxxxxxxxxxxxxxxxxxxxxxxxxxxxxxxxxxxxxxxxxxxxxxxxxxxxxxxxxxxxx
            x  Element    Atom        Fractional coordinates of atoms    x
            x            Number           u          v          w        x
            x------------------------------------------------------------x
            x   N          1          0.501221   0.500043   0.500040     x
            x   N          2          0.613779   0.614957   0.614960     x
            xxxxxxxxxxxxxxxxxxxxxxxxxxxxxxxxxxxxxxxxxxxxxxxxxxxxxxxxxxxxxx

------------------------------------------------------------------------ <-- SCF
SCF loop      Energy           Fermi           Energy gain       Timer   <-- SCF
                               energy          per atom          (sec)   <-- SCF
------------------------------------------------------------------------ <-- SCF
Initial  -5.36734712E+002  0.00000000E+000                        10.23  <-- SCF
      1  -5.36709398E+002 -7.14841934E+000  -1.26568533E-002      10.27  <-- SCF
      2  -5.36709483E+002 -7.14842855E+000   4.25346795E-005      10.33  <-- SCF
      3  -5.36709415E+002 -7.14346395E+000  -3.39334750E-005      10.39  <-- SCF
      4  -5.36709525E+002 -7.14371808E+000   5.49002076E-005      10.44  <-- SCF
      5  -5.36708790E+002 -7.14405776E+000  -3.67789908E-004      10.50  <-- SCF
      6  -5.36709460E+002 -7.14412720E+000   3.35341305E-004      10.55  <-- SCF
      7  -5.36709462E+002 -7.14409190E+000   7.58422792E-007      10.60  <-- SCF
      8  -5.36709463E+002 -7.14402985E+000   3.45033201E-007      10.65  <-- SCF
------------------------------------------------------------------------ <-- SCF
 
Final energy, E             =  -536.7094624977     eV
Final free energy (E-TS)    =  -536.7094625455     eV
(energies not corrected for finite basis set)
 
NB est. 0K energy (E-0.5TS)      =  -536.7094625216     eV
 

 ************************************** Forces **************************************
 *                                                                                  *
 *                           Cartesian components (eV/A)                            *
 * -------------------------------------------------------------------------------- *
 *                         x                    y                    z              *
 *                                                                                  *
 * N               1      4.62993              4.71233              4.71253         *
 * N               2     -4.62993             -4.71233             -4.71253         *
 *                                                                                  *
 ************************************************************************************
  
            xxxxxxxxxxxxxxxxxxxxxxxxxxxxxxxxxxxxxxxxxxxxxxxxxxxxxxxxxxxxxx
            x                                               MD Data:     x
            x                                                            x
            x              time :      0.002000                   ps     x
            x                                                            x
            x   Potential Energy:   -536.709463                   eV     x
            x   Kinetic   Energy:      0.155516                   eV     x
            x   Total     Energy:   -536.553946                   eV     x
            x   Hamilt    Energy:   -536.553946                   eV     x
            x                                                            x
            x        Temperature:   1203.127755                    K     x
            xxxxxxxxxxxxxxxxxxxxxxxxxxxxxxxxxxxxxxxxxxxxxxxxxxxxxxxxxxxxxx


--------------------------------------------------------------------------------
 ... finished MD iteration          2

================================================================================
 Starting MD iteration          3 ...
================================================================================

                           -------------------------------
                                     Cell Contents
                           -------------------------------

            xxxxxxxxxxxxxxxxxxxxxxxxxxxxxxxxxxxxxxxxxxxxxxxxxxxxxxxxxxxxxx
            x  Element    Atom        Fractional coordinates of atoms    x
            x            Number           u          v          w        x
            x------------------------------------------------------------x
            x   N          1          0.502267   0.500549   0.500587     x
            x   N          2          0.612733   0.614451   0.614413     x
            xxxxxxxxxxxxxxxxxxxxxxxxxxxxxxxxxxxxxxxxxxxxxxxxxxxxxxxxxxxxxx

------------------------------------------------------------------------ <-- SCF
SCF loop      Energy           Fermi           Energy gain       Timer   <-- SCF
                               energy          per atom          (sec)   <-- SCF
------------------------------------------------------------------------ <-- SCF
Initial  -5.37036057E+002  0.00000000E+000                        10.75  <-- SCF
      1  -5.36907904E+002 -7.14602168E+000  -6.40767947E-002      10.79  <-- SCF
      2  -5.36908200E+002 -7.14603028E+000   1.47881675E-004      10.86  <-- SCF
      3  -5.36908170E+002 -7.14285664E+000  -1.50292824E-005      10.91  <-- SCF
      4  -5.36908236E+002 -7.14278722E+000   3.29711752E-005      10.96  <-- SCF
      5  -5.36907901E+002 -7.14276172E+000  -1.67095626E-004      11.01  <-- SCF
      6  -5.36908199E+002 -7.14303890E+000   1.48764532E-004      11.06  <-- SCF
      7  -5.36908202E+002 -7.14309194E+000   1.52517373E-006      11.11  <-- SCF
      8  -5.36908202E+002 -7.14305787E+000   2.68916091E-007      11.16  <-- SCF
------------------------------------------------------------------------ <-- SCF
 
Final energy, E             =  -536.9082024608     eV
Final free energy (E-TS)    =  -536.9082024706     eV
(energies not corrected for finite basis set)
 
NB est. 0K energy (E-0.5TS)      =  -536.9082024657     eV
 

 ************************************** Forces **************************************
 *                                                                                  *
 *                           Cartesian components (eV/A)                            *
 * -------------------------------------------------------------------------------- *
 *                         x                    y                    z              *
 *                                                                                  *
 * N               1      4.73871              4.87770              4.87741         *
 * N               2     -4.73871             -4.87770             -4.87741         *
 *                                                                                  *
 ************************************************************************************
  
            xxxxxxxxxxxxxxxxxxxxxxxxxxxxxxxxxxxxxxxxxxxxxxxxxxxxxxxxxxxxxx
            x                                               MD Data:     x
            x                                                            x
            x              time :      0.003000                   ps     x
            x                                                            x
            x   Potential Energy:   -536.908202                   eV     x
            x   Kinetic   Energy:      0.352966                   eV     x
            x   Total     Energy:   -536.555237                   eV     x
            x   Hamilt    Energy:   -536.555237                   eV     x
            x                                                            x
            x        Temperature:   2730.664512                    K     x
            xxxxxxxxxxxxxxxxxxxxxxxxxxxxxxxxxxxxxxxxxxxxxxxxxxxxxxxxxxxxxx


--------------------------------------------------------------------------------
 ... finished MD iteration          3

================================================================================
 Starting MD iteration          4 ...
================================================================================

                           -------------------------------
                                     Cell Contents
                           -------------------------------

            xxxxxxxxxxxxxxxxxxxxxxxxxxxxxxxxxxxxxxxxxxxxxxxxxxxxxxxxxxxxxx
            x  Element    Atom        Fractional coordinates of atoms    x
            x            Number           u          v          w        x
            x------------------------------------------------------------x
            x   N          1          0.503655   0.501384   0.501455     x
            x   N          2          0.611345   0.613616   0.613545     x
            xxxxxxxxxxxxxxxxxxxxxxxxxxxxxxxxxxxxxxxxxxxxxxxxxxxxxxxxxxxxxx

------------------------------------------------------------------------ <-- SCF
SCF loop      Energy           Fermi           Energy gain       Timer   <-- SCF
                               energy          per atom          (sec)   <-- SCF
------------------------------------------------------------------------ <-- SCF
Initial  -5.36992183E+002  0.00000000E+000                        11.26  <-- SCF
      1  -5.37213874E+002 -7.14457972E+000   1.10845628E-001      11.31  <-- SCF
      2  -5.37213979E+002 -7.14462834E+000   5.22977754E-005      11.37  <-- SCF
      3  -5.37213990E+002 -7.14167432E+000   5.94762395E-006      11.42  <-- SCF
      4  -5.37213871E+002 -7.14168482E+000  -5.96120031E-005      11.47  <-- SCF
      5  -5.37213946E+002 -7.14193020E+000   3.74626852E-005      11.52  <-- SCF
      6  -5.37213991E+002 -7.14203157E+000   2.23431861E-005      11.57  <-- SCF
      7  -5.37213992E+002 -7.14203419E+000   6.24057457E-007      11.62  <-- SCF
      8  -5.37213992E+002 -7.14201650E+000   1.87032169E-007      11.67  <-- SCF
------------------------------------------------------------------------ <-- SCF
 
Final energy, E             =  -537.2139924353     eV
Final free energy (E-TS)    =  -537.2139924360     eV
(energies not corrected for finite basis set)
 
NB est. 0K energy (E-0.5TS)      =  -537.2139924357     eV
 

 ************************************** Forces **************************************
 *                                                                                  *
 *                           Cartesian components (eV/A)                            *
 * -------------------------------------------------------------------------------- *
 *                         x                    y                    z              *
 *                                                                                  *
 * N               1      4.99023              5.17495              5.16956         *
 * N               2     -4.99023             -5.17495             -5.16956         *
 *                                                                                  *
 ************************************************************************************
  
            xxxxxxxxxxxxxxxxxxxxxxxxxxxxxxxxxxxxxxxxxxxxxxxxxxxxxxxxxxxxxx
            x                                               MD Data:     x
            x                                                            x
            x              time :      0.004000                   ps     x
            x                                                            x
            x   Potential Energy:   -537.213992                   eV     x
            x   Kinetic   Energy:      0.636402                   eV     x
            x   Total     Energy:   -536.577590                   eV     x
            x   Hamilt    Energy:   -536.577590                   eV     x
            x                                                            x
            x        Temperature:   4923.428888                    K     x
            xxxxxxxxxxxxxxxxxxxxxxxxxxxxxxxxxxxxxxxxxxxxxxxxxxxxxxxxxxxxxx


--------------------------------------------------------------------------------
 ... finished MD iteration          4

================================================================================
 Starting MD iteration          5 ...
================================================================================

                           -------------------------------
                                     Cell Contents
                           -------------------------------

            xxxxxxxxxxxxxxxxxxxxxxxxxxxxxxxxxxxxxxxxxxxxxxxxxxxxxxxxxxxxxx
            x  Element    Atom        Fractional coordinates of atoms    x
            x            Number           u          v          w        x
            x------------------------------------------------------------x
            x   N          1          0.505284   0.502589   0.502654     x
            x   N          2          0.609716   0.612411   0.612346     x
            xxxxxxxxxxxxxxxxxxxxxxxxxxxxxxxxxxxxxxxxxxxxxxxxxxxxxxxxxxxxxx

------------------------------------------------------------------------ <-- SCF
SCF loop      Energy           Fermi           Energy gain       Timer   <-- SCF
                               energy          per atom          (sec)   <-- SCF
------------------------------------------------------------------------ <-- SCF
Initial  -5.37410914E+002  0.00000000E+000                        11.77  <-- SCF
      1  -5.37643441E+002 -7.14579208E+000   1.16263434E-001      11.81  <-- SCF
      2  -5.37644144E+002 -7.14590107E+000   3.51411060E-004      11.87  <-- SCF
      3  -5.37644155E+002 -7.14048631E+000   5.47744340E-006      11.93  <-- SCF
      4  -5.37644152E+002 -7.14026761E+000  -1.36635837E-006      11.98  <-- SCF
------------------------------------------------------------------------ <-- SCF
 
Final energy, E             =  -537.6441518269     eV
Final free energy (E-TS)    =  -537.6441518269     eV
(energies not corrected for finite basis set)
 
NB est. 0K energy (E-0.5TS)      =  -537.6441518269     eV
 

 ************************************** Forces **************************************
 *                                                                                  *
 *                           Cartesian components (eV/A)                            *
 * -------------------------------------------------------------------------------- *
 *                         x                    y                    z              *
 *                                                                                  *
 * N               1      5.47853              5.67237              5.66492         *
 * N               2     -5.47853             -5.67237             -5.66492         *
 *                                                                                  *
 ************************************************************************************
  
            xxxxxxxxxxxxxxxxxxxxxxxxxxxxxxxxxxxxxxxxxxxxxxxxxxxxxxxxxxxxxx
            x                                               MD Data:     x
            x                                                            x
            x              time :      0.005000                   ps     x
            x                                                            x
            x   Potential Energy:   -537.644152                   eV     x
            x   Kinetic   Energy:      1.029684                   eV     x
            x   Total     Energy:   -536.614468                   eV     x
            x   Hamilt    Energy:   -536.614468                   eV     x
            x                                                            x
            x        Temperature:   7965.992210                    K     x
            xxxxxxxxxxxxxxxxxxxxxxxxxxxxxxxxxxxxxxxxxxxxxxxxxxxxxxxxxxxxxx


Writing analysis data to N2.castep_bin

Writing model to N2.check

--------------------------------------------------------------------------------
 ... finished MD iteration          5

================================================================================
 Starting MD iteration          6 ...
================================================================================

                           -------------------------------
                                     Cell Contents
                           -------------------------------

            xxxxxxxxxxxxxxxxxxxxxxxxxxxxxxxxxxxxxxxxxxxxxxxxxxxxxxxxxxxxxx
            x  Element    Atom        Fractional coordinates of atoms    x
            x            Number           u          v          w        x
            x------------------------------------------------------------x
            x   N          1          0.507248   0.504197   0.504203     x
            x   N          2          0.607752   0.610803   0.610797     x
            xxxxxxxxxxxxxxxxxxxxxxxxxxxxxxxxxxxxxxxxxxxxxxxxxxxxxxxxxxxxxx

------------------------------------------------------------------------ <-- SCF
SCF loop      Energy           Fermi           Energy gain       Timer   <-- SCF
                               energy          per atom          (sec)   <-- SCF
------------------------------------------------------------------------ <-- SCF
Initial  -5.37595085E+002  0.00000000E+000                        12.17  <-- SCF
      1  -5.38256227E+002 -7.14415828E+000   3.30571142E-001      12.21  <-- SCF
      2  -5.38256599E+002 -7.14439729E+000   1.85838430E-004      12.27  <-- SCF
      3  -5.38257357E+002 -7.13068361E+000   3.79076322E-004      12.33  <-- SCF
      4  -5.38257015E+002 -7.13081228E+000  -1.70764373E-004      12.39  <-- SCF
      5  -5.38257100E+002 -7.13135030E+000   4.23270391E-005      12.43  <-- SCF
      6  -5.38257356E+002 -7.13107219E+000   1.28300515E-004      12.48  <-- SCF
      7  -5.38257359E+002 -7.13081776E+000   1.36676222E-006      12.53  <-- SCF
      8  -5.38257362E+002 -7.13023811E+000   1.18062458E-006      12.59  <-- SCF
------------------------------------------------------------------------ <-- SCF
 
Final energy, E             =  -538.2573615633     eV
Final free energy (E-TS)    =  -538.2573615633     eV
(energies not corrected for finite basis set)
 
NB est. 0K energy (E-0.5TS)      =  -538.2573615633     eV
 

 ************************************** Forces **************************************
 *                                                                                  *
 *                           Cartesian components (eV/A)                            *
 * -------------------------------------------------------------------------------- *
 *                         x                    y                    z              *
 *                                                                                  *
 * N               1      6.26368              6.48084              6.48022         *
 * N               2     -6.26368             -6.48084             -6.48022         *
 *                                                                                  *
 ************************************************************************************
  
            xxxxxxxxxxxxxxxxxxxxxxxxxxxxxxxxxxxxxxxxxxxxxxxxxxxxxxxxxxxxxx
            x                                               MD Data:     x
            x                                                            x
            x              time :      0.006000                   ps     x
            x                                                            x
            x   Potential Energy:   -538.257362                   eV     x
            x   Kinetic   Energy:      1.653403                   eV     x
            x   Total     Energy:   -536.603959                   eV     x
            x   Hamilt    Energy:   -536.603959                   eV     x
            x                                                            x
            x        Temperature:  12791.299529                    K     x
            xxxxxxxxxxxxxxxxxxxxxxxxxxxxxxxxxxxxxxxxxxxxxxxxxxxxxxxxxxxxxx


--------------------------------------------------------------------------------
 ... finished MD iteration          6

================================================================================
 Starting MD iteration          7 ...
================================================================================

                           -------------------------------
                                     Cell Contents
                           -------------------------------

            xxxxxxxxxxxxxxxxxxxxxxxxxxxxxxxxxxxxxxxxxxxxxxxxxxxxxxxxxxxxxx
            x  Element    Atom        Fractional coordinates of atoms    x
            x            Number           u          v          w        x
            x------------------------------------------------------------x
            x   N          1          0.509671   0.506329   0.506166     x
            x   N          2          0.605329   0.608671   0.608834     x
            xxxxxxxxxxxxxxxxxxxxxxxxxxxxxxxxxxxxxxxxxxxxxxxxxxxxxxxxxxxxxx

------------------------------------------------------------------------ <-- SCF
SCF loop      Energy           Fermi           Energy gain       Timer   <-- SCF
                               energy          per atom          (sec)   <-- SCF
------------------------------------------------------------------------ <-- SCF
Initial  -5.42074477E+002  0.00000000E+000                        12.69  <-- SCF
      1  -5.39163612E+002 -6.98163076E+000  -1.45543259E+000      12.73  <-- SCF
      2  -5.39168030E+002 -6.98206078E+000   2.20912157E-003      12.79  <-- SCF
      3  -5.39168437E+002 -6.95993227E+000   2.03074782E-004      12.86  <-- SCF
      4  -5.39168791E+002 -6.95945297E+000   1.76979478E-004      12.91  <-- SCF
      5  -5.39167668E+002 -6.95918815E+000  -5.61464184E-004      12.97  <-- SCF
      6  -5.39168567E+002 -6.95906590E+000   4.49560057E-004      13.02  <-- SCF
      7  -5.39168573E+002 -6.95882086E+000   2.86017541E-006      13.08  <-- SCF
      8  -5.39168573E+002 -6.95862729E+000   4.27814793E-007      13.12  <-- SCF
------------------------------------------------------------------------ <-- SCF
 
Final energy, E             =  -539.1685733674     eV
Final free energy (E-TS)    =  -539.1685733674     eV
(energies not corrected for finite basis set)
 
NB est. 0K energy (E-0.5TS)      =  -539.1685733674     eV
 

 ************************************** Forces **************************************
 *                                                                                  *
 *                           Cartesian components (eV/A)                            *
 * -------------------------------------------------------------------------------- *
 *                         x                    y                    z              *
 *                                                                                  *
 * N               1      7.34669              7.71162              7.72750         *
 * N               2     -7.34669             -7.71162             -7.72750         *
 *                                                                                  *
 ************************************************************************************
  
            xxxxxxxxxxxxxxxxxxxxxxxxxxxxxxxxxxxxxxxxxxxxxxxxxxxxxxxxxxxxxx
            x                                               MD Data:     x
            x                                                            x
            x              time :      0.007000                   ps     x
            x                                                            x
            x   Potential Energy:   -539.168573                   eV     x
            x   Kinetic   Energy:      2.591189                   eV     x
            x   Total     Energy:   -536.577384                   eV     x
            x   Hamilt    Energy:   -536.577384                   eV     x
            x                                                            x
            x        Temperature:  20046.342506                    K     x
            xxxxxxxxxxxxxxxxxxxxxxxxxxxxxxxxxxxxxxxxxxxxxxxxxxxxxxxxxxxxxx


--------------------------------------------------------------------------------
 ... finished MD iteration          7

================================================================================
 Starting MD iteration          8 ...
================================================================================

                           -------------------------------
                                     Cell Contents
                           -------------------------------

            xxxxxxxxxxxxxxxxxxxxxxxxxxxxxxxxxxxxxxxxxxxxxxxxxxxxxxxxxxxxxx
            x  Element    Atom        Fractional coordinates of atoms    x
            x            Number           u          v          w        x
            x------------------------------------------------------------x
            x   N          1          0.512622   0.508943   0.508674     x
            x   N          2          0.602378   0.606057   0.606326     x
            xxxxxxxxxxxxxxxxxxxxxxxxxxxxxxxxxxxxxxxxxxxxxxxxxxxxxxxxxxxxxx

------------------------------------------------------------------------ <-- SCF
SCF loop      Energy           Fermi           Energy gain       Timer   <-- SCF
                               energy          per atom          (sec)   <-- SCF
------------------------------------------------------------------------ <-- SCF
Initial  -5.42577429E+002  0.00000000E+000                        13.23  <-- SCF
      1  -5.40489082E+002 -6.69116472E+000  -1.04417336E+000      13.27  <-- SCF
      2  -5.40498896E+002 -6.69132355E+000   4.90656597E-003      13.34  <-- SCF
      3  -5.40498656E+002 -6.64659740E+000  -1.19655911E-004      13.40  <-- SCF
      4  -5.40499085E+002 -6.64874056E+000   2.14192179E-004      13.45  <-- SCF
      5  -5.40498980E+002 -6.64863446E+000  -5.21372934E-005      13.50  <-- SCF
      6  -5.40499106E+002 -6.64791928E+000   6.26656572E-005      13.55  <-- SCF
      7  -5.40499129E+002 -6.64714059E+000   1.16094860E-005      13.60  <-- SCF
      8  -5.40499132E+002 -6.64667737E+000   1.36097588E-006      13.65  <-- SCF
      9  -5.40499136E+002 -6.64574509E+000   2.09255929E-006      13.70  <-- SCF
------------------------------------------------------------------------ <-- SCF
 
Final energy, E             =  -540.4991358251     eV
Final free energy (E-TS)    =  -540.4991358251     eV
(energies not corrected for finite basis set)
 
NB est. 0K energy (E-0.5TS)      =  -540.4991358251     eV
 

 ************************************** Forces **************************************
 *                                                                                  *
 *                           Cartesian components (eV/A)                            *
 * -------------------------------------------------------------------------------- *
 *                         x                    y                    z              *
 *                                                                                  *
 * N               1      8.39486              9.02846              9.07396         *
 * N               2     -8.39486             -9.02846             -9.07396         *
 *                                                                                  *
 ************************************************************************************
  
            xxxxxxxxxxxxxxxxxxxxxxxxxxxxxxxxxxxxxxxxxxxxxxxxxxxxxxxxxxxxxx
            x                                               MD Data:     x
            x                                                            x
            x              time :      0.008000                   ps     x
            x                                                            x
            x   Potential Energy:   -540.499136                   eV     x
            x   Kinetic   Energy:      3.875467                   eV     x
            x   Total     Energy:   -536.623669                   eV     x
            x   Hamilt    Energy:   -536.623669                   eV     x
            x                                                            x
            x        Temperature:  29981.958309                    K     x
            xxxxxxxxxxxxxxxxxxxxxxxxxxxxxxxxxxxxxxxxxxxxxxxxxxxxxxxxxxxxxx


--------------------------------------------------------------------------------
 ... finished MD iteration          8

================================================================================
 Starting MD iteration          9 ...
================================================================================

                           -------------------------------
                                     Cell Contents
                           -------------------------------

            xxxxxxxxxxxxxxxxxxxxxxxxxxxxxxxxxxxxxxxxxxxxxxxxxxxxxxxxxxxxxx
            x  Element    Atom        Fractional coordinates of atoms    x
            x            Number           u          v          w        x
            x------------------------------------------------------------x
            x   N          1          0.516102   0.512141   0.511790     x
            x   N          2          0.598898   0.602859   0.603210     x
            xxxxxxxxxxxxxxxxxxxxxxxxxxxxxxxxxxxxxxxxxxxxxxxxxxxxxxxxxxxxxx

------------------------------------------------------------------------ <-- SCF
SCF loop      Energy           Fermi           Energy gain       Timer   <-- SCF
                               energy          per atom          (sec)   <-- SCF
------------------------------------------------------------------------ <-- SCF
Initial  -5.45425049E+002  0.00000000E+000                        13.81  <-- SCF
      1  -5.42269753E+002 -6.22340123E+000  -1.57764816E+000      13.85  <-- SCF
      2  -5.42287533E+002 -6.22438203E+000   8.89010055E-003      13.91  <-- SCF
      3  -5.42286779E+002 -6.16026694E+000  -3.77193316E-004      13.98  <-- SCF
      4  -5.42287912E+002 -6.16300426E+000   5.66784097E-004      14.05  <-- SCF
      5  -5.42287616E+002 -6.16276413E+000  -1.48261629E-004      14.11  <-- SCF
      6  -5.42287925E+002 -6.16152748E+000   1.54620781E-004      14.16  <-- SCF
      7  -5.42287946E+002 -6.16069700E+000   1.05499869E-005      14.22  <-- SCF
      8  -5.42287949E+002 -6.16019626E+000   1.30392584E-006      14.27  <-- SCF
      9  -5.42287954E+002 -6.15935136E+000   2.47117495E-006      14.32  <-- SCF
------------------------------------------------------------------------ <-- SCF
 
Final energy, E             =  -542.2879536583     eV
Final free energy (E-TS)    =  -542.2879536583     eV
(energies not corrected for finite basis set)
 
NB est. 0K energy (E-0.5TS)      =  -542.2879536583     eV
 

 ************************************** Forces **************************************
 *                                                                                  *
 *                           Cartesian components (eV/A)                            *
 * -------------------------------------------------------------------------------- *
 *                         x                    y                    z              *
 *                                                                                  *
 * N               1      8.63648              9.47613              9.54556         *
 * N               2     -8.63648             -9.47613             -9.54556         *
 *                                                                                  *
 ************************************************************************************
  
            xxxxxxxxxxxxxxxxxxxxxxxxxxxxxxxxxxxxxxxxxxxxxxxxxxxxxxxxxxxxxx
            x                                               MD Data:     x
            x                                                            x
            x              time :      0.009000                   ps     x
            x                                                            x
            x   Potential Energy:   -542.287954                   eV     x
            x   Kinetic   Energy:      5.567157                   eV     x
            x   Total     Energy:   -536.720797                   eV     x
            x   Hamilt    Energy:   -536.720797                   eV     x
            x                                                            x
            x        Temperature:  43069.464775                    K     x
            xxxxxxxxxxxxxxxxxxxxxxxxxxxxxxxxxxxxxxxxxxxxxxxxxxxxxxxxxxxxxx


--------------------------------------------------------------------------------
 ... finished MD iteration          9

================================================================================
 Starting MD iteration         10 ...
================================================================================

                           -------------------------------
                                     Cell Contents
                           -------------------------------

            xxxxxxxxxxxxxxxxxxxxxxxxxxxxxxxxxxxxxxxxxxxxxxxxxxxxxxxxxxxxxx
            x  Element    Atom        Fractional coordinates of atoms    x
            x            Number           u          v          w        x
            x------------------------------------------------------------x
            x   N          1          0.520137   0.515979   0.515560     x
            x   N          2          0.594863   0.599021   0.599440     x
            xxxxxxxxxxxxxxxxxxxxxxxxxxxxxxxxxxxxxxxxxxxxxxxxxxxxxxxxxxxxxx

------------------------------------------------------------------------ <-- SCF
SCF loop      Energy           Fermi           Energy gain       Timer   <-- SCF
                               energy          per atom          (sec)   <-- SCF
------------------------------------------------------------------------ <-- SCF
Initial  -5.45292365E+002  0.00000000E+000                        14.43  <-- SCF
      1  -5.44283995E+002 -5.49857071E+000  -5.04185027E-001      14.47  <-- SCF
      2  -5.44308726E+002 -5.50015374E+000   1.23655732E-002      14.53  <-- SCF
      3  -5.44306510E+002 -5.41310495E+000  -1.10811147E-003      14.59  <-- SCF
      4  -5.44309000E+002 -5.41881170E+000   1.24538786E-003      14.66  <-- SCF
      5  -5.44308583E+002 -5.41819458E+000  -2.08897888E-004      14.73  <-- SCF
      6  -5.44309071E+002 -5.41591397E+000   2.44380997E-004      14.78  <-- SCF
      7  -5.44309115E+002 -5.41489435E+000   2.18824950E-005      14.84  <-- SCF
      8  -5.44309127E+002 -5.41406332E+000   5.98940081E-006      14.89  <-- SCF
      9  -5.44309142E+002 -5.41323251E+000   7.58408262E-006      14.94  <-- SCF
     10  -5.44309152E+002 -5.41296103E+000   5.08021306E-006      14.99  <-- SCF
     11  -5.44309160E+002 -5.41278073E+000   3.91111848E-006      15.05  <-- SCF
------------------------------------------------------------------------ <-- SCF
 
Final energy, E             =  -544.3091602950     eV
Final free energy (E-TS)    =  -544.3091602950     eV
(energies not corrected for finite basis set)
 
NB est. 0K energy (E-0.5TS)      =  -544.3091602950     eV
 

 ************************************** Forces **************************************
 *                                                                                  *
 *                           Cartesian components (eV/A)                            *
 * -------------------------------------------------------------------------------- *
 *                         x                    y                    z              *
 *                                                                                  *
 * N               1      7.30126              8.10395              8.19158         *
 * N               2     -7.30126             -8.10395             -8.19158         *
 *                                                                                  *
 ************************************************************************************
  
            xxxxxxxxxxxxxxxxxxxxxxxxxxxxxxxxxxxxxxxxxxxxxxxxxxxxxxxxxxxxxx
            x                                               MD Data:     x
            x                                                            x
            x              time :      0.010000                   ps     x
            x                                                            x
            x   Potential Energy:   -544.309160                   eV     x
            x   Kinetic   Energy:      7.464891                   eV     x
            x   Total     Energy:   -536.844269                   eV     x
            x   Hamilt    Energy:   -536.844269                   eV     x
            x                                                            x
            x        Temperature:  57750.994170                    K     x
            xxxxxxxxxxxxxxxxxxxxxxxxxxxxxxxxxxxxxxxxxxxxxxxxxxxxxxxxxxxxxx


Writing analysis data to N2.castep_bin

Writing model to N2.check

--------------------------------------------------------------------------------
 ... finished MD iteration         10

================================================================================
 Starting MD iteration         11 ...
================================================================================

                           -------------------------------
                                     Cell Contents
                           -------------------------------

            xxxxxxxxxxxxxxxxxxxxxxxxxxxxxxxxxxxxxxxxxxxxxxxxxxxxxxxxxxxxxx
            x  Element    Atom        Fractional coordinates of atoms    x
            x            Number           u          v          w        x
            x------------------------------------------------------------x
            x   N          1          0.524642   0.520345   0.519881     x
            x   N          2          0.590358   0.594655   0.595119     x
            xxxxxxxxxxxxxxxxxxxxxxxxxxxxxxxxxxxxxxxxxxxxxxxxxxxxxxxxxxxxxx

------------------------------------------------------------------------ <-- SCF
SCF loop      Energy           Fermi           Energy gain       Timer   <-- SCF
                               energy          per atom          (sec)   <-- SCF
------------------------------------------------------------------------ <-- SCF
Initial  -5.54174565E+002  0.00000000E+000                        15.25  <-- SCF
      1  -5.45964935E+002 -4.44232608E+000  -4.10481518E+000      15.30  <-- SCF
      2  -5.46003254E+002 -4.44442282E+000   1.91596777E-002      15.32  <-- SCF
      3  -5.45991887E+002 -4.30974940E+000  -5.68343099E-003      15.39  <-- SCF
      4  -5.45996574E+002 -4.31915208E+000   2.34333877E-003      15.46  <-- SCF
      5  -5.45996989E+002 -4.31495376E+000   2.07869176E-004      15.52  <-- SCF
      6  -5.45996993E+002 -4.31388525E+000   1.71950355E-006      15.57  <-- SCF
      7  -5.45997066E+002 -4.31274470E+000   3.66726420E-005      15.63  <-- SCF
      8  -5.45997074E+002 -4.31148191E+000   3.81684145E-006      15.68  <-- SCF
      9  -5.45997083E+002 -4.31020757E+000   4.59893576E-006      15.73  <-- SCF
------------------------------------------------------------------------ <-- SCF
 
Final energy, E             =  -545.9970830720     eV
Final free energy (E-TS)    =  -545.9970830720     eV
(energies not corrected for finite basis set)
 
NB est. 0K energy (E-0.5TS)      =  -545.9970830720     eV
 

 ************************************** Forces **************************************
 *                                                                                  *
 *                           Cartesian components (eV/A)                            *
 * -------------------------------------------------------------------------------- *
 *                         x                    y                    z              *
 *                                                                                  *
 * N               1      4.45263              4.85097              4.88864         *
 * N               2     -4.45263             -4.85097             -4.88864         *
 *                                                                                  *
 ************************************************************************************
  
            xxxxxxxxxxxxxxxxxxxxxxxxxxxxxxxxxxxxxxxxxxxxxxxxxxxxxxxxxxxxxx
            x                                               MD Data:     x
            x                                                            x
            x              time :      0.011000                   ps     x
            x                                                            x
            x   Potential Energy:   -545.997083                   eV     x
            x   Kinetic   Energy:      9.062275                   eV     x
            x   Total     Energy:   -536.934808                   eV     x
            x   Hamilt    Energy:   -536.934808                   eV     x
            x                                                            x
            x        Temperature:  70108.917081                    K     x
            xxxxxxxxxxxxxxxxxxxxxxxxxxxxxxxxxxxxxxxxxxxxxxxxxxxxxxxxxxxxxx


--------------------------------------------------------------------------------
 ... finished MD iteration         11

================================================================================
 Starting MD iteration         12 ...
================================================================================

                           -------------------------------
                                     Cell Contents
                           -------------------------------

            xxxxxxxxxxxxxxxxxxxxxxxxxxxxxxxxxxxxxxxxxxxxxxxxxxxxxxxxxxxxxx
            x  Element    Atom        Fractional coordinates of atoms    x
            x            Number           u          v          w        x
            x------------------------------------------------------------x
            x   N          1          0.529469   0.525018   0.524555     x
            x   N          2          0.585531   0.589982   0.590445     x
            xxxxxxxxxxxxxxxxxxxxxxxxxxxxxxxxxxxxxxxxxxxxxxxxxxxxxxxxxxxxxx

------------------------------------------------------------------------ <-- SCF
SCF loop      Energy           Fermi           Energy gain       Timer   <-- SCF
                               energy          per atom          (sec)   <-- SCF
------------------------------------------------------------------------ <-- SCF
Initial  -5.48256840E+002  0.00000000E+000                        15.84  <-- SCF
      1  -5.46513007E+002 -2.93865213E+000  -8.71916397E-001      15.88  <-- SCF
      2  -5.46570589E+002 -2.94290140E+000   2.87909249E-002      15.94  <-- SCF
      3  -5.46520904E+002 -2.67679242E+000  -2.48423300E-002      16.01  <-- SCF
      4  -5.46526983E+002 -2.70492994E+000   3.03925360E-003      16.07  <-- SCF
      5  -5.46527546E+002 -2.69517189E+000   2.81361038E-004      16.14  <-- SCF
      6  -5.46527641E+002 -2.69229944E+000   4.75896133E-005      16.20  <-- SCF
      7  -5.46527684E+002 -2.68901185E+000   2.16853786E-005      16.26  <-- SCF
      8  -5.46527714E+002 -2.68423190E+000   1.48811311E-005      16.31  <-- SCF
      9  -5.46527746E+002 -2.68034091E+000   1.62156383E-005      16.37  <-- SCF
     10  -5.46527776E+002 -2.67853759E+000   1.47087342E-005      16.42  <-- SCF
     11  -5.46527804E+002 -2.67859344E+000   1.39374575E-005      16.47  <-- SCF
     12  -5.46527824E+002 -2.67828737E+000   9.96801717E-006      16.53  <-- SCF
     13  -5.46527832E+002 -2.67824422E+000   4.09309715E-006      16.59  <-- SCF
     14  -5.46527839E+002 -2.67819980E+000   3.76043047E-006      16.64  <-- SCF
------------------------------------------------------------------------ <-- SCF
 
Final energy, E             =  -546.5278394002     eV
Final free energy (E-TS)    =  -546.5278394002     eV
(energies not corrected for finite basis set)
 
NB est. 0K energy (E-0.5TS)      =  -546.5278394002     eV
 

 ************************************** Forces **************************************
 *                                                                                  *
 *                           Cartesian components (eV/A)                            *
 * -------------------------------------------------------------------------------- *
 *                         x                    y                    z              *
 *                                                                                  *
 * N               1     -1.84959             -2.42855             -2.49167         *
 * N               2      1.84959              2.42855              2.49167         *
 *                                                                                  *
 ************************************************************************************
  
            xxxxxxxxxxxxxxxxxxxxxxxxxxxxxxxxxxxxxxxxxxxxxxxxxxxxxxxxxxxxxx
            x                                               MD Data:     x
            x                                                            x
            x              time :      0.012000                   ps     x
            x                                                            x
            x   Potential Energy:   -546.527839                   eV     x
            x   Kinetic   Energy:      9.257186                   eV     x
            x   Total     Energy:   -537.270654                   eV     x
            x   Hamilt    Energy:   -537.270654                   eV     x
            x                                                            x
            x        Temperature:  71616.810000                    K     x
            xxxxxxxxxxxxxxxxxxxxxxxxxxxxxxxxxxxxxxxxxxxxxxxxxxxxxxxxxxxxxx


--------------------------------------------------------------------------------
 ... finished MD iteration         12

================================================================================
 Starting MD iteration         13 ...
================================================================================

                           -------------------------------
                                     Cell Contents
                           -------------------------------

            xxxxxxxxxxxxxxxxxxxxxxxxxxxxxxxxxxxxxxxxxxxxxxxxxxxxxxxxxxxxxx
            x  Element    Atom        Fractional coordinates of atoms    x
            x            Number           u          v          w        x
            x------------------------------------------------------------x
            x   N          1          0.534043   0.529483   0.529001     x
            x   N          2          0.580957   0.585517   0.585999     x
            xxxxxxxxxxxxxxxxxxxxxxxxxxxxxxxxxxxxxxxxxxxxxxxxxxxxxxxxxxxxxx

------------------------------------------------------------------------ <-- SCF
SCF loop      Energy           Fermi           Energy gain       Timer   <-- SCF
                               energy          per atom          (sec)   <-- SCF
------------------------------------------------------------------------ <-- SCF
Initial  -5.39700009E+002  0.00000000E+000                        16.75  <-- SCF
      1  -5.43332044E+002 -1.35470613E+000   1.81601736E+000      16.79  <-- SCF
      2  -5.43356780E+002 -1.35555429E+000   1.23679302E-002      16.87  <-- SCF
      3  -5.43291176E+002 -1.45071821E+000  -3.28020521E-002      16.95  <-- SCF
      4  -5.43293573E+002 -1.42019378E+000   1.19847032E-003      17.03  <-- SCF
      5  -5.43294679E+002 -1.44149069E+000   5.53262390E-004      17.10  <-- SCF
      6  -5.43294766E+002 -1.44836667E+000   4.35052098E-005      17.21  <-- SCF
      7  -5.43294790E+002 -1.43254281E+000   1.20320872E-005      17.29  <-- SCF
      8  -5.43294838E+002 -1.41728708E+000   2.35176740E-005      17.36  <-- SCF
      9  -5.43294885E+002 -1.39602989E+000   2.38238383E-005      17.44  <-- SCF
     10  -5.43294920E+002 -1.38318017E+000   1.72679472E-005      17.52  <-- SCF
     11  -5.43294944E+002 -1.37469752E+000   1.19830331E-005      17.60  <-- SCF
     12  -5.43294956E+002 -1.37077155E+000   5.94167109E-006      17.67  <-- SCF
     13  -5.43294965E+002 -1.37178504E+000   4.51984891E-006      17.75  <-- SCF
     14  -5.43294971E+002 -1.37026271E+000   3.25323504E-006      17.82  <-- SCF
------------------------------------------------------------------------ <-- SCF
 
Final energy, E             =  -543.2949711075     eV
Final free energy (E-TS)    =  -543.2949711075     eV
(energies not corrected for finite basis set)
 
NB est. 0K energy (E-0.5TS)      =  -543.2949711075     eV
 

 ************************************** Forces **************************************
 *                                                                                  *
 *                           Cartesian components (eV/A)                            *
 * -------------------------------------------------------------------------------- *
 *                         x                    y                    z              *
 *                                                                                  *
 * N               1    -23.83126            -28.55150            -29.05804         *
 * N               2     23.83126             28.55150             29.05804         *
 *                                                                                  *
 ************************************************************************************
  
            xxxxxxxxxxxxxxxxxxxxxxxxxxxxxxxxxxxxxxxxxxxxxxxxxxxxxxxxxxxxxx
            x                                               MD Data:     x
            x                                                            x
            x              time :      0.013000                   ps     x
            x                                                            x
            x   Potential Energy:   -543.294971                   eV     x
            x   Kinetic   Energy:      5.436878                   eV     x
            x   Total     Energy:   -537.858093                   eV     x
            x   Hamilt    Energy:   -537.858093                   eV     x
            x                                                            x
            x        Temperature:  42061.584313                    K     x
            xxxxxxxxxxxxxxxxxxxxxxxxxxxxxxxxxxxxxxxxxxxxxxxxxxxxxxxxxxxxxx


--------------------------------------------------------------------------------
 ... finished MD iteration         13

================================================================================
 Starting MD iteration         14 ...
================================================================================

                           -------------------------------
                                     Cell Contents
                           -------------------------------

            xxxxxxxxxxxxxxxxxxxxxxxxxxxxxxxxxxxxxxxxxxxxxxxxxxxxxxxxxxxxxx
            x  Element    Atom        Fractional coordinates of atoms    x
            x            Number           u          v          w        x
            x------------------------------------------------------------x
            x   N          1          0.536906   0.531880   0.531442     x
            x   N          2          0.578094   0.583120   0.583558     x
            xxxxxxxxxxxxxxxxxxxxxxxxxxxxxxxxxxxxxxxxxxxxxxxxxxxxxxxxxxxxxx

------------------------------------------------------------------------ <-- SCF
SCF loop      Energy           Fermi           Energy gain       Timer   <-- SCF
                               energy          per atom          (sec)   <-- SCF
------------------------------------------------------------------------ <-- SCF
Initial  -5.44465845E+002  0.00000000E+000                        17.94  <-- SCF
      1  -5.36737425E+002 -1.36563226E+000  -3.86420970E+000      17.99  <-- SCF
      2  -5.36749970E+002 -1.36574794E+000   6.27241179E-003      18.04  <-- SCF
      3  -5.36743382E+002 -1.41710458E+000  -3.29385938E-003      18.12  <-- SCF
      4  -5.36745352E+002 -1.38613007E+000   9.84829982E-004      18.20  <-- SCF
      5  -5.36746023E+002 -1.38731033E+000   3.35549247E-004      18.27  <-- SCF
      6  -5.36746068E+002 -1.39704368E+000   2.24163127E-005      18.34  <-- SCF
      7  -5.36746073E+002 -1.39290419E+000   2.72464477E-006      18.42  <-- SCF
      8  -5.36746080E+002 -1.38726691E+000   3.08599310E-006      18.48  <-- SCF
------------------------------------------------------------------------ <-- SCF
 
Final energy, E             =  -536.7460796474     eV
Final free energy (E-TS)    =  -536.7460796474     eV
(energies not corrected for finite basis set)
 
NB est. 0K energy (E-0.5TS)      =  -536.7460796474     eV
 

 ************************************** Forces **************************************
 *                                                                                  *
 *                           Cartesian components (eV/A)                            *
 * -------------------------------------------------------------------------------- *
 *                         x                    y                    z              *
 *                                                                                  *
 * N               1    -53.00070            -65.94412            -67.08620         *
 * N               2     53.00070             65.94412             67.08620         *
 *                                                                                  *
[...]
 *                                                                                  *
 * N               1      0.67827             -0.52593             -0.30602         *
 * N               2     -0.67827              0.52593              0.30602         *
 *                                                                                  *
 ************************************************************************************
  
            xxxxxxxxxxxxxxxxxxxxxxxxxxxxxxxxxxxxxxxxxxxxxxxxxxxxxxxxxxxxxx
            x                                               MD Data:     x
            x                                                            x
            x              time :      0.996000                   ps     x
            x                                                            x
            x   Potential Energy:   -546.633397                   eV     x
            x   Kinetic   Energy:      0.008625                   eV     x
            x   Total     Energy:   -546.624772                   eV     x
            x   Hamilt    Energy:   -546.624772                   eV     x
            x                                                            x
            x        Temperature:     66.726555                    K     x
            xxxxxxxxxxxxxxxxxxxxxxxxxxxxxxxxxxxxxxxxxxxxxxxxxxxxxxxxxxxxxx


--------------------------------------------------------------------------------
 ... finished MD iteration        996

================================================================================
 Starting MD iteration        997 ...
================================================================================

                           -------------------------------
                                     Cell Contents
                           -------------------------------

            xxxxxxxxxxxxxxxxxxxxxxxxxxxxxxxxxxxxxxxxxxxxxxxxxxxxxxxxxxxxxx
            x  Element    Atom        Fractional coordinates of atoms    x
            x            Number           u          v          w        x
            x------------------------------------------------------------x
            x   N          1          0.600332   0.523861   0.545562     x
            x   N          2          0.514668   0.591139   0.569438     x
            xxxxxxxxxxxxxxxxxxxxxxxxxxxxxxxxxxxxxxxxxxxxxxxxxxxxxxxxxxxxxx

------------------------------------------------------------------------ <-- SCF
SCF loop      Energy           Fermi           Energy gain       Timer   <-- SCF
                               energy          per atom          (sec)   <-- SCF
------------------------------------------------------------------------ <-- SCF
Initial  -5.46273991E+002  0.00000000E+000                       523.94  <-- SCF
      1  -5.46636743E+002 -3.03746308E+000   1.81375992E-001     523.99  <-- SCF
      2  -5.46636768E+002 -3.03747497E+000   1.25933437E-005     524.06  <-- SCF
      3  -5.46636624E+002 -3.04644695E+000  -7.22433198E-005     524.13  <-- SCF
      4  -5.46636712E+002 -3.04560799E+000   4.39191859E-005     524.18  <-- SCF
      5  -5.46636717E+002 -3.04591372E+000   2.94396585E-006     524.24  <-- SCF
      6  -5.46636718E+002 -3.04610290E+000   2.57463575E-007     524.29  <-- SCF
------------------------------------------------------------------------ <-- SCF
 
Final energy, E             =  -546.6367179909     eV
Final free energy (E-TS)    =  -546.6367179909     eV
(energies not corrected for finite basis set)
 
NB est. 0K energy (E-0.5TS)      =  -546.6367179909     eV
 

 ************************************** Forces **************************************
 *                                                                                  *
 *                           Cartesian components (eV/A)                            *
 * -------------------------------------------------------------------------------- *
 *                         x                    y                    z              *
 *                                                                                  *
 * N               1      0.18950             -0.15712             -0.16992         *
 * N               2     -0.18950              0.15712              0.16992         *
 *                                                                                  *
 ************************************************************************************
  
            xxxxxxxxxxxxxxxxxxxxxxxxxxxxxxxxxxxxxxxxxxxxxxxxxxxxxxxxxxxxxx
            x                                               MD Data:     x
            x                                                            x
            x              time :      0.997000                   ps     x
            x                                                            x
            x   Potential Energy:   -546.636718                   eV     x
            x   Kinetic   Energy:      0.015459                   eV     x
            x   Total     Energy:   -546.621259                   eV     x
            x   Hamilt    Energy:   -546.621259                   eV     x
            x                                                            x
            x        Temperature:    119.592600                    K     x
            xxxxxxxxxxxxxxxxxxxxxxxxxxxxxxxxxxxxxxxxxxxxxxxxxxxxxxxxxxxxxx


--------------------------------------------------------------------------------
 ... finished MD iteration        997

================================================================================
 Starting MD iteration        998 ...
================================================================================

                           -------------------------------
                                     Cell Contents
                           -------------------------------

            xxxxxxxxxxxxxxxxxxxxxxxxxxxxxxxxxxxxxxxxxxxxxxxxxxxxxxxxxxxxxx
            x  Element    Atom        Fractional coordinates of atoms    x
            x            Number           u          v          w        x
            x------------------------------------------------------------x
            x   N          1          0.600625   0.523711   0.545577     x
            x   N          2          0.514375   0.591289   0.569423     x
            xxxxxxxxxxxxxxxxxxxxxxxxxxxxxxxxxxxxxxxxxxxxxxxxxxxxxxxxxxxxxx

------------------------------------------------------------------------ <-- SCF
SCF loop      Energy           Fermi           Energy gain       Timer   <-- SCF
                               energy          per atom          (sec)   <-- SCF
------------------------------------------------------------------------ <-- SCF
Initial  -5.46592157E+002  0.00000000E+000                       524.39  <-- SCF
      1  -5.46636331E+002 -3.11396518E+000   2.20870592E-002     524.45  <-- SCF
      2  -5.46636331E+002 -3.11398275E+000   1.65782876E-007     524.51  <-- SCF
      3  -5.46636322E+002 -3.11414694E+000  -4.70508966E-006     524.56  <-- SCF
      4  -5.46636333E+002 -3.11426077E+000   5.38054471E-006     524.62  <-- SCF
------------------------------------------------------------------------ <-- SCF
 
Final energy, E             =  -546.6363328315     eV
Final free energy (E-TS)    =  -546.6363328315     eV
(energies not corrected for finite basis set)
 
NB est. 0K energy (E-0.5TS)      =  -546.6363328315     eV
 

 ************************************** Forces **************************************
 *                                                                                  *
 *                           Cartesian components (eV/A)                            *
 * -------------------------------------------------------------------------------- *
 *                         x                    y                    z              *
 *                                                                                  *
 * N               1     -0.28949              0.20242             -0.04215         *
 * N               2      0.28949             -0.20242              0.04215         *
 *                                                                                  *
 ************************************************************************************
  
            xxxxxxxxxxxxxxxxxxxxxxxxxxxxxxxxxxxxxxxxxxxxxxxxxxxxxxxxxxxxxx
            x                                               MD Data:     x
            x                                                            x
            x              time :      0.998000                   ps     x
            x                                                            x
            x   Potential Energy:   -546.636333                   eV     x
            x   Kinetic   Energy:      0.016271                   eV     x
            x   Total     Energy:   -546.620062                   eV     x
            x   Hamilt    Energy:   -546.620062                   eV     x
            x                                                            x
            x        Temperature:    125.878112                    K     x
            xxxxxxxxxxxxxxxxxxxxxxxxxxxxxxxxxxxxxxxxxxxxxxxxxxxxxxxxxxxxxx


--------------------------------------------------------------------------------
 ... finished MD iteration        998

================================================================================
 Starting MD iteration        999 ...
================================================================================

                           -------------------------------
                                     Cell Contents
                           -------------------------------

            xxxxxxxxxxxxxxxxxxxxxxxxxxxxxxxxxxxxxxxxxxxxxxxxxxxxxxxxxxxxxx
            x  Element    Atom        Fractional coordinates of atoms    x
            x            Number           u          v          w        x
            x------------------------------------------------------------x
            x   N          1          0.600917   0.523538   0.545595     x
            x   N          2          0.514083   0.591462   0.569405     x
            xxxxxxxxxxxxxxxxxxxxxxxxxxxxxxxxxxxxxxxxxxxxxxxxxxxxxxxxxxxxxx

------------------------------------------------------------------------ <-- SCF
SCF loop      Energy           Fermi           Energy gain       Timer   <-- SCF
                               energy          per atom          (sec)   <-- SCF
------------------------------------------------------------------------ <-- SCF
Initial  -5.46299182E+002  0.00000000E+000                       524.73  <-- SCF
      1  -5.46631888E+002 -3.18433370E+000   1.66353175E-001     524.78  <-- SCF
      2  -5.46631924E+002 -3.18433381E+000   1.76204665E-005     524.85  <-- SCF
      3  -5.46631922E+002 -3.18425646E+000  -7.80620798E-007     524.90  <-- SCF
      4  -5.46631926E+002 -3.18423733E+000   1.88449525E-006     524.96  <-- SCF
------------------------------------------------------------------------ <-- SCF
 
Final energy, E             =  -546.6319257370     eV
Final free energy (E-TS)    =  -546.6319257370     eV
(energies not corrected for finite basis set)
 
NB est. 0K energy (E-0.5TS)      =  -546.6319257370     eV
 

 ************************************** Forces **************************************
 *                                                                                  *
 *                           Cartesian components (eV/A)                            *
 * -------------------------------------------------------------------------------- *
 *                         x                    y                    z              *
 *                                                                                  *
 * N               1     -0.76563              0.55922              0.08314         *
 * N               2      0.76563             -0.55922             -0.08314         *
 *                                                                                  *
 ************************************************************************************
  
            xxxxxxxxxxxxxxxxxxxxxxxxxxxxxxxxxxxxxxxxxxxxxxxxxxxxxxxxxxxxxx
            x                                               MD Data:     x
            x                                                            x
            x              time :      0.999000                   ps     x
            x                                                            x
            x   Potential Energy:   -546.631926                   eV     x
            x   Kinetic   Energy:      0.016242                   eV     x
            x   Total     Energy:   -546.615684                   eV     x
            x   Hamilt    Energy:   -546.615684                   eV     x
            x                                                            x
            x        Temperature:    125.655598                    K     x
            xxxxxxxxxxxxxxxxxxxxxxxxxxxxxxxxxxxxxxxxxxxxxxxxxxxxxxxxxxxxxx


--------------------------------------------------------------------------------
 ... finished MD iteration        999

================================================================================
 Starting MD iteration       1000 ...
================================================================================

                           -------------------------------
                                     Cell Contents
                           -------------------------------

            xxxxxxxxxxxxxxxxxxxxxxxxxxxxxxxxxxxxxxxxxxxxxxxxxxxxxxxxxxxxxx
            x  Element    Atom        Fractional coordinates of atoms    x
            x            Number           u          v          w        x
            x------------------------------------------------------------x
            x   N          1          0.601198   0.523373   0.545647     x
            x   N          2          0.513802   0.591627   0.569353     x
            xxxxxxxxxxxxxxxxxxxxxxxxxxxxxxxxxxxxxxxxxxxxxxxxxxxxxxxxxxxxxx

------------------------------------------------------------------------ <-- SCF
SCF loop      Energy           Fermi           Energy gain       Timer   <-- SCF
                               energy          per atom          (sec)   <-- SCF
------------------------------------------------------------------------ <-- SCF
Initial  -5.45612248E+002  0.00000000E+000                       525.06  <-- SCF
      1  -5.46624172E+002 -3.25025584E+000   5.05961999E-001     525.11  <-- SCF
      2  -5.46624203E+002 -3.25025592E+000   1.55686461E-005     525.17  <-- SCF
      3  -5.46624196E+002 -3.24880778E+000  -3.58241226E-006     525.23  <-- SCF
      4  -5.46624204E+002 -3.24882767E+000   4.12806461E-006     525.29  <-- SCF
------------------------------------------------------------------------ <-- SCF
 
Final energy, E             =  -546.6242038443     eV
Final free energy (E-TS)    =  -546.6242038443     eV
(energies not corrected for finite basis set)
 
NB est. 0K energy (E-0.5TS)      =  -546.6242038443     eV
 

 ************************************** Forces **************************************
 *                                                                                  *
 *                           Cartesian components (eV/A)                            *
 * -------------------------------------------------------------------------------- *
 *                         x                    y                    z              *
 *                                                                                  *
 * N               1     -1.18939              0.87652              0.19378         *
 * N               2      1.18939             -0.87652             -0.19378         *
 *                                                                                  *
 ************************************************************************************
  
            xxxxxxxxxxxxxxxxxxxxxxxxxxxxxxxxxxxxxxxxxxxxxxxxxxxxxxxxxxxxxx
            x                                               MD Data:     x
            x                                                            x
            x              time :      1.000000                   ps     x
            x                                                            x
            x   Potential Energy:   -546.624204                   eV     x
            x   Kinetic   Energy:      0.011086                   eV     x
            x   Total     Energy:   -546.613118                   eV     x
            x   Hamilt    Energy:   -546.613118                   eV     x
            x                                                            x
            x        Temperature:     85.762409                    K     x
            xxxxxxxxxxxxxxxxxxxxxxxxxxxxxxxxxxxxxxxxxxxxxxxxxxxxxxxxxxxxxx


Writing analysis data to N2.castep_bin

Writing model to N2.check

--------------------------------------------------------------------------------
 ... finished MD iteration       1000
 Finished MD

Writing analysis data to N2.castep_bin

Writing model to N2.check

 ************************************** Forces **************************************
 *                                                                                  *
 *                           Cartesian components (eV/A)                            *
 * -------------------------------------------------------------------------------- *
 *                         x                    y                    z              *
 *                                                                                  *
 * N               1     -2.04390             -0.12171              0.22646         *
 * N               2      2.04390              0.12171             -0.22646         *
 *                                                                                  *
 ************************************************************************************

 Pseudo atomic calculation performed for N 2s2 2p3

 Converged in 21 iterations to a total energy of -264.6048 eV

Charge spilling parameter for spin component 1 = 2.09%

            Orbital Populations       
     Ion    Atom   Orbital             Charge
  -------------------------------------------
      N     1      S                    1.727
      N     1      Px                   1.162
      N     1      Py                   1.100
      N     1      Pz                   1.012
      N     2      S                    1.727
      N     2      Px                   1.161
      N     2      Py                   1.099
      N     2      Pz                   1.012
  -------------------------------------------
                           Total:      10.000
  -------------------------------------------

     Atomic Populations (Mulliken)
     -----------------------------
Species          Ion     s      p      d      f     Total  Charge (e)
=====================================================================
  N               1     1.73   3.27   0.00   0.00   5.00    -0.00
  N               2     1.73   3.27   0.00   0.00   5.00     0.00
=====================================================================

                 Bond                   Population      Length (A)
======================================================================
               N 1 -- N 2                    1.28        1.13397
======================================================================


Writing analysis data to N2.castep_bin

Writing model to N2.check
 
 A BibTeX formatted list of references used in this run has been written to 
 N2.bib
 
Initialisation time =      7.32 s
Calculation time    =    518.69 s
Finalisation time   =      0.13 s
Total time          =    526.14 s
Peak Memory Use     = 516432 kB
  
Overall parallel efficiency rating: Poor (44%)                                  
  
Data was distributed by:-
G-vector (16-way); efficiency rating: Poor (45%)                                
  
Parallel notes:
1) Calculation only took 526.0 s, so efficiency estimates may be inaccurate.    
