 +-------------------------------------------------+
 |                                                 |
 |      CCC   AA    SSS  TTTTT  EEEEE  PPPP        |
 |     C     A  A  S       T    E      P   P       |
 |     C     AAAA   SS     T    EEE    PPPP        |
 |     C     A  A     S    T    E      P           |
 |      CCC  A  A  SSS     T    EEEEE  P           |
 |                                                 |
 +-------------------------------------------------+
 |                                                 |
 | Welcome to Academic Release CASTEP version 18.1 |          
 | Ab Initio Total Energy Program                  |
 |                                                 |
 | Authors:                                        |
 | M. Segall, M. Probert, C. Pickard, P. Hasnip,   |
 | S. Clark, K. Refson, J. R. Yates, M. Payne      |
 |                                                 |
 | Contributors:                                   |
 | P. Lindan, P. Haynes, J. White, V. Milman,      |
 | N. Govind, M. Gibson, P. Tulip, V. Cocula,      |
 | B. Montanari, D. Quigley, M. Glover,            |
 | L. Bernasconi, A. Perlov, M. Plummer,           |
 | E. McNellis, J. Meyer, J. Gale, D. Jochym       |
 | J. Aarons, B. Walker, R. Gillen, D. Jones       |
 | T. Green, I. J. Bush, C. J. Armstrong,          |
 | E. J. Higgins, E. L. Brown, M. S. McFly,        |
 | J. Wilkins, B-C. Shih, P. J. P. Byrne           |
 |                                                 |
 | Copyright (c) 2000 - 2017                       |
 |                                                 |
 |     Distributed under the terms of an           |
 |     Agreement between the United Kingdom        |
 |     Car-Parrinello (UKCP) Consortium,           |
 |     Daresbury Laboratory and Accelrys, Inc.     |
 |                                                 |
 | Please cite                                     |
 |                                                 |
 |     "First principles methods using CASTEP"     |
 |                                                 |
 |         Zeitschrift fuer Kristallographie       |
 |           220(5-6) pp. 567-570 (2005)           |
 |                                                 |
 | S. J. Clark, M. D. Segall, C. J. Pickard,       |
 | P. J. Hasnip, M. J. Probert, K. Refson,         |
 | M. C. Payne                                     |
 |                                                 |
 |       in all publications arising from          |
 |              your use of CASTEP                 |
 |                                                 |
 +-------------------------------------------------+


 Compiled for linux_x86_64_gfortran4.8 on Thu, 19 Jul 2018 15:42:32 +0100
 from code version 70483bd0ad64+  Sun, 10 Dec 2017 12:18:29 +0000
 Compiler: GNU Fortran 4.8.5; Optimisation: fast
 MATHLIBS: Intel MKL(2018.0.0) (LAPACK version 3.7.0)
 FFT Lib : mkl
 Fundamental constants values: CODATA 2014

 Run started: Wed, 02 Sep 2020 19:28:55 +0100

 Atomic calculation performed for H: 1s1

 Converged in 41 iterations to an ae energy of -12.488 eV

   ============================================================                
   | Pseudopotential Report - Date of generation  2-09-2020   |                
   ------------------------------------------------------------                
   | Element: H Ionic charge:  1.00 Level of theory: PBE      |                
   | Atomic Solver: Koelling-Harmon                           |                
   |                                                          |                
   |               Reference Electronic Structure             |                
   |         Orbital         Occupation         Energy        |                
   |            1s              1.000           -0.239        |                
   |                                                          |                
   |                 Pseudopotential Definition               |                
   |        Beta     l      e      Rc     scheme   norm       |                
   |          1      0   -0.239   0.599     qc      0         |                
   |          2      0    0.250   0.599     qc      0         |                
   |         loc     1    0.000   0.599     pn      0         |                
   |                                                          |                
   | Augmentation charge Rinner = 0.421                       |                
   | No partial core correction                               |                
   ------------------------------------------------------------                
   | "1|0.6|13|15|17|10(qc=8)"                                |                
   ------------------------------------------------------------                
   |      Author: Chris J. Pickard, Cambridge University      |                
   ============================================================                

 Pseudo atomic calculation performed for H 1s1

 Converged in 24 iterations to a total energy of -12.4869 eV

 Calculation parallelised over 18 processes.
 Data is distributed by k-point(18-way)

 ************************************ Title ************************************
 

 ***************************** General Parameters ******************************
  
 output verbosity                               : normal  (1)
 write checkpoint data to                       : Cmca-12.check
 type of calculation                            : geometry optimization
 stress calculation                             : on
 density difference calculation                 : off
 electron localisation func (ELF) calculation   : off
 Hirshfeld analysis                             : off
 unlimited duration calculation
 timing information                             : on
 memory usage estimate                          : on
 write extra output files                       : on
 write final potential to formatted file        : off
 write final density to formatted file          : off
 write structure in CELL formatted file         : on
 write BibTeX reference list                    : on
 write OTFG pseudopotential files               : on
 write electrostatic potential file             : on
 write bands file                               : on
 checkpoint writing                             : both castep_bin and check files
  
 output         length unit                     : A
 output           mass unit                     : amu
 output           time unit                     : ps
 output         charge unit                     : e
 output           spin unit                     : hbar/2
 output         energy unit                     : eV
 output          force unit                     : eV/A
 output       velocity unit                     : A/ps
 output       pressure unit                     : GPa
 output     inv_length unit                     : 1/A
 output      frequency unit                     : cm-1
 output force constant unit                     : eV/A**2
 output         volume unit                     : A**3
 output   IR intensity unit                     : (D/A)**2/amu
 output         dipole unit                     : D
 output         efield unit                     : eV/A/e
 output        entropy unit                     : J/mol/K
  
 wavefunctions paging                           : none
 random number generator seed                   : randomised (192856282)
 data distribution                              : optimal for this architecture
 optimization strategy                          : maximize speed(+++)

 *********************** Exchange-Correlation Parameters ***********************
  
 using functional                               : Perdew Burke Ernzerhof
 relativistic treatment                         : Koelling-Harmon
 DFT+D: Semi-empirical dispersion correction    : off

 ************************* Pseudopotential Parameters **************************
  
 pseudopotential representation                 : reciprocal space
 <beta|phi> representation                      : reciprocal space
 spin-orbit coupling                            : off

 **************************** Basis Set Parameters *****************************
  
 plane wave basis set cut-off                   :  2000.0000   eV
 size of standard grid                          :     2.0000
 size of   fine   gmax                          :    45.8230   1/A
 finite basis set correction                    : automatic
 number of sample energies                      :          3
           sample  spacing                      :     5.0000   eV

 **************************** Electronic Parameters ****************************
  
 number of  electrons                           :  24.00    
 net charge of system                           :  0.000    
 treating system as non-spin-polarized
 number of bands                                :         12

 ********************* Electronic Minimization Parameters **********************
  
 Method: Treating system as non-metallic,
         and number of  SD  steps               :          1
         and number of  CG  steps               :          4
  
 total energy / atom convergence tol.           : 0.1000E-10   eV
 eigen-energy convergence tolerance             : 0.2000E-10   eV
 max force / atom convergence tol.              : ignored
 convergence tolerance window                   :          3   cycles
 max. number of SCF cycles                      :        200
 periodic dipole correction                     : NONE

 ************************** Density Mixing Parameters **************************
  
 density-mixing scheme                          : Broyden
 max. length of mixing history                  :         20
 charge density mixing amplitude                : 0.8000    
 cut-off energy for mixing                      :  2000.       eV

 *********************** Population Analysis Parameters ************************
  
 Population analysis with cutoff                :  3.000       A
 Population analysis output                     : summary and pdos components

 ********************** Geometry Optimization Parameters ***********************
  
 optimization method                            : LBFGS
 max. no. of LBFGS updates                      : unbounded
 variable cell method                           : fixed basis quality
 max. number of steps                           :        200
 estimated bulk modulus                         :  500.0       GPa
 estimated <frequency>                          :  1668.       cm-1
 geom line minimiser                            : on
 with line minimiser tolerance                  :     0.4000
 total energy convergence tolerance             : 0.1000E-08   eV/atom
        max ionic |force| tolerance             : 0.1000E-04   eV/A
 max ionic |displacement| tolerance             : 0.1000E-04   A
   max |stress component| tolerance             : 0.1000E-04   GPa
 convergence tolerance window                   :          2   steps
 backup results every                           :      14400   seconds
 write geom trajectory file                     : on

 *******************************************************************************
  

                           -------------------------------
                                      Unit Cell
                           -------------------------------
        Real Lattice(A)                      Reciprocal Lattice(1/A)
     2.5550000     0.0000000     0.0000000        2.459172332   0.000000000   0.000000000
     0.0000000     4.7480000     0.0000000        0.000000000   1.323333047   0.000000000
     0.0000000     0.0000000     2.8710000        0.000000000   0.000000000   2.188500629

                       Lattice parameters(A)       Cell Angles
                    a =      2.555000          alpha =   90.000000
                    b =      4.748000          beta  =   90.000000
                    c =      2.871000          gamma =   90.000000

                       Current cell volume =            34.828503       A**3
                                   density =             0.694562   AMU/A**3
                                           =             1.153348     g/cm^3

                           -------------------------------
                                     Cell Contents
                           -------------------------------
                         Total number of ions in cell =   24
                      Total number of species in cell =    1
                        Max number of any one species =   24

            xxxxxxxxxxxxxxxxxxxxxxxxxxxxxxxxxxxxxxxxxxxxxxxxxxxxxxxxxxxx
            x  Element    Atom        Fractional coordinates of atoms  x
            x            Number           u          v          w      x
            x----------------------------------------------------------x
            x  H            1         0.000000   0.003600   0.135800   x 
            x  H            2         0.000000   0.131700   0.452700   x 
            x  H            3         0.000000   0.268900   0.316300   x 
            x  H            4         0.500000   0.268900   0.183700   x 
            x  H            5         0.500000   0.131700   0.047300   x 
            x  H            6         0.500000   0.003600   0.364200   x 
            x  H            7         0.500000   0.231100   0.683700   x 
            x  H            8         0.500000   0.368300   0.547300   x 
            x  H            9         0.500000   0.496400   0.864200   x 
            x  H           10         0.500000   0.731100   0.816300   x 
            x  H           11         0.500000   0.868300   0.952700   x 
            x  H           12         0.500000   0.996400   0.635800   x 
            x  H           13         0.500000   0.768900   0.316300   x 
            x  H           14         0.500000   0.631700   0.452700   x 
            x  H           15         0.500000   0.503600   0.135800   x 
            x  H           16         0.000000   0.768900   0.183700   x 
            x  H           17         0.000000   0.631700   0.047300   x 
            x  H           18         0.000000   0.503600   0.364200   x 
            x  H           19         0.000000   0.731100   0.683700   x 
            x  H           20         0.000000   0.868300   0.547300   x 
            x  H           21         0.000000   0.996400   0.864200   x 
            x  H           22         0.000000   0.231100   0.816300   x 
            x  H           23         0.000000   0.368300   0.952700   x 
            x  H           24         0.000000   0.496400   0.635800   x 
            xxxxxxxxxxxxxxxxxxxxxxxxxxxxxxxxxxxxxxxxxxxxxxxxxxxxxxxxxxxx


                         No user defined ionic velocities

                           -------------------------------
                                   Details of Species
                           -------------------------------

                               Mass of species in AMU
                                    H    1.0078250

                          Electric Quadrupole Moment (Barn)
                                    H    0.0028600 Isotope  2

                          Files used for pseudopotentials:
                                    H 1|0.6|13|15|17|10(qc=8)

                           -------------------------------
                              k-Points For BZ Sampling
                           -------------------------------
                       MP grid size for SCF calculation is 18 18 18
                            with an offset of   0.000  0.000  0.000
                       Number of kpoints used =          2916

                           -------------------------------
                               Symmetry and Constraints
                           -------------------------------

                      Cell is a supercell containing 2 primitive cells
                      Maximum deviation from symmetry =  0.00000         ANG

                      Number of symmetry operations   =           1
                      Number of ionic constraints     =           3
                      Point group of crystal =     1: C1, 1, 1
                      Space group of crystal =    64: Cmce, -C 2bc 2

             Set iprint > 1 for details on symmetry rotations/translations

                         Centre of mass is constrained
             Set iprint > 1 for details of linear ionic constraints

                         Number of cell constraints= 0
                         Cell constraints are:  1 2 3 4 5 6

                         External pressure/stress (GPa)
                        300.00000   0.00000   0.00000
                                  300.00000   0.00000
                                            300.00000
  
+---------------- MEMORY AND SCRATCH DISK ESTIMATES PER PROCESS --------------+
|                                                     Memory          Disk    |
| Baseline code, static data and system overhead      419.0 MB         0.0 MB |
| BLAS internal memory storage                          0.0 MB         0.0 MB |
| Model and support data                              424.9 MB         0.0 MB |
| Electronic energy minimisation requirements         464.4 MB         0.0 MB |
| Force calculation requirements                       14.8 MB         0.0 MB |
| Stress calculation requirements                      18.8 MB         0.0 MB |
|                                               ----------------------------- |
| Approx. total storage required per process         1308.2 MB         0.0 MB |
|                                                                             |
| Requirements will fluctuate during execution and may exceed these estimates |
+-----------------------------------------------------------------------------+
Calculating finite basis set correction with  3 cut-off energies.
Calculating total energy with cut-off of 1990.000 eV.
------------------------------------------------------------------------ <-- SCF
SCF loop      Energy                           Energy gain       Timer   <-- SCF
                                               per atom          (sec)   <-- SCF
------------------------------------------------------------------------ <-- SCF
Initial   5.38430855E+002                                         28.28  <-- SCF
      1  -2.90026774E+002                    3.45190679E+001     159.60  <-- SCF
      2  -3.41094600E+002                    2.12782610E+000     258.47  <-- SCF
      3  -3.41034163E+002                   -2.51822198E-003     381.70  <-- SCF
      4  -3.41026258E+002                   -3.29383723E-004     504.80  <-- SCF
      5  -3.41026492E+002                    9.75400373E-006     624.72  <-- SCF
      6  -3.41026509E+002                    7.19140643E-007     745.34  <-- SCF
      7  -3.41026509E+002                    2.66493080E-009     865.42  <-- SCF
      8  -3.41026509E+002                    9.51697701E-011     979.56  <-- SCF
      9  -3.41026509E+002                    1.22675612E-011    1067.54  <-- SCF
     10  -3.41026509E+002                    1.14196474E-012    1154.21  <-- SCF
     11  -3.41026509E+002                   -8.66040276E-014    1241.73  <-- SCF
------------------------------------------------------------------------ <-- SCF
 
Final energy =  -341.0265092863     eV
(energy not corrected for finite basis set)
 
Calculating total energy with cut-off of 1995.000 eV.
------------------------------------------------------------------------ <-- SCF
SCF loop      Energy                           Energy gain       Timer   <-- SCF
                                               per atom          (sec)   <-- SCF
------------------------------------------------------------------------ <-- SCF
Initial  -3.41026509E+002                                       1274.74  <-- SCF
      1  -3.41026524E+002                    5.99916030E-007    1388.28  <-- SCF
      2  -3.41026524E+002                    6.48523183E-013    1474.68  <-- SCF
      3  -3.41026524E+002                    1.32044959E-010    1561.14  <-- SCF
      4  -3.41026524E+002                    3.89919529E-012    1647.72  <-- SCF
      5  -3.41026524E+002                    1.16814735E-013    1735.19  <-- SCF
------------------------------------------------------------------------ <-- SCF
 
Final energy =  -341.0265236875     eV
(energy not corrected for finite basis set)
 
Calculating total energy with cut-off of 2000.000 eV.
------------------------------------------------------------------------ <-- SCF
SCF loop      Energy                           Energy gain       Timer   <-- SCF
                                               per atom          (sec)   <-- SCF
------------------------------------------------------------------------ <-- SCF
Initial  -3.41026524E+002                                       1768.13  <-- SCF
      1  -3.41026538E+002                    5.80455455E-007    1888.33  <-- SCF
      2  -3.41026538E+002                    1.14397878E-012    1975.10  <-- SCF
      3  -3.41026538E+002                    1.28629135E-010    2068.95  <-- SCF
      4  -3.41026538E+002                    3.47221729E-012    2187.94  <-- SCF
      5  -3.41026538E+002                    2.05432810E-013    2305.78  <-- SCF
------------------------------------------------------------------------ <-- SCF
 
Final energy =  -341.0265376217     eV
(energy not corrected for finite basis set)
 
 For future reference: finite basis dEtot/dlog(Ecut) =      -0.005661eV
 Total energy corrected for finite basis set =    -341.026538 eV
 
+---------------- MEMORY AND SCRATCH DISK ESTIMATES PER PROCESS --------------+
|                                                     Memory          Disk    |
| Model and support data                              429.9 MB         0.0 MB |
| Electronic energy minimisation requirements         464.4 MB         0.0 MB |
| Geometry minimisation requirements                  681.6 MB         0.0 MB |
|                                               ----------------------------- |
| Approx. total storage required per process         1575.9 MB         0.0 MB |
|                                                                             |
| Requirements will fluctuate during execution and may exceed these estimates |
+-----------------------------------------------------------------------------+
 

 ************************************** Forces **************************************
 *                                                                                  *
 *                           Cartesian components (eV/A)                            *
 * -------------------------------------------------------------------------------- *
 *                         x                    y                    z              *
 *                                                                                  *
 * H               1      0.00000              0.01201             -0.11577         *
 * H               2      0.00000              0.08294             -0.00876         *
 * H               3     -0.00000             -0.08086              0.04027         *
 * H               4      0.00000             -0.08085             -0.04032         *
 * H               5     -0.00000              0.08294              0.00871         *
 * H               6     -0.00000              0.01203              0.11577         *
 * H               7      0.00000              0.08085             -0.04027         *
 * H               8     -0.00000             -0.08294              0.00876         *
 * H               9      0.00000             -0.01201              0.11577         *
 * H              10      0.00000              0.08085              0.04032         *
 * H              11     -0.00000             -0.08294             -0.00871         *
 * H              12     -0.00000             -0.01203             -0.11577         *
 * H              13      0.00000             -0.08085              0.04027         *
 * H              14      0.00000              0.08294             -0.00876         *
 * H              15      0.00000              0.01201             -0.11577         *
 * H              16     -0.00000             -0.08085             -0.04032         *
 * H              17      0.00000              0.08294              0.00871         *
 * H              18      0.00000              0.01203              0.11577         *
 * H              19     -0.00000              0.08086             -0.04027         *
 * H              20      0.00000             -0.08294              0.00876         *
 * H              21      0.00000             -0.01201              0.11577         *
 * H              22      0.00000              0.08085              0.04032         *
 * H              23     -0.00000             -0.08294             -0.00871         *
 * H              24     -0.00000             -0.01203             -0.11577         *
 *                                                                                  *
 ************************************************************************************

 ***************** Stress Tensor *****************
 *                                               *
 *          Cartesian components (GPa)           *
 * --------------------------------------------- *
 *             x             y             z     *
 *                                               *
 *  x   -302.647958     -0.000000      0.000000  *
 *  y     -0.000000   -300.758569     -0.000012  *
 *  z      0.000000     -0.000012   -296.598161  *
 *                                               *
 *  Pressure:  300.0016                          *
 *                                               *
 *************************************************
 LBFGS: finished iteration     0 with enthalpy= -2.75811812E+002 eV
  
 +-----------+-----------------+-----------------+------------+-----+ <-- LBFGS
 | Parameter |      value      |    tolerance    |    units   | OK? | <-- LBFGS
 +-----------+-----------------+-----------------+------------+-----+ <-- LBFGS
 |  dE/ion   |   0.000000E+000 |   1.000000E-009 |         eV | No  | <-- LBFGS
 |  |F|max   |   1.163957E-001 |   1.000000E-005 |       eV/A | No  | <-- LBFGS
 |  |dR|max  |   0.000000E+000 |   1.000000E-005 |          A | No  | <-- LBFGS
 |   Smax    |   3.401839E+000 |   1.000000E-005 |        GPa | No  | <-- LBFGS
 +-----------+-----------------+-----------------+------------+-----+ <-- LBFGS
  

================================================================================
 Starting LBFGS iteration          1 ...
================================================================================
  
 +------------+-------------+-------------+-----------------+ <-- min LBFGS
 |    Step    |   lambda    |   F.delta'  |    enthalpy     | <-- min LBFGS
 +------------+-------------+-------------+-----------------+ <-- min LBFGS
 |  previous  |    0.000000 |    0.066405 |     -275.811812 | <-- min LBFGS
 +------------+-------------+-------------+-----------------+ <-- min LBFGS
  

--------------------------------------------------------------------------------
 LBFGS: starting iteration         1 with trial guess (lambda=  1.000000)
--------------------------------------------------------------------------------
 
+---------------- MEMORY AND SCRATCH DISK ESTIMATES PER PROCESS --------------+
|                                                     Memory          Disk    |
| Model and support data                              430.0 MB         0.0 MB |
| Electronic energy minimisation requirements         464.5 MB         0.0 MB |
| Geometry minimisation requirements                  681.8 MB         0.0 MB |
|                                               ----------------------------- |
| Approx. total storage required per process         1576.3 MB         0.0 MB |
|                                                                             |
| Requirements will fluctuate during execution and may exceed these estimates |
+-----------------------------------------------------------------------------+
 

                           -------------------------------
                                      Unit Cell
                           -------------------------------
        Real Lattice(A)              Reciprocal Lattice(1/A)
     2.5595104     0.0000000    -0.0000000        2.454838791  -0.000000000   0.000000000
     0.0000000     4.7504011     0.0000000       -0.000000000   1.322664159  -0.000000011
    -0.0000000     0.0000000     2.8644889        0.000000000  -0.000000018   2.193475196

                       Lattice parameters(A)       Cell Angles
                    a =      2.559510          alpha =   89.999999
                    b =      4.750401          beta  =   90.000000
                    c =      2.864489          gamma =   90.000000

                Current cell volume =            34.828463 A**3

                           -------------------------------
                                     Cell Contents
                           -------------------------------

            xxxxxxxxxxxxxxxxxxxxxxxxxxxxxxxxxxxxxxxxxxxxxxxxxxxxxxxxxxxxxxxxx
            x  Element         Atom        Fractional coordinates of atoms  x
            x                 Number           u          v          w      x
            x---------------------------------------------------------------x
            x  H                 1         0.000000   0.003845   0.131888   x
            x  H                 2         0.000000   0.133394   0.452404   x
            x  H                 3        -0.000000   0.267248   0.317661   x
            x  H                 4         0.500000   0.267248   0.182338   x
            x  H                 5         0.500000   0.133394   0.047594   x
            x  H                 6         0.500000   0.003846   0.368111   x
            x  H                 7         0.500000   0.232752   0.682339   x
            x  H                 8         0.500000   0.366606   0.547596   x
            x  H                 9         0.500000   0.496155   0.868112   x
            x  H                10         0.500000   0.732752   0.817662   x
            x  H                11         0.500000   0.866606   0.952406   x
            x  H                12         0.500000   0.996154   0.631889   x
            x  H                13         0.500000   0.767248   0.317661   x
            x  H                14         0.500000   0.633394   0.452404   x
            x  H                15         0.500000   0.503845   0.131888   x
            x  H                16        -0.000000   0.767248   0.182338   x
            x  H                17         0.000000   0.633394   0.047594   x
            x  H                18         0.000000   0.503846   0.368111   x
            x  H                19        -0.000000   0.732752   0.682339   x
            x  H                20         0.000000   0.866606   0.547596   x
            x  H                21         0.000000   0.996155   0.868112   x
            x  H                22         0.000000   0.232752   0.817662   x
            x  H                23        -0.000000   0.366606   0.952406   x
            x  H                24        -0.000000   0.496154   0.631889   x
            xxxxxxxxxxxxxxxxxxxxxxxxxxxxxxxxxxxxxxxxxxxxxxxxxxxxxxxxxxxxxxxxx


------------------------------------------------------------------------ <-- SCF
SCF loop      Energy                           Energy gain       Timer   <-- SCF
                                               per atom          (sec)   <-- SCF
------------------------------------------------------------------------ <-- SCF
Initial  -3.40810034E+002                                       2592.23  <-- SCF
      1  -3.41032417E+002                    9.26596658E-003    2749.47  <-- SCF
      2  -3.41033269E+002                    3.54985538E-005    2913.00  <-- SCF
      3  -3.41005618E+002                   -1.15213712E-003    3078.45  <-- SCF
      4  -3.41004899E+002                   -2.99792767E-005    3237.22  <-- SCF
      5  -3.41004897E+002                   -6.76923645E-008    3401.44  <-- SCF
      6  -3.41004897E+002                    7.15921257E-010    3532.82  <-- SCF
      7  -3.41004897E+002                    3.97411784E-011    3626.12  <-- SCF
      8  -3.41004897E+002                    2.45109539E-012    3715.05  <-- SCF
      9  -3.41004897E+002                   -1.89320432E-013    3803.76  <-- SCF
------------------------------------------------------------------------ <-- SCF
 
Final energy =  -341.0048969321     eV
(energy not corrected for finite basis set)
 

 ************************************** Forces **************************************
 *                                                                                  *
 *                           Cartesian components (eV/A)                            *
 * -------------------------------------------------------------------------------- *
 *                         x                    y                    z              *
 *                                                                                  *
 * H               1     -0.00000              0.01636              0.36929         *
 * H               2     -0.00000             -0.28951              0.17706         *
 * H               3      0.00000              0.17183             -0.13054         *
 * H               4     -0.00000              0.17182              0.13057         *
 * H               5      0.00000             -0.28951             -0.17705         *
 * H               6      0.00000              0.01639             -0.36913         *
 * H               7     -0.00000             -0.17183              0.13054         *
 * H               8      0.00000              0.28952             -0.17706         *
 * H               9     -0.00000             -0.01636             -0.36929         *
 * H              10     -0.00000             -0.17182             -0.13057         *
 * H              11      0.00000              0.28951              0.17705         *
 * H              12      0.00000             -0.01639              0.36913         *
 * H              13      0.00000              0.17183             -0.13054         *
 * H              14     -0.00000             -0.28952              0.17706         *
 * H              15     -0.00000              0.01636              0.36929         *
 * H              16      0.00000              0.17182              0.13057         *
 * H              17     -0.00000             -0.28951             -0.17705         *
 * H              18     -0.00000              0.01639             -0.36913         *
 * H              19      0.00000             -0.17183              0.13054         *
 * H              20     -0.00000              0.28951             -0.17706         *
 * H              21     -0.00000             -0.01636             -0.36929         *
 * H              22     -0.00000             -0.17182             -0.13057         *
 * H              23      0.00000              0.28951              0.17705         *
 * H              24      0.00000             -0.01639              0.36913         *
 *                                                                                  *
 ************************************************************************************

 ***************** Stress Tensor *****************
 *                                               *
 *          Cartesian components (GPa)           *
 * --------------------------------------------- *
 *             x             y             z     *
 *                                               *
 *  x   -300.167932      0.000000      0.000000  *
 *  y      0.000000   -307.486371      0.000324  *
 *  z      0.000000      0.000324   -308.509478  *
 *                                               *
 *  Pressure:  305.3879                          *
 *                                               *
 *************************************************
  
 +------------+-------------+-------------+-----------------+ <-- min LBFGS
 |    Step    |   lambda    |   F.delta'  |    enthalpy     | <-- min LBFGS
 +------------+-------------+-------------+-----------------+ <-- min LBFGS
 |  previous  |    0.000000 |    0.066405 |     -275.811812 | <-- min LBFGS
 | trial step |    1.000000 |   -0.188334 |     -275.790245 | <-- min LBFGS
 +------------+-------------+-------------+-----------------+ <-- min LBFGS
  

--------------------------------------------------------------------------------
 LBFGS: improving iteration         1 with line minimization (lambda=  0.260678)
--------------------------------------------------------------------------------

                           -------------------------------
                                      Unit Cell
                           -------------------------------
        Real Lattice(A)              Reciprocal Lattice(1/A)
     2.5561757     0.0000000    -0.0000000        2.458041200  -0.000000000   0.000000000
     0.0000000     4.7486259     0.0000000       -0.000000000   1.323158618  -0.000000003
    -0.0000000     0.0000000     2.8693027        0.000000000  -0.000000005   2.189795213

                       Lattice parameters(A)       Cell Angles
                    a =      2.556176          alpha =   90.000000
                    b =      4.748626          beta  =   90.000000
                    c =      2.869303          gamma =   90.000000

                Current cell volume =            34.828521 A**3

                           -------------------------------
                                     Cell Contents
                           -------------------------------

            xxxxxxxxxxxxxxxxxxxxxxxxxxxxxxxxxxxxxxxxxxxxxxxxxxxxxxxxxxxxxxxxx
            x  Element         Atom        Fractional coordinates of atoms  x
            x                 Number           u          v          w      x
            x---------------------------------------------------------------x
            x  H                 1         0.000000   0.003664   0.134780   x
            x  H                 2         0.000000   0.132142   0.452623   x
            x  H                 3        -0.000000   0.268469   0.316655   x
            x  H                 4         0.500000   0.268469   0.183345   x
            x  H                 5         0.500000   0.132142   0.047377   x
            x  H                 6         0.500000   0.003664   0.365220   x
            x  H                 7         0.500000   0.231531   0.683345   x
            x  H                 8         0.500000   0.367858   0.547377   x
            x  H                 9         0.500000   0.496336   0.865220   x
            x  H                10         0.500000   0.731531   0.816655   x
            x  H                11         0.500000   0.867858   0.952623   x
            x  H                12         0.500000   0.996336   0.634780   x
            x  H                13         0.500000   0.768469   0.316655   x
            x  H                14         0.500000   0.632142   0.452623   x
            x  H                15         0.500000   0.503664   0.134780   x
            x  H                16        -0.000000   0.768469   0.183345   x
            x  H                17         0.000000   0.632142   0.047377   x
            x  H                18         0.000000   0.503664   0.365220   x
            x  H                19        -0.000000   0.731531   0.683345   x
            x  H                20         0.000000   0.867858   0.547377   x
            x  H                21         0.000000   0.996336   0.865220   x
            x  H                22         0.000000   0.231531   0.816655   x
            x  H                23        -0.000000   0.367858   0.952623   x
            x  H                24        -0.000000   0.496336   0.634780   x
            xxxxxxxxxxxxxxxxxxxxxxxxxxxxxxxxxxxxxxxxxxxxxxxxxxxxxxxxxxxxxxxxx


------------------------------------------------------------------------ <-- SCF
SCF loop      Energy                           Energy gain       Timer   <-- SCF
                                               per atom          (sec)   <-- SCF
------------------------------------------------------------------------ <-- SCF
Initial  -3.40923152E+002                                       4042.32  <-- SCF
      1  -3.41045116E+002                    5.08185560E-003    4160.45  <-- SCF
      2  -3.41045595E+002                    1.99461466E-005    4286.73  <-- SCF
      3  -3.41030453E+002                   -6.30898080E-004    4412.79  <-- SCF
      4  -3.41030067E+002                   -1.61073766E-005    4540.96  <-- SCF
      5  -3.41030066E+002                   -3.71395693E-008    4667.19  <-- SCF
      6  -3.41030066E+002                    3.32082137E-010    4793.41  <-- SCF
      7  -3.41030066E+002                    2.00760220E-011    4884.64  <-- SCF
      8  -3.41030066E+002                    1.18023163E-012    4973.43  <-- SCF
      9  -3.41030066E+002                    3.50444205E-013    5062.23  <-- SCF
------------------------------------------------------------------------ <-- SCF
 
Final energy =  -341.0300660272     eV
(energy not corrected for finite basis set)
 

 ************************************** Forces **************************************
 *                                                                                  *
 *                           Cartesian components (eV/A)                            *
 * -------------------------------------------------------------------------------- *
 *                         x                    y                    z              *
 *                                                                                  *
 * H               1      0.00000              0.01224              0.00027         *
 * H               2     -0.00000             -0.01006              0.03690         *
 * H               3      0.00000             -0.01926             -0.00150         *
 * H               4     -0.00000             -0.01926              0.00147         *
 * H               5      0.00000             -0.01006             -0.03694         *
 * H               6      0.00000              0.01227             -0.00024         *
 * H               7     -0.00000              0.01926              0.00150         *
 * H               8      0.00000              0.01006             -0.03690         *
 * H               9     -0.00000             -0.01224             -0.00027         *
 * H              10      0.00000              0.01926             -0.00147         *
 * H              11      0.00000              0.01006              0.03694         *
 * H              12      0.00000             -0.01227              0.00024         *
 * H              13      0.00000             -0.01926             -0.00150         *
 * H              14     -0.00000             -0.01006              0.03690         *
 * H              15     -0.00000              0.01224              0.00027         *
 * H              16     -0.00000             -0.01926              0.00147         *
 * H              17     -0.00000             -0.01006             -0.03694         *
 * H              18     -0.00000              0.01227             -0.00024         *
 * H              19     -0.00000              0.01926              0.00150         *
 * H              20     -0.00000              0.01006             -0.03690         *
 * H              21     -0.00000             -0.01224             -0.00027         *
 * H              22      0.00000              0.01926             -0.00147         *
 * H              23      0.00000              0.01006              0.03694         *
 * H              24      0.00000             -0.01227              0.00024         *
 *                                                                                  *
 ************************************************************************************

 ***************** Stress Tensor *****************
 *                                               *
 *          Cartesian components (GPa)           *
 * --------------------------------------------- *
 *             x             y             z     *
 *                                               *
 *  x   -302.012244      0.000000      0.000000  *
 *  y      0.000000   -302.438279      0.000067  *
 *  z      0.000000      0.000067   -299.575025  *
 *                                               *
 *  Pressure:  301.3418                          *
 *                                               *
 *************************************************
  
 +------------+-------------+-------------+-----------------+ <-- min LBFGS
 |    Step    |   lambda    |   F.delta'  |    enthalpy     | <-- min LBFGS
 +------------+-------------+-------------+-----------------+ <-- min LBFGS
 |  previous  |    0.000000 |    0.066405 |     -275.811812 | <-- min LBFGS
 | trial step |    1.000000 |   -0.188334 |     -275.790245 | <-- min LBFGS
 |  line step |    0.260678 |    0.004260 |     -275.815306 | <-- min LBFGS
 +------------+-------------+-------------+-----------------+ <-- min LBFGS
  
 LBFGS: finished iteration     1 with enthalpy= -2.75815306E+002 eV
  
 +-----------+-----------------+-----------------+------------+-----+ <-- LBFGS
 | Parameter |      value      |    tolerance    |    units   | OK? | <-- LBFGS
 +-----------+-----------------+-----------------+------------+-----+ <-- LBFGS
 |  dE/ion   |   1.455875E-004 |   1.000000E-009 |         eV | No  | <-- LBFGS
 |  |F|max   |   3.828259E-002 |   1.000000E-005 |       eV/A | No  | <-- LBFGS
 |  |dR|max  |   2.941466E-003 |   1.000000E-005 |          A | No  | <-- LBFGS
 |   Smax    |   2.438279E+000 |   1.000000E-005 |        GPa | No  | <-- LBFGS
 +-----------+-----------------+-----------------+------------+-----+ <-- LBFGS
  

================================================================================
 Starting LBFGS iteration          2 ...
================================================================================
  
 +------------+-------------+-------------+-----------------+ <-- min LBFGS
 |    Step    |   lambda    |   F.delta'  |    enthalpy     | <-- min LBFGS
 +------------+-------------+-------------+-----------------+ <-- min LBFGS
 |  previous  |    0.000000 |    0.025385 |     -275.815306 | <-- min LBFGS
 +------------+-------------+-------------+-----------------+ <-- min LBFGS
  

--------------------------------------------------------------------------------
 LBFGS: starting iteration         2 with trial guess (lambda=  1.000000)
--------------------------------------------------------------------------------
 
+---------------- MEMORY AND SCRATCH DISK ESTIMATES PER PROCESS --------------+
|                                                     Memory          Disk    |
| Model and support data                              431.0 MB         0.0 MB |
| Electronic energy minimisation requirements         465.6 MB         0.0 MB |
| Geometry minimisation requirements                  683.5 MB         0.0 MB |
|                                               ----------------------------- |
| Approx. total storage required per process         1580.1 MB         0.0 MB |
|                                                                             |
| Requirements will fluctuate during execution and may exceed these estimates |
+-----------------------------------------------------------------------------+
 

                           -------------------------------
                                      Unit Cell
                           -------------------------------
        Real Lattice(A)              Reciprocal Lattice(1/A)
     2.5602074     0.0000000    -0.0000000        2.454170455  -0.000000000   0.000000000
     0.0000000     4.7570693    -0.0000002       -0.000000000   1.320810136   0.000000059
    -0.0000000    -0.0000001     2.8678977        0.000000000   0.000000098   2.190868021

                       Lattice parameters(A)       Cell Angles
                    a =      2.560207          alpha =   90.000005
                    b =      4.757069          beta  =   90.000000
                    c =      2.867898          gamma =   90.000000

                Current cell volume =            34.928366 A**3

                           -------------------------------
                                     Cell Contents
                           -------------------------------

            xxxxxxxxxxxxxxxxxxxxxxxxxxxxxxxxxxxxxxxxxxxxxxxxxxxxxxxxxxxxxxxxx
            x  Element         Atom        Fractional coordinates of atoms  x
            x                 Number           u          v          w      x
            x---------------------------------------------------------------x
            x  H                 1         0.000000   0.003951   0.134469   x
            x  H                 2        -0.000000   0.132061   0.453930   x
            x  H                 3         0.000000   0.267913   0.316712   x
            x  H                 4         0.500000   0.267913   0.183286   x
            x  H                 5         0.500000   0.132061   0.046068   x
            x  H                 6         0.500000   0.003952   0.365533   x
            x  H                 7         0.500000   0.232087   0.683288   x
            x  H                 8         0.500000   0.367939   0.546070   x
            x  H                 9         0.500000   0.496049   0.865531   x
            x  H                10         0.500000   0.732087   0.816714   x
            x  H                11         0.500000   0.867939   0.953932   x
            x  H                12         0.500000   0.996048   0.634467   x
            x  H                13         0.500000   0.767913   0.316712   x
            x  H                14         0.500000   0.632061   0.453930   x
            x  H                15         0.500000   0.503951   0.134469   x
            x  H                16        -0.000000   0.767913   0.183286   x
            x  H                17        -0.000000   0.632061   0.046068   x
            x  H                18        -0.000000   0.503952   0.365533   x
            x  H                19        -0.000000   0.732087   0.683288   x
            x  H                20        -0.000000   0.867939   0.546070   x
            x  H                21        -0.000000   0.996049   0.865531   x
            x  H                22         0.000000   0.232087   0.816714   x
            x  H                23         0.000000   0.367939   0.953932   x
            x  H                24         0.000000   0.496048   0.634467   x
            xxxxxxxxxxxxxxxxxxxxxxxxxxxxxxxxxxxxxxxxxxxxxxxxxxxxxxxxxxxxxxxxx


------------------------------------------------------------------------ <-- SCF
SCF loop      Energy                           Energy gain       Timer   <-- SCF
                                               per atom          (sec)   <-- SCF
------------------------------------------------------------------------ <-- SCF
Initial  -3.41210007E+002                                       5301.68  <-- SCF
      1  -3.41218818E+002                    3.67126141E-004    5422.16  <-- SCF
      2  -3.41218850E+002                    1.33085239E-006    5547.66  <-- SCF
      3  -3.41218802E+002                   -1.97618610E-006    5672.62  <-- SCF
      4  -3.41218806E+002                    1.65093465E-007    5798.25  <-- SCF
      5  -3.41218806E+002                    2.77633782E-009    5923.64  <-- SCF
      6  -3.41218806E+002                    1.13060551E-010    6012.91  <-- SCF
      7  -3.41218806E+002                    2.87001719E-012    6101.25  <-- SCF
      8  -3.41218806E+002                   -2.81966601E-014    6189.57  <-- SCF
------------------------------------------------------------------------ <-- SCF
 
Final energy =  -341.2188064987     eV
(energy not corrected for finite basis set)
 

 ************************************** Forces **************************************
 *                                                                                  *
 *                           Cartesian components (eV/A)                            *
 * -------------------------------------------------------------------------------- *
 *                         x                    y                    z              *
 *                                                                                  *
 * H               1     -0.00000              0.00612              0.03417         *
 * H               2      0.00000              0.01191              0.01024         *
 * H               3     -0.00000             -0.03231              0.00738         *
 * H               4      0.00000             -0.03231             -0.00739         *
 * H               5     -0.00000              0.01191             -0.01024         *
 * H               6     -0.00000              0.00615             -0.03424         *
 * H               7      0.00000              0.03231             -0.00738         *
 * H               8     -0.00000             -0.01191             -0.01024         *
 * H               9      0.00000             -0.00612             -0.03417         *
 * H              10     -0.00000              0.03231              0.00739         *
 * H              11     -0.00000             -0.01191              0.01024         *
 * H              12      0.00000             -0.00615              0.03424         *
 * H              13     -0.00000             -0.03231              0.00738         *
 * H              14      0.00000              0.01191              0.01024         *
 * H              15     -0.00000              0.00612              0.03417         *
 * H              16      0.00000             -0.03231             -0.00739         *
 * H              17      0.00000              0.01191             -0.01024         *
 * H              18      0.00000              0.00615             -0.03424         *
 * H              19      0.00000              0.03231             -0.00738         *
 * H              20      0.00000             -0.01191             -0.01024         *
 * H              21      0.00000             -0.00612             -0.03417         *
 * H              22     -0.00000              0.03231              0.00739         *
 * H              23     -0.00000             -0.01191              0.01024         *
 * H              24     -0.00000             -0.00615              0.03424         *
 *                                                                                  *
 ************************************************************************************

 ***************** Stress Tensor *****************
 *                                               *
 *          Cartesian components (GPa)           *
 * --------------------------------------------- *
 *             x             y             z     *
 *                                               *
 *  x   -299.499458      0.000000     -0.000000  *
 *  y      0.000000   -298.829159      0.000382  *
 *  z     -0.000000      0.000382   -299.411507  *
 *                                               *
 *  Pressure:  299.2467                          *
 *                                               *
 *************************************************
  
 +------------+-------------+-------------+-----------------+ <-- min LBFGS
 |    Step    |   lambda    |   F.delta'  |    enthalpy     | <-- min LBFGS
 +------------+-------------+-------------+-----------------+ <-- min LBFGS
 |  previous  |    0.000000 |    0.025385 |     -275.815306 | <-- min LBFGS
 | trial step |    1.000000 |    0.001702 |     -275.817091 | <-- min LBFGS
 +------------+-------------+-------------+-----------------+ <-- min LBFGS
  
 LBFGS: finished iteration     2 with enthalpy= -2.75817091E+002 eV
  
 +-----------+-----------------+-----------------+------------+-----+ <-- LBFGS
 | Parameter |      value      |    tolerance    |    units   | OK? | <-- LBFGS
 +-----------+-----------------+-----------------+------------+-----+ <-- LBFGS
 |  dE/ion   |   7.439225E-005 |   1.000000E-009 |         eV | No  | <-- LBFGS
 |  |F|max   |   3.479112E-002 |   1.000000E-005 |       eV/A | No  | <-- LBFGS
 |  |dR|max  |   3.772095E-003 |   1.000000E-005 |          A | No  | <-- LBFGS
 |   Smax    |   1.170841E+000 |   1.000000E-005 |        GPa | No  | <-- LBFGS
 +-----------+-----------------+-----------------+------------+-----+ <-- LBFGS
  

================================================================================
 Starting LBFGS iteration          3 ...
================================================================================
  
 +------------+-------------+-------------+-----------------+ <-- min LBFGS
 |    Step    |   lambda    |   F.delta'  |    enthalpy     | <-- min LBFGS
 +------------+-------------+-------------+-----------------+ <-- min LBFGS
 |  previous  |    0.000000 |    0.015736 |     -275.817091 | <-- min LBFGS
 +------------+-------------+-------------+-----------------+ <-- min LBFGS
  

--------------------------------------------------------------------------------
 LBFGS: starting iteration         3 with trial guess (lambda=  1.000000)
--------------------------------------------------------------------------------
 
+---------------- MEMORY AND SCRATCH DISK ESTIMATES PER PROCESS --------------+
|                                                     Memory          Disk    |
| Model and support data                              431.3 MB         0.0 MB |
| Electronic energy minimisation requirements         466.0 MB         0.0 MB |
| Geometry minimisation requirements                  684.0 MB         0.0 MB |
|                                               ----------------------------- |
| Approx. total storage required per process         1581.3 MB         0.0 MB |
|                                                                             |
| Requirements will fluctuate during execution and may exceed these estimates |
+-----------------------------------------------------------------------------+
 

                           -------------------------------
                                      Unit Cell
                           -------------------------------
        Real Lattice(A)              Reciprocal Lattice(1/A)
     2.5624464    -0.0000000     0.0000000        2.452026048   0.000000000  -0.000000000
    -0.0000000     4.7596078    -0.0000017        0.000000000   1.320105682   0.000000470
     0.0000000    -0.0000010     2.8655236       -0.000000000   0.000000775   2.192683169

                       Lattice parameters(A)       Cell Angles
                    a =      2.562446          alpha =   90.000041
                    b =      4.759608          beta  =   90.000000
                    c =      2.865524          gamma =   90.000000

                Current cell volume =            34.948613 A**3

                           -------------------------------
                                     Cell Contents
                           -------------------------------

            xxxxxxxxxxxxxxxxxxxxxxxxxxxxxxxxxxxxxxxxxxxxxxxxxxxxxxxxxxxxxxxxx
            x  Element         Atom        Fractional coordinates of atoms  x
            x                 Number           u          v          w      x
            x---------------------------------------------------------------x
            x  H                 1        -0.000000   0.004310   0.135415   x
            x  H                 2         0.000000   0.132283   0.455301   x
            x  H                 3        -0.000000   0.266756   0.317041   x
            x  H                 4         0.500000   0.266756   0.182956   x
            x  H                 5         0.500000   0.132282   0.044697   x
            x  H                 6         0.500000   0.004312   0.364584   x
            x  H                 7         0.500000   0.233244   0.682959   x
            x  H                 8         0.500000   0.367717   0.544699   x
            x  H                 9         0.500000   0.495690   0.864585   x
            x  H                10         0.500000   0.733244   0.817044   x
            x  H                11         0.500000   0.867718   0.955303   x
            x  H                12         0.500000   0.995688   0.635416   x
            x  H                13         0.500000   0.766756   0.317041   x
            x  H                14         0.500000   0.632283   0.455301   x
            x  H                15         0.500000   0.504310   0.135415   x
            x  H                16         0.000000   0.766756   0.182956   x
            x  H                17         0.000000   0.632282   0.044697   x
            x  H                18         0.000000   0.504312   0.364584   x
            x  H                19        -0.000000   0.733244   0.682959   x
            x  H                20         0.000000   0.867717   0.544699   x
            x  H                21         0.000000   0.995690   0.864585   x
            x  H                22        -0.000000   0.233244   0.817044   x
            x  H                23        -0.000000   0.367718   0.955303   x
            x  H                24        -0.000000   0.495688   0.635416   x
            xxxxxxxxxxxxxxxxxxxxxxxxxxxxxxxxxxxxxxxxxxxxxxxxxxxxxxxxxxxxxxxxx


------------------------------------------------------------------------ <-- SCF
SCF loop      Energy                           Energy gain       Timer   <-- SCF
                                               per atom          (sec)   <-- SCF
------------------------------------------------------------------------ <-- SCF
Initial  -3.41234545E+002                                       6433.25  <-- SCF
      1  -3.41256253E+002                    9.04483648E-004    6557.00  <-- SCF
      2  -3.41256319E+002                    2.75050821E-006    6690.52  <-- SCF
      3  -3.41254628E+002                   -7.04536182E-005    6824.45  <-- SCF
      4  -3.41254632E+002                    1.81176379E-007    6956.72  <-- SCF
      5  -3.41254633E+002                    2.68669177E-008    7089.16  <-- SCF
      6  -3.41254633E+002                    3.75287476E-010    7218.64  <-- SCF
      7  -3.41254633E+002                    6.16499834E-012    7311.36  <-- SCF
      8  -3.41254633E+002                    5.39764637E-013    7404.06  <-- SCF
------------------------------------------------------------------------ <-- SCF
 
Final energy =  -341.2546331272     eV
(energy not corrected for finite basis set)
 

 ************************************** Forces **************************************
 *                                                                                  *
 *                           Cartesian components (eV/A)                            *
 * -------------------------------------------------------------------------------- *
 *                         x                    y                    z              *
 *                                                                                  *
 * H               1      0.00000             -0.02766             -0.13171         *
 * H               2     -0.00000             -0.08358              0.05147         *
 * H               3      0.00000              0.09150             -0.03477         *
 * H               4     -0.00000              0.09151              0.03485         *
 * H               5      0.00000             -0.08359             -0.05142         *
 * H               6     -0.00000             -0.02766              0.13191         *
 * H               7     -0.00000             -0.09150              0.03477         *
 * H               8      0.00000              0.08358             -0.05147         *
 * H               9     -0.00000              0.02766              0.13171         *
 * H              10      0.00000             -0.09151             -0.03485         *
 * H              11     -0.00000              0.08359              0.05142         *
 * H              12     -0.00000              0.02766             -0.13191         *
 * H              13      0.00000              0.09150             -0.03477         *
 * H              14     -0.00000             -0.08358              0.05147         *
 * H              15      0.00000             -0.02766             -0.13171         *
 * H              16     -0.00000              0.09151              0.03485         *
 * H              17     -0.00000             -0.08359             -0.05142         *
 * H              18     -0.00000             -0.02766              0.13191         *
 * H              19      0.00000             -0.09150              0.03477         *
 * H              20     -0.00000              0.08358             -0.05147         *
 * H              21     -0.00000              0.02766              0.13171         *
 * H              22      0.00000             -0.09151             -0.03485         *
 * H              23     -0.00000              0.08359              0.05142         *
 * H              24      0.00000              0.02766             -0.13191         *
 *                                                                                  *
 ************************************************************************************

 ***************** Stress Tensor *****************
 *                                               *
 *          Cartesian components (GPa)           *
 * --------------------------------------------- *
 *             x             y             z     *
 *                                               *
 *  x   -298.058997      0.000000     -0.000000  *
 *  y      0.000000   -300.387537     -0.000091  *
 *  z     -0.000000     -0.000091   -298.888739  *
 *                                               *
 *  Pressure:  299.1118                          *
 *                                               *
 *************************************************
  
 +------------+-------------+-------------+-----------------+ <-- min LBFGS
 |    Step    |   lambda    |   F.delta'  |    enthalpy     | <-- min LBFGS
 +------------+-------------+-------------+-----------------+ <-- min LBFGS
 |  previous  |    0.000000 |    0.015736 |     -275.817091 | <-- min LBFGS
 | trial step |    1.000000 |   -0.040783 |     -275.815007 | <-- min LBFGS
 +------------+-------------+-------------+-----------------+ <-- min LBFGS
  

--------------------------------------------------------------------------------
 LBFGS: improving iteration         3 with line minimization (lambda=  0.278424)
--------------------------------------------------------------------------------

                           -------------------------------
                                      Unit Cell
                           -------------------------------
        Real Lattice(A)              Reciprocal Lattice(1/A)
     2.5608308    -0.0000000    -0.0000000        2.453573025   0.000000000   0.000000000
    -0.0000000     4.7577761    -0.0000006        0.000000000   1.320613924   0.000000174
    -0.0000000    -0.0000004     2.8672367        0.000000000   0.000000287   2.191373099

                       Lattice parameters(A)       Cell Angles
                    a =      2.560831          alpha =   90.000015
                    b =      4.757776          beta  =   90.000000
                    c =      2.867237          gamma =   90.000000

                Current cell volume =            34.934008 A**3

                           -------------------------------
                                     Cell Contents
                           -------------------------------

            xxxxxxxxxxxxxxxxxxxxxxxxxxxxxxxxxxxxxxxxxxxxxxxxxxxxxxxxxxxxxxxxx
            x  Element         Atom        Fractional coordinates of atoms  x
            x                 Number           u          v          w      x
            x---------------------------------------------------------------x
            x  H                 1        -0.000000   0.004051   0.134732   x
            x  H                 2         0.000000   0.132123   0.454312   x
            x  H                 3        -0.000000   0.267591   0.316804   x
            x  H                 4         0.500000   0.267591   0.183194   x
            x  H                 5         0.500000   0.132123   0.045686   x
            x  H                 6         0.500000   0.004052   0.365268   x
            x  H                 7         0.500000   0.232409   0.683196   x
            x  H                 8         0.500000   0.367877   0.545688   x
            x  H                 9         0.500000   0.495949   0.865268   x
            x  H                10         0.500000   0.732409   0.816806   x
            x  H                11         0.500000   0.867877   0.954314   x
            x  H                12         0.500000   0.995948   0.634732   x
            x  H                13         0.500000   0.767591   0.316804   x
            x  H                14         0.500000   0.632123   0.454312   x
            x  H                15         0.500000   0.504051   0.134732   x
            x  H                16        -0.000000   0.767591   0.183194   x
            x  H                17        -0.000000   0.632123   0.045686   x
            x  H                18         0.000000   0.504052   0.365268   x
            x  H                19        -0.000000   0.732409   0.683196   x
            x  H                20        -0.000000   0.867877   0.545688   x
            x  H                21         0.000000   0.995949   0.865268   x
            x  H                22         0.000000   0.232409   0.816806   x
            x  H                23         0.000000   0.367877   0.954314   x
            x  H                24         0.000000   0.495948   0.634732   x
            xxxxxxxxxxxxxxxxxxxxxxxxxxxxxxxxxxxxxxxxxxxxxxxxxxxxxxxxxxxxxxxxx


------------------------------------------------------------------------ <-- SCF
SCF loop      Energy                           Energy gain       Timer   <-- SCF
                                               per atom          (sec)   <-- SCF
------------------------------------------------------------------------ <-- SCF
Initial  -3.41219278E+002                                       7645.74  <-- SCF
      1  -3.41230572E+002                    4.70612364E-004    7773.07  <-- SCF
      2  -3.41230607E+002                    1.44235150E-006    7898.64  <-- SCF
      3  -3.41229728E+002                   -3.66030504E-005    8023.14  <-- SCF
      4  -3.41229731E+002                    9.93861859E-008    8148.76  <-- SCF
      5  -3.41229731E+002                    1.40222011E-008    8273.37  <-- SCF
      6  -3.41229731E+002                    1.93189417E-010    8378.03  <-- SCF
      7  -3.41229731E+002                    3.70181867E-012    8466.72  <-- SCF
      8  -3.41229731E+002                    4.83371317E-013    8555.27  <-- SCF
------------------------------------------------------------------------ <-- SCF
 
Final energy =  -341.2297311093     eV
(energy not corrected for finite basis set)
 

 ************************************** Forces **************************************
 *                                                                                  *
 *                           Cartesian components (eV/A)                            *
 * -------------------------------------------------------------------------------- *
 *                         x                    y                    z              *
 *                                                                                  *
 * H               1      0.00000             -0.00323             -0.01248         *
 * H               2     -0.00000             -0.01457              0.02138         *
 * H               3      0.00000              0.00215             -0.00404         *
 * H               4     -0.00000              0.00215              0.00406         *
 * H               5      0.00000             -0.01457             -0.02136         *
 * H               6     -0.00000             -0.00320              0.01249         *
 * H               7     -0.00000             -0.00215              0.00404         *
 * H               8      0.00000              0.01457             -0.02138         *
 * H               9     -0.00000              0.00323              0.01248         *
 * H              10      0.00000             -0.00215             -0.00406         *
 * H              11     -0.00000              0.01457              0.02136         *
 * H              12     -0.00000              0.00320             -0.01249         *
 * H              13      0.00000              0.00215             -0.00404         *
 * H              14     -0.00000             -0.01457              0.02138         *
 * H              15      0.00000             -0.00323             -0.01248         *
 * H              16      0.00000              0.00215              0.00406         *
 * H              17      0.00000             -0.01457             -0.02136         *
 * H              18     -0.00000             -0.00320              0.01249         *
 * H              19      0.00000             -0.00215              0.00404         *
 * H              20     -0.00000              0.01457             -0.02138         *
 * H              21     -0.00000              0.00323              0.01248         *
 * H              22      0.00000             -0.00215             -0.00406         *
 * H              23     -0.00000              0.01457              0.02136         *
 * H              24      0.00000              0.00320             -0.01249         *
 *                                                                                  *
 ************************************************************************************

 ***************** Stress Tensor *****************
 *                                               *
 *          Cartesian components (GPa)           *
 * --------------------------------------------- *
 *             x             y             z     *
 *                                               *
 *  x   -299.098215     -0.000000      0.000000  *
 *  y     -0.000000   -299.261131      0.000256  *
 *  z      0.000000      0.000256   -299.257530  *
 *                                               *
 *  Pressure:  299.2056                          *
 *                                               *
 *************************************************
  
 +------------+-------------+-------------+-----------------+ <-- min LBFGS
 |    Step    |   lambda    |   F.delta'  |    enthalpy     | <-- min LBFGS
 +------------+-------------+-------------+-----------------+ <-- min LBFGS
 |  previous  |    0.000000 |    0.015736 |     -275.817091 | <-- min LBFGS
 | trial step |    1.000000 |   -0.040783 |     -275.815007 | <-- min LBFGS
 |  line step |    0.278424 |   -0.000090 |     -275.817452 | <-- min LBFGS
 +------------+-------------+-------------+-----------------+ <-- min LBFGS
  
 LBFGS: finished iteration     3 with enthalpy= -2.75817452E+002 eV
  
 +-----------+-----------------+-----------------+------------+-----+ <-- LBFGS
 | Parameter |      value      |    tolerance    |    units   | OK? | <-- LBFGS
 +-----------+-----------------+-----------------+------------+-----+ <-- LBFGS
 |  dE/ion   |   1.500624E-005 |   1.000000E-009 |         eV | No  | <-- LBFGS
 |  |F|max   |   2.586794E-002 |   1.000000E-005 |       eV/A | No  | <-- LBFGS
 |  |dR|max  |   1.555317E-003 |   1.000000E-005 |          A | No  | <-- LBFGS
 |   Smax    |   9.017847E-001 |   1.000000E-005 |        GPa | No  | <-- LBFGS
 +-----------+-----------------+-----------------+------------+-----+ <-- LBFGS
  

================================================================================
 Starting LBFGS iteration          4 ...
================================================================================
  
 +------------+-------------+-------------+-----------------+ <-- min LBFGS
 |    Step    |   lambda    |   F.delta'  |    enthalpy     | <-- min LBFGS
 +------------+-------------+-------------+-----------------+ <-- min LBFGS
 |  previous  |    0.000000 |    0.008967 |     -275.817452 | <-- min LBFGS
 +------------+-------------+-------------+-----------------+ <-- min LBFGS
  

--------------------------------------------------------------------------------
 LBFGS: starting iteration         4 with trial guess (lambda=  1.000000)
--------------------------------------------------------------------------------

                           -------------------------------
                                      Unit Cell
                           -------------------------------
        Real Lattice(A)              Reciprocal Lattice(1/A)
     2.5600512    -0.0000000    -0.0000000        2.454320197   0.000000000   0.000000000
    -0.0000000     4.7560154    -0.0000020        0.000000000   1.321102814   0.000000563
    -0.0000000    -0.0000012     2.8648197        0.000000000   0.000000928   2.193221916

                       Lattice parameters(A)       Cell Angles
                    a =      2.560051          alpha =   90.000049
                    b =      4.756015          beta  =   90.000000
                    c =      2.864820          gamma =   90.000000

                Current cell volume =            34.881021 A**3

                           -------------------------------
                                     Cell Contents
                           -------------------------------

            xxxxxxxxxxxxxxxxxxxxxxxxxxxxxxxxxxxxxxxxxxxxxxxxxxxxxxxxxxxxxxxxx
            x  Element         Atom        Fractional coordinates of atoms  x
            x                 Number           u          v          w      x
            x---------------------------------------------------------------x
            x  H                 1         0.000000   0.004118   0.134646   x
            x  H                 2        -0.000000   0.131952   0.455502   x
            x  H                 3         0.000000   0.267168   0.316823   x
            x  H                 4         0.500000   0.267168   0.183175   x
            x  H                 5         0.500000   0.131952   0.044496   x
            x  H                 6         0.500000   0.004120   0.365354   x
            x  H                 7         0.500000   0.232832   0.683177   x
            x  H                 8         0.500000   0.368048   0.544498   x
            x  H                 9         0.500000   0.495882   0.865354   x
            x  H                10         0.500000   0.732832   0.816825   x
            x  H                11         0.500000   0.868048   0.955504   x
            x  H                12         0.500000   0.995880   0.634646   x
            x  H                13         0.500000   0.767168   0.316823   x
            x  H                14         0.500000   0.631952   0.455502   x
            x  H                15         0.500000   0.504118   0.134646   x
            x  H                16         0.000000   0.767168   0.183175   x
            x  H                17         0.000000   0.631952   0.044496   x
            x  H                18        -0.000000   0.504120   0.365354   x
            x  H                19         0.000000   0.732832   0.683177   x
            x  H                20         0.000000   0.868048   0.544498   x
[...]
      H     1      S                    0.999
      H     2      S                    1.026
      H     3      S                    0.975
      H     4      S                    0.975
      H     5      S                    1.026
      H     6      S                    0.999
      H     7      S                    0.975
      H     8      S                    1.026
      H     9      S                    0.999
      H    10      S                    0.975
      H    11      S                    1.026
      H    12      S                    0.999
      H    13      S                    0.975
      H    14      S                    1.026
      H    15      S                    0.999
      H    16      S                    0.975
      H    17      S                    1.026
      H    18      S                    0.999
      H    19      S                    0.975
      H    20      S                    1.026
      H    21      S                    0.999
      H    22      S                    0.975
      H    23      S                    1.026
      H    24      S                    0.999
  -------------------------------------------
                           Total:      24.000
  -------------------------------------------

     Atomic Populations (Mulliken)
     -----------------------------
Species          Ion     s      p      d      f     Total  Charge (e)
=====================================================================
  H               1     1.00   0.00   0.00   0.00   1.00     0.00
  H               2     1.03   0.00   0.00   0.00   1.03    -0.03
  H               3     0.97   0.00   0.00   0.00   0.97     0.03
  H               4     0.97   0.00   0.00   0.00   0.97     0.03
  H               5     1.03   0.00   0.00   0.00   1.03    -0.03
  H               6     1.00   0.00   0.00   0.00   1.00     0.00
  H               7     0.97   0.00   0.00   0.00   0.97     0.03
  H               8     1.03   0.00   0.00   0.00   1.03    -0.03
  H               9     1.00   0.00   0.00   0.00   1.00     0.00
  H              10     0.97   0.00   0.00   0.00   0.97     0.03
  H              11     1.03   0.00   0.00   0.00   1.03    -0.03
  H              12     1.00   0.00   0.00   0.00   1.00     0.00
  H              13     0.97   0.00   0.00   0.00   0.97     0.03
  H              14     1.03   0.00   0.00   0.00   1.03    -0.03
  H              15     1.00   0.00   0.00   0.00   1.00     0.00
  H              16     0.97   0.00   0.00   0.00   0.97     0.03
  H              17     1.03   0.00   0.00   0.00   1.03    -0.03
  H              18     1.00   0.00   0.00   0.00   1.00     0.00
  H              19     0.97   0.00   0.00   0.00   0.97     0.03
  H              20     1.03   0.00   0.00   0.00   1.03    -0.03
  H              21     1.00   0.00   0.00   0.00   1.00     0.00
  H              22     0.97   0.00   0.00   0.00   0.97     0.03
  H              23     1.03   0.00   0.00   0.00   1.03    -0.03
  H              24     1.00   0.00   0.00   0.00   1.00     0.00
=====================================================================

                 Bond                   Population      Length (A)
======================================================================
              H 2  -- H 3                    1.70        0.75571
              H 19 -- H 20                   1.70        0.75571
              H 13 -- H 14                   1.70        0.75571
              H 7  -- H 8                    1.70        0.75571
              H 4  -- H 5                    1.70        0.75571
              H 10 -- H 11                   1.70        0.75571
              H 16 -- H 17                   1.70        0.75571
              H 22 -- H 23                   1.70        0.75571
              H 6  -- H 12                   1.47        0.77238
              H 18 -- H 24                   1.47        0.77238
              H 1  -- H 21                   1.47        0.77238
              H 9  -- H 15                   1.47        0.77238
              H 5  -- H 6                    0.18        1.10328
              H 11 -- H 12                   0.18        1.10328
              H 17 -- H 18                   0.18        1.10328
              H 23 -- H 24                   0.18        1.10328
              H 1  -- H 2                    0.18        1.10328
              H 20 -- H 21                   0.18        1.10328
              H 14 -- H 15                   0.18        1.10328
              H 8  -- H 9                    0.18        1.10328
              H 21 -- H 22                   0.25        1.13563
              H 1  -- H 16                   0.25        1.13563
              H 4  -- H 15                   0.25        1.13563
              H 9  -- H 10                   0.25        1.13563
              H 7  -- H 12                   0.25        1.13564
              H 6  -- H 13                   0.25        1.13564
              H 3  -- H 18                   0.25        1.13564
              H 19 -- H 24                   0.25        1.13564
              H 3  -- H 23                  -0.07        1.14160
              H 17 -- H 19                  -0.07        1.14160
              H 11 -- H 13                  -0.07        1.14160
              H 5  -- H 7                   -0.07        1.14160
              H 4  -- H 8                   -0.07        1.14161
              H 10 -- H 14                  -0.07        1.14161
              H 2  -- H 22                  -0.07        1.14161
              H 16 -- H 20                  -0.07        1.14161
              H 5  -- H 11                  -0.04        1.28016
              H 17 -- H 23                  -0.04        1.28016
              H 2  -- H 20                  -0.04        1.28016
              H 8  -- H 14                  -0.04        1.28016
              H 13 -- H 16                   0.03        1.33571
              H 7  -- H 22                   0.03        1.33571
              H 3  -- H 4                    0.03        1.33571
              H 10 -- H 19                   0.03        1.33571
              H 1  -- H 20                  -0.28        1.34085
              H 2  -- H 21                  -0.28        1.34085
              H 8  -- H 15                  -0.28        1.34085
              H 9  -- H 14                  -0.28        1.34085
              H 18 -- H 23                  -0.28        1.34085
              H 6  -- H 11                  -0.28        1.34085
              H 5  -- H 12                  -0.28        1.34085
              H 17 -- H 24                  -0.28        1.34085
              H 4  -- H 6                   -0.09        1.35558
              H 10 -- H 12                  -0.09        1.35558
              H 16 -- H 18                  -0.09        1.35558
              H 22 -- H 24                  -0.09        1.35558
              H 1  -- H 3                   -0.09        1.35559
              H 19 -- H 21                  -0.09        1.35559
              H 13 -- H 15                  -0.09        1.35559
              H 7  -- H 9                   -0.09        1.35559
              H 6  -- H 7                   -0.24        1.42038
              H 12 -- H 13                  -0.24        1.42038
              H 3  -- H 24                  -0.24        1.42038
              H 18 -- H 19                  -0.24        1.42038
              H 1  -- H 22                  -0.24        1.42038
              H 16 -- H 21                  -0.24        1.42038
              H 4  -- H 9                   -0.24        1.42038
              H 10 -- H 15                  -0.24        1.42038
              H 2  -- H 6                   -0.14        1.44046
              H 12 -- H 20                  -0.14        1.44046
              H 8  -- H 24                  -0.14        1.44046
              H 14 -- H 18                  -0.14        1.44046
              H 1  -- H 5                   -0.14        1.44046
              H 11 -- H 21                  -0.14        1.44046
              H 9  -- H 23                  -0.14        1.44046
              H 15 -- H 17                  -0.14        1.44046
              H 15 -- H 18                  -0.21        1.44079
              H 9  -- H 24                  -0.21        1.44079
              H 1  -- H 6                   -0.21        1.44079
              H 12 -- H 21                  -0.21        1.44079
              H 10 -- H 13                  -0.32        1.44240
              H 4  -- H 7                   -0.32        1.44240
              H 3  -- H 22                  -0.32        1.44240
              H 16 -- H 19                  -0.32        1.44240
              H 10 -- H 17                  -0.21        1.51503
              H 4  -- H 23                  -0.21        1.51503
              H 5  -- H 22                  -0.21        1.51503
              H 11 -- H 16                  -0.21        1.51503
              H 14 -- H 19                  -0.21        1.51504
              H 3  -- H 8                   -0.21        1.51504
              H 2  -- H 7                   -0.21        1.51504
              H 13 -- H 20                  -0.21        1.51504
              H 5  -- H 21                  -0.16        1.52262
              H 1  -- H 11                  -0.16        1.52262
              H 15 -- H 23                  -0.16        1.52262
              H 9  -- H 17                  -0.16        1.52262
              H 2  -- H 12                  -0.16        1.52262
              H 6  -- H 20                  -0.16        1.52262
              H 8  -- H 18                  -0.16        1.52262
              H 14 -- H 24                  -0.16        1.52262
              H 3  -- H 5                   -0.39        1.63087
              H 11 -- H 19                  -0.39        1.63087
              H 13 -- H 17                  -0.39        1.63087
              H 7  -- H 23                  -0.39        1.63087
              H 2  -- H 4                   -0.39        1.63087
              H 14 -- H 16                  -0.39        1.63087
              H 10 -- H 20                  -0.39        1.63087
              H 8  -- H 22                  -0.39        1.63087
              H 10 -- H 16                  -0.41        1.66375
              H 4  -- H 22                  -0.41        1.66375
              H 13 -- H 19                  -0.41        1.66376
              H 3  -- H 7                   -0.41        1.66376
              H 14 -- H 20                  -0.26        1.72185
              H 2  -- H 8                   -0.26        1.72185
              H 11 -- H 17                  -0.26        1.72185
              H 5  -- H 23                  -0.26        1.72185
              H 2  -- H 5                   -0.70        1.73980
              H 11 -- H 20                  -0.70        1.73980
              H 14 -- H 17                  -0.70        1.73980
              H 8  -- H 23                  -0.70        1.73980
              H 7  -- H 21                  -0.16        1.78343
              H 1  -- H 13                  -0.16        1.78343
              H 3  -- H 15                  -0.16        1.78343
              H 9  -- H 19                  -0.16        1.78343
              H 12 -- H 22                  -0.16        1.78344
              H 6  -- H 16                  -0.16        1.78344
              H 4  -- H 18                  -0.16        1.78344
              H 10 -- H 24                  -0.16        1.78344
              H 1  -- H 17                  -0.18        1.78816
              H 21 -- H 23                  -0.18        1.78816
              H 5  -- H 15                  -0.18        1.78816
              H 9  -- H 11                  -0.18        1.78816
              H 6  -- H 14                  -0.18        1.78817
              H 8  -- H 12                  -0.18        1.78817
              H 2  -- H 18                  -0.18        1.78817
              H 20 -- H 24                  -0.18        1.78817
              H 3  -- H 6                   -0.32        1.79505
              H 12 -- H 19                  -0.32        1.79505
              H 13 -- H 18                  -0.32        1.79505
              H 7  -- H 24                  -0.32        1.79505
              H 1  -- H 4                   -0.32        1.79506
              H 10 -- H 21                  -0.32        1.79506
              H 15 -- H 16                  -0.32        1.79506
              H 9  -- H 22                  -0.32        1.79506
              H 6  -- H 8                   -0.31        1.80641
              H 12 -- H 14                  -0.31        1.80641
              H 2  -- H 24                  -0.31        1.80641
              H 18 -- H 20                  -0.31        1.80641
              H 17 -- H 21                  -0.31        1.80642
              H 1  -- H 23                  -0.31        1.80642
              H 5  -- H 9                   -0.31        1.80642
              H 11 -- H 15                  -0.31        1.80642
              H 2  -- H 23                  -0.42        1.82115
              H 17 -- H 20                  -0.42        1.82115
              H 11 -- H 14                  -0.42        1.82115
              H 5  -- H 8                   -0.42        1.82115
              H 3  -- H 21                  -0.43        1.82577
              H 1  -- H 19                  -0.43        1.82577
              H 9  -- H 13                  -0.43        1.82577
              H 7  -- H 15                  -0.43        1.82577
              H 4  -- H 12                  -0.43        1.82578
              H 6  -- H 10                  -0.43        1.82578
              H 16 -- H 24                  -0.43        1.82578
              H 18 -- H 22                  -0.43        1.82578
              H 7  -- H 11                  -0.11        1.90304
              H 5  -- H 13                  -0.11        1.90304
              H 19 -- H 23                  -0.11        1.90304
              H 3  -- H 17                  -0.11        1.90304
              H 20 -- H 22                  -0.11        1.90304
              H 2  -- H 16                  -0.11        1.90304
              H 8  -- H 10                  -0.11        1.90304
              H 4  -- H 14                  -0.11        1.90304
              H 1  -- H 12                  -0.53        1.92190
              H 6  -- H 21                  -0.53        1.92190
              H 15 -- H 24                  -0.53        1.92190
              H 9  -- H 18                  -0.53        1.92190
              H 4  -- H 11                  -0.14        2.00612
              H 5  -- H 10                  -0.14        2.00612
              H 16 -- H 23                  -0.14        2.00612
              H 17 -- H 22                  -0.14        2.00612
              H 3  -- H 20                  -0.14        2.00613
              H 2  -- H 19                  -0.14        2.00613
              H 8  -- H 13                  -0.14        2.00613
              H 7  -- H 14                  -0.14        2.00613
              H 4  -- H 21                  -0.24        2.03171
              H 1  -- H 10                  -0.24        2.03171
              H 9  -- H 16                  -0.24        2.03171
              H 15 -- H 22                  -0.24        2.03171
              H 3  -- H 12                  -0.24        2.03172
              H 6  -- H 19                  -0.24        2.03172
              H 13 -- H 24                  -0.24        2.03172
              H 7  -- H 18                  -0.24        2.03172
              H 6  -- H 22                  -0.22        2.12100
              H 12 -- H 16                  -0.22        2.12100
              H 4  -- H 24                  -0.22        2.12100
              H 10 -- H 18                  -0.22        2.12100
              H 1  -- H 7                   -0.22        2.12101
              H 13 -- H 21                  -0.22        2.12101
              H 3  -- H 9                   -0.22        2.12101
              H 15 -- H 19                  -0.22        2.12101
              H 11 -- H 22                  -0.04        2.19284
              H 5  -- H 16                  -0.04        2.19284
              H 10 -- H 23                  -0.04        2.19284
              H 4  -- H 17                  -0.04        2.19284
              H 7  -- H 20                  -0.04        2.19284
              H 2  -- H 13                  -0.04        2.19284
              H 8  -- H 19                  -0.04        2.19284
              H 3  -- H 14                  -0.04        2.19284
              H 2  -- H 11                  -0.07        2.29482
              H 5  -- H 20                  -0.07        2.29482
              H 14 -- H 23                  -0.07        2.29482
              H 8  -- H 17                  -0.07        2.29482
              H 1  -- H 14                   0.08        2.36968
              H 8  -- H 21                   0.08        2.36968
              H 2  -- H 15                   0.08        2.36968
              H 9  -- H 20                   0.08        2.36968
              H 6  -- H 17                   0.08        2.36969
              H 12 -- H 23                   0.08        2.36969
              H 5  -- H 18                   0.08        2.36969
              H 11 -- H 24                   0.08        2.36969
              H 19 -- H 22                  -0.06        2.40855
              H 3  -- H 16                  -0.06        2.40855
              H 4  -- H 13                  -0.06        2.40855
              H 7  -- H 10                  -0.06        2.40855
              H 16 -- H 22                  -0.03        2.45311
              H 4  -- H 10                  -0.03        2.45311
              H 7  -- H 13                  -0.03        2.45311
              H 3  -- H 19                  -0.03        2.45311
              H 6  -- H 23                   0.08        2.45321
              H 12 -- H 17                   0.08        2.45321
              H 5  -- H 24                   0.08        2.45321
              H 11 -- H 18                   0.08        2.45321
              H 1  -- H 8                    0.08        2.45321
              H 14 -- H 21                   0.08        2.45321
              H 2  -- H 9                    0.08        2.45321
              H 15 -- H 20                   0.08        2.45321
              H 21 -- H 24                  -0.00        2.46837
              H 1  -- H 18                  -0.00        2.46837
              H 6  -- H 15                  -0.00        2.46837
              H 9  -- H 12                  -0.00        2.46837
              H 3  -- H 11                   0.12        2.51158
              H 5  -- H 19                   0.12        2.51158
              H 13 -- H 23                   0.12        2.51158
              H 7  -- H 17                   0.12        2.51158
              H 4  -- H 20                   0.12        2.51159
              H 2  -- H 10                   0.12        2.51159
              H 8  -- H 16                   0.12        2.51159
              H 14 -- H 22                   0.12        2.51159
======================================================================


Writing analysis data to Cmca-12.castep_bin

Writing model to Cmca-12.check
 
 A BibTeX formatted list of references used in this run has been written to 
 Cmca-12.bib
 
Initialisation time =     15.54 s
Calculation time    =  24837.06 s
Finalisation time   =     64.92 s
Total time          =  24917.52 s
Peak Memory Use     = 1435364 kB
  
Overall parallel efficiency rating: Excellent (97%)                             
  
Data was distributed by:-
k-point (18-way); efficiency rating: Excellent (97%)                            
