 +-------------------------------------------------+
 |                                                 |
 |      CCC   AA    SSS  TTTTT  EEEEE  PPPP        |
 |     C     A  A  S       T    E      P   P       |
 |     C     AAAA   SS     T    EEE    PPPP        |
 |     C     A  A     S    T    E      P           |
 |      CCC  A  A  SSS     T    EEEEE  P           |
 |                                                 |
 +-------------------------------------------------+
 |                                                 |
 | Welcome to Academic Release CASTEP version 18.1 |          
 | Ab Initio Total Energy Program                  |
 |                                                 |
 | Authors:                                        |
 | M. Segall, M. Probert, C. Pickard, P. Hasnip,   |
 | S. Clark, K. Refson, J. R. Yates, M. Payne      |
 |                                                 |
 | Contributors:                                   |
 | P. Lindan, P. Haynes, J. White, V. Milman,      |
 | N. Govind, M. Gibson, P. Tulip, V. Cocula,      |
 | B. Montanari, D. Quigley, M. Glover,            |
 | L. Bernasconi, A. Perlov, M. Plummer,           |
 | E. McNellis, J. Meyer, J. Gale, D. Jochym       |
 | J. Aarons, B. Walker, R. Gillen, D. Jones       |
 | T. Green, I. J. Bush, C. J. Armstrong,          |
 | E. J. Higgins, E. L. Brown, M. S. McFly,        |
 | J. Wilkins, B-C. Shih, P. J. P. Byrne           |
 |                                                 |
 | Copyright (c) 2000 - 2017                       |
 |                                                 |
 |     Distributed under the terms of an           |
 |     Agreement between the United Kingdom        |
 |     Car-Parrinello (UKCP) Consortium,           |
 |     Daresbury Laboratory and Accelrys, Inc.     |
 |                                                 |
 | Please cite                                     |
 |                                                 |
 |     "First principles methods using CASTEP"     |
 |                                                 |
 |         Zeitschrift fuer Kristallographie       |
 |           220(5-6) pp. 567-570 (2005)           |
 |                                                 |
 | S. J. Clark, M. D. Segall, C. J. Pickard,       |
 | P. J. Hasnip, M. J. Probert, K. Refson,         |
 | M. C. Payne                                     |
 |                                                 |
 |       in all publications arising from          |
 |              your use of CASTEP                 |
 |                                                 |
 +-------------------------------------------------+


 Compiled for linux_x86_64_gfortran4.8 on Thu, 19 Jul 2018 15:42:32 +0100
 from code version 70483bd0ad64+  Sun, 10 Dec 2017 12:18:29 +0000
 Compiler: GNU Fortran 4.8.5; Optimisation: fast
 MATHLIBS: Intel MKL(2018.0.0) (LAPACK version 3.7.0)
 FFT Lib : mkl
 Fundamental constants values: CODATA 2014

 Run started: Thu, 03 Sep 2020 10:10:04 +0100

 Atomic calculation performed for H: 1s1

 Converged in 41 iterations to an ae energy of -12.488 eV

   ============================================================                
   | Pseudopotential Report - Date of generation  3-09-2020   |                
   ------------------------------------------------------------                
   | Element: H Ionic charge:  1.00 Level of theory: PBE      |                
   | Atomic Solver: Koelling-Harmon                           |                
   |                                                          |                
   |               Reference Electronic Structure             |                
   |         Orbital         Occupation         Energy        |                
   |            1s              1.000           -0.239        |                
   |                                                          |                
   |                 Pseudopotential Definition               |                
   |        Beta     l      e      Rc     scheme   norm       |                
   |          1      0   -0.239   0.599     qc      0         |                
   |          2      0    0.250   0.599     qc      0         |                
   |         loc     1    0.000   0.599     pn      0         |                
   |                                                          |                
   | Augmentation charge Rinner = 0.421                       |                
   | No partial core correction                               |                
   ------------------------------------------------------------                
   | "1|0.6|13|15|17|10(qc=8)"                                |                
   ------------------------------------------------------------                
   |      Author: Chris J. Pickard, Cambridge University      |                
   ============================================================                

 Pseudo atomic calculation performed for H 1s1

 Converged in 24 iterations to a total energy of -12.4869 eV

 Calculation parallelised over 18 processes.
 Data is distributed by k-point(18-way)

 ************************************ Title ************************************
 

 ***************************** General Parameters ******************************
  
 output verbosity                               : normal  (1)
 write checkpoint data to                       : Cmca-12.check
 type of calculation                            : geometry optimization
 stress calculation                             : on
 density difference calculation                 : off
 electron localisation func (ELF) calculation   : off
 Hirshfeld analysis                             : off
 unlimited duration calculation
 timing information                             : on
 memory usage estimate                          : on
 write extra output files                       : on
 write final potential to formatted file        : off
 write final density to formatted file          : off
 write structure in CELL formatted file         : on
 write BibTeX reference list                    : on
 write OTFG pseudopotential files               : on
 write electrostatic potential file             : on
 write bands file                               : on
 checkpoint writing                             : both castep_bin and check files
  
 output         length unit                     : A
 output           mass unit                     : amu
 output           time unit                     : ps
 output         charge unit                     : e
 output           spin unit                     : hbar/2
 output         energy unit                     : eV
 output          force unit                     : eV/A
 output       velocity unit                     : A/ps
 output       pressure unit                     : GPa
 output     inv_length unit                     : 1/A
 output      frequency unit                     : cm-1
 output force constant unit                     : eV/A**2
 output         volume unit                     : A**3
 output   IR intensity unit                     : (D/A)**2/amu
 output         dipole unit                     : D
 output         efield unit                     : eV/A/e
 output        entropy unit                     : J/mol/K
  
 wavefunctions paging                           : none
 random number generator seed                   : randomised (101005436)
 data distribution                              : optimal for this architecture
 optimization strategy                          : maximize speed(+++)

 *********************** Exchange-Correlation Parameters ***********************
  
 using functional                               : Perdew Burke Ernzerhof
 relativistic treatment                         : Koelling-Harmon
 DFT+D: Semi-empirical dispersion correction    : off

 ************************* Pseudopotential Parameters **************************
  
 pseudopotential representation                 : reciprocal space
 <beta|phi> representation                      : reciprocal space
 spin-orbit coupling                            : off

 **************************** Basis Set Parameters *****************************
  
 plane wave basis set cut-off                   :  2000.0000   eV
 size of standard grid                          :     2.0000
 size of   fine   gmax                          :    45.8230   1/A
 finite basis set correction                    : automatic
 number of sample energies                      :          3
           sample  spacing                      :     5.0000   eV

 **************************** Electronic Parameters ****************************
  
 number of  electrons                           :  24.00    
 net charge of system                           :  0.000    
 treating system as non-spin-polarized
 number of bands                                :         12

 ********************* Electronic Minimization Parameters **********************
  
 Method: Treating system as non-metallic,
         and number of  SD  steps               :          1
         and number of  CG  steps               :          4
  
 total energy / atom convergence tol.           : 0.1000E-10   eV
 eigen-energy convergence tolerance             : 0.2000E-10   eV
 max force / atom convergence tol.              : ignored
 convergence tolerance window                   :          3   cycles
 max. number of SCF cycles                      :        200
 periodic dipole correction                     : NONE

 ************************** Density Mixing Parameters **************************
  
 density-mixing scheme                          : Broyden
 max. length of mixing history                  :         20
 charge density mixing amplitude                : 0.8000    
 cut-off energy for mixing                      :  2000.       eV

 *********************** Population Analysis Parameters ************************
  
 Population analysis with cutoff                :  3.000       A
 Population analysis output                     : summary and pdos components

 ********************** Geometry Optimization Parameters ***********************
  
 optimization method                            : LBFGS
 max. no. of LBFGS updates                      : unbounded
 variable cell method                           : fixed basis quality
 max. number of steps                           :        200
 estimated bulk modulus                         :  500.0       GPa
 estimated <frequency>                          :  1668.       cm-1
 geom line minimiser                            : on
 with line minimiser tolerance                  :     0.4000
 total energy convergence tolerance             : 0.1000E-08   eV/atom
        max ionic |force| tolerance             : 0.1000E-04   eV/A
 max ionic |displacement| tolerance             : 0.1000E-04   A
   max |stress component| tolerance             : 0.1000E-04   GPa
 convergence tolerance window                   :          2   steps
 backup results every                           :      14400   seconds
 write geom trajectory file                     : on

 *******************************************************************************
  

                           -------------------------------
                                      Unit Cell
                           -------------------------------
        Real Lattice(A)                      Reciprocal Lattice(1/A)
     2.5986570     0.0000000     0.0000000        2.417858677  -0.000000000  -0.000000000
     0.0000000     4.8243534    -0.0000014       -0.000000000   1.302389096   0.000000383
     0.0000000    -0.0000009     2.9064542       -0.000000000   0.000000631   2.161804318

                       Lattice parameters(A)       Cell Angles
                    a =      2.598657          alpha =   90.000034
                    b =      4.824353          beta  =   90.000000
                    c =      2.906454          gamma =   90.000000

                       Current cell volume =            36.437751       A**3
                                   density =             0.663887   AMU/A**3
                                           =             1.102411     g/cm^3

                           -------------------------------
                                     Cell Contents
                           -------------------------------
                         Total number of ions in cell =   24
                      Total number of species in cell =    1
                        Max number of any one species =   24

            xxxxxxxxxxxxxxxxxxxxxxxxxxxxxxxxxxxxxxxxxxxxxxxxxxxxxxxxxxxx
            x  Element    Atom        Fractional coordinates of atoms  x
            x            Number           u          v          w      x
            x----------------------------------------------------------x
            x  H            1        -0.000000   0.003024   0.132576   x 
            x  H            2         0.000000   0.132101   0.455283   x 
            x  H            3         0.000000   0.265024   0.317883   x 
            x  H            4         0.500000   0.265024   0.182116   x 
            x  H            5         0.500000   0.132101   0.044716   x 
            x  H            6         0.500000   0.003026   0.367425   x 
            x  H            7         0.500000   0.234976   0.682117   x 
            x  H            8         0.500000   0.367899   0.544717   x 
            x  H            9         0.500000   0.496976   0.867424   x 
            x  H           10         0.500000   0.734976   0.817884   x 
            x  H           11         0.500000   0.867899   0.955284   x 
            x  H           12         0.500000   0.996974   0.632575   x 
            x  H           13         0.500000   0.765024   0.317883   x 
            x  H           14         0.500000   0.632101   0.455283   x 
            x  H           15         0.500000   0.503024   0.132576   x 
            x  H           16        -0.000000   0.765024   0.182116   x 
            x  H           17         0.000000   0.632101   0.044716   x 
            x  H           18         0.000000   0.503026   0.367425   x 
            x  H           19         0.000000   0.734976   0.682117   x 
            x  H           20        -0.000000   0.867899   0.544717   x 
            x  H           21         0.000000   0.996976   0.867424   x 
            x  H           22        -0.000000   0.234976   0.817884   x 
            x  H           23         0.000000   0.367899   0.955284   x 
            x  H           24        -0.000000   0.496974   0.632575   x 
            xxxxxxxxxxxxxxxxxxxxxxxxxxxxxxxxxxxxxxxxxxxxxxxxxxxxxxxxxxxx


                         No user defined ionic velocities

                           -------------------------------
                                   Details of Species
                           -------------------------------

                               Mass of species in AMU
                                    H    1.0078250

                          Electric Quadrupole Moment (Barn)
                                    H    0.0028600 Isotope  2

                          Files used for pseudopotentials:
                                    H 1|0.6|13|15|17|10(qc=8)

                           -------------------------------
                              k-Points For BZ Sampling
                           -------------------------------
                       MP grid size for SCF calculation is 18 18 18
                            with an offset of   0.000  0.000  0.000
                       Number of kpoints used =          2916

                           -------------------------------
                               Symmetry and Constraints
                           -------------------------------

                      Cell is a supercell containing 2 primitive cells
                      Maximum deviation from symmetry =  0.00000         ANG

                      Number of symmetry operations   =           1
                      Number of ionic constraints     =           3
                      Point group of crystal =     1: C1, 1, 1
                      Space group of crystal =    64: Cmce, -C 2bc 2

             Set iprint > 1 for details on symmetry rotations/translations

                         Centre of mass is constrained
             Set iprint > 1 for details of linear ionic constraints

                         Number of cell constraints= 0
                         Cell constraints are:  1 2 3 4 5 6

                         External pressure/stress (GPa)
                        240.00000   0.00000   0.00000
                                  240.00000   0.00000
                                            240.00000
  
+---------------- MEMORY AND SCRATCH DISK ESTIMATES PER PROCESS --------------+
|                                                     Memory          Disk    |
| Baseline code, static data and system overhead      420.0 MB         0.0 MB |
| BLAS internal memory storage                          0.0 MB         0.0 MB |
| Model and support data                              442.5 MB         0.0 MB |
| Electronic energy minimisation requirements         485.3 MB         0.0 MB |
| Force calculation requirements                       14.8 MB         0.0 MB |
| Stress calculation requirements                      18.8 MB         0.0 MB |
|                                               ----------------------------- |
| Approx. total storage required per process         1347.8 MB         0.0 MB |
|                                                                             |
| Requirements will fluctuate during execution and may exceed these estimates |
+-----------------------------------------------------------------------------+
Calculating finite basis set correction with  3 cut-off energies.
Calculating total energy with cut-off of 1990.000 eV.
------------------------------------------------------------------------ <-- SCF
SCF loop      Energy                           Energy gain       Timer   <-- SCF
                                               per atom          (sec)   <-- SCF
------------------------------------------------------------------------ <-- SCF
Initial   5.47455791E+002                                         28.09  <-- SCF
      1  -2.91257284E+002                    3.49463781E+001     163.25  <-- SCF
      2  -3.44059102E+002                    2.20007578E+000     266.19  <-- SCF
      3  -3.43910681E+002                   -6.18421167E-003     392.11  <-- SCF
      4  -3.43897784E+002                   -5.37369506E-004     516.67  <-- SCF
      5  -3.43898081E+002                    1.23414465E-005     639.76  <-- SCF
      6  -3.43898103E+002                    9.37221387E-007     764.66  <-- SCF
      7  -3.43898103E+002                    2.41237734E-009     891.14  <-- SCF
      8  -3.43898103E+002                    1.62765221E-010    1006.08  <-- SCF
      9  -3.43898103E+002                    7.47010089E-012    1093.18  <-- SCF
     10  -3.43898103E+002                    3.62528488E-013    1181.56  <-- SCF
------------------------------------------------------------------------ <-- SCF
 
Final energy =  -343.8981031098     eV
(energy not corrected for finite basis set)
 
Calculating total energy with cut-off of 1995.000 eV.
------------------------------------------------------------------------ <-- SCF
SCF loop      Energy                           Energy gain       Timer   <-- SCF
                                               per atom          (sec)   <-- SCF
------------------------------------------------------------------------ <-- SCF
Initial  -3.43898103E+002                                       1215.18  <-- SCF
      1  -3.43898117E+002                    5.91622333E-007    1331.49  <-- SCF
      2  -3.43898117E+002                    5.57891061E-013    1425.91  <-- SCF
      3  -3.43898117E+002                    1.35726638E-010    1520.53  <-- SCF
      4  -3.43898117E+002                    4.30200472E-012    1619.33  <-- SCF
      5  -3.43898117E+002                    4.02809431E-015    1715.31  <-- SCF
------------------------------------------------------------------------ <-- SCF
 
Final energy =  -343.8981173122     eV
(energy not corrected for finite basis set)
 
Calculating total energy with cut-off of 2000.000 eV.
------------------------------------------------------------------------ <-- SCF
SCF loop      Energy                           Energy gain       Timer   <-- SCF
                                               per atom          (sec)   <-- SCF
------------------------------------------------------------------------ <-- SCF
Initial  -3.43898117E+002                                       1748.90  <-- SCF
      1  -3.43898131E+002                    5.61921790E-007    1869.42  <-- SCF
      2  -3.43898131E+002                    1.10973998E-012    1966.37  <-- SCF
      3  -3.43898131E+002                    1.27879910E-010    2062.40  <-- SCF
      4  -3.43898131E+002                    3.74411366E-012    2160.45  <-- SCF
      5  -3.43898131E+002                   -2.90022790E-013    2255.37  <-- SCF
------------------------------------------------------------------------ <-- SCF
 
Final energy =  -343.8981308015     eV
(energy not corrected for finite basis set)
 
 For future reference: finite basis dEtot/dlog(Ecut) =      -0.005540eV
 Total energy corrected for finite basis set =    -343.898131 eV
 
+---------------- MEMORY AND SCRATCH DISK ESTIMATES PER PROCESS --------------+
|                                                     Memory          Disk    |
| Model and support data                              447.6 MB         0.0 MB |
| Electronic energy minimisation requirements         485.3 MB         0.0 MB |
| Geometry minimisation requirements                  712.4 MB         0.0 MB |
|                                               ----------------------------- |
| Approx. total storage required per process         1645.2 MB         0.0 MB |
|                                                                             |
| Requirements will fluctuate during execution and may exceed these estimates |
+-----------------------------------------------------------------------------+
 

 ************************************** Forces **************************************
 *                                                                                  *
 *                           Cartesian components (eV/A)                            *
 * -------------------------------------------------------------------------------- *
 *                         x                    y                    z              *
 *                                                                                  *
 * H               1      0.00000             -0.00000             -0.00001         *
 * H               2      0.00000              0.00000             -0.00000         *
 * H               3     -0.00000             -0.00000             -0.00000         *
 * H               4     -0.00000              0.00000              0.00000         *
 * H               5      0.00000             -0.00000              0.00000         *
 * H               6      0.00000             -0.00000              0.00000         *
 * H               7     -0.00000             -0.00000              0.00000         *
 * H               8      0.00000              0.00000             -0.00000         *
 * H               9      0.00000              0.00000             -0.00001         *
 * H              10     -0.00000             -0.00000             -0.00000         *
 * H              11      0.00000              0.00000             -0.00000         *
 * H              12     -0.00000              0.00000              0.00000         *
 * H              13     -0.00000              0.00000             -0.00000         *
 * H              14      0.00000             -0.00000              0.00000         *
 * H              15     -0.00000             -0.00000              0.00001         *
 * H              16      0.00000              0.00000             -0.00000         *
 * H              17     -0.00000              0.00000              0.00000         *
 * H              18     -0.00000             -0.00000             -0.00000         *
 * H              19     -0.00000              0.00000              0.00000         *
 * H              20      0.00000             -0.00000              0.00000         *
 * H              21     -0.00000              0.00000              0.00001         *
 * H              22      0.00000             -0.00000             -0.00000         *
 * H              23     -0.00000              0.00000             -0.00000         *
 * H              24      0.00000              0.00000              0.00000         *
 *                                                                                  *
 ************************************************************************************

 ***************** Stress Tensor *****************
 *                                               *
 *          Cartesian components (GPa)           *
 * --------------------------------------------- *
 *             x             y             z     *
 *                                               *
 *  x   -269.999545      0.000000      0.000000  *
 *  y      0.000000   -269.999558     -0.000001  *
 *  z      0.000000     -0.000001   -269.999573  *
 *                                               *
 *  Pressure:  269.9996                          *
 *                                               *
 *************************************************
 LBFGS: finished iteration     0 with enthalpy= -2.89315758E+002 eV
  
 +-----------+-----------------+-----------------+------------+-----+ <-- LBFGS
 | Parameter |      value      |    tolerance    |    units   | OK? | <-- LBFGS
 +-----------+-----------------+-----------------+------------+-----+ <-- LBFGS
 |  dE/ion   |   0.000000E+000 |   1.000000E-009 |         eV | No  | <-- LBFGS
 |  |F|max   |   5.769987E-006 |   1.000000E-005 |       eV/A | Yes | <-- LBFGS
 |  |dR|max  |   0.000000E+000 |   1.000000E-005 |          A | No  | <-- LBFGS
 |   Smax    |   2.999957E+001 |   1.000000E-005 |        GPa | No  | <-- LBFGS
 +-----------+-----------------+-----------------+------------+-----+ <-- LBFGS
  

================================================================================
 Starting LBFGS iteration          1 ...
================================================================================
  
 +------------+-------------+-------------+-----------------+ <-- min LBFGS
 |    Step    |   lambda    |   F.delta'  |    enthalpy     | <-- min LBFGS
 +------------+-------------+-------------+-----------------+ <-- min LBFGS
 |  previous  |    0.000000 |    0.434276 |     -289.315758 | <-- min LBFGS
 +------------+-------------+-------------+-----------------+ <-- min LBFGS
  

--------------------------------------------------------------------------------
 LBFGS: starting iteration         1 with trial guess (lambda=  1.000000)
--------------------------------------------------------------------------------
 
+---------------- MEMORY AND SCRATCH DISK ESTIMATES PER PROCESS --------------+
|                                                     Memory          Disk    |
| Model and support data                              471.6 MB         0.0 MB |
| Electronic energy minimisation requirements         513.8 MB         0.0 MB |
| Geometry minimisation requirements                  754.3 MB         0.0 MB |
|                                               ----------------------------- |
| Approx. total storage required per process         1739.8 MB         0.0 MB |
|                                                                             |
| Requirements will fluctuate during execution and may exceed these estimates |
+-----------------------------------------------------------------------------+
 

                           -------------------------------
                                      Unit Cell
                           -------------------------------
        Real Lattice(A)              Reciprocal Lattice(1/A)
     2.6506293    -0.0000000     0.0000000        2.370450389   0.000000000  -0.000000000
    -0.0000000     4.9208391    -0.0000014        0.000000000   1.276852424   0.000000374
     0.0000000    -0.0000009     2.9645825       -0.000000000   0.000000617   2.119416589

                       Lattice parameters(A)       Cell Angles
                    a =      2.650629          alpha =   90.000033
                    b =      4.920839          beta  =   90.000000
                    c =      2.964582          gamma =   90.000000

                Current cell volume =            38.667999 A**3

                           -------------------------------
                                     Cell Contents
                           -------------------------------

            xxxxxxxxxxxxxxxxxxxxxxxxxxxxxxxxxxxxxxxxxxxxxxxxxxxxxxxxxxxxxxxxx
            x  Element         Atom        Fractional coordinates of atoms  x
            x                 Number           u          v          w      x
            x---------------------------------------------------------------x
            x  H                 1        -0.000000   0.003024   0.132576   x
            x  H                 2         0.000000   0.132101   0.455283   x
            x  H                 3        -0.000000   0.265024   0.317883   x
            x  H                 4         0.500000   0.265024   0.182116   x
            x  H                 5         0.500000   0.132101   0.044716   x
            x  H                 6         0.500000   0.003026   0.367425   x
            x  H                 7         0.500000   0.234976   0.682117   x
            x  H                 8         0.500000   0.367899   0.544717   x
            x  H                 9         0.500000   0.496976   0.867424   x
            x  H                10         0.500000   0.734976   0.817884   x
            x  H                11         0.500000   0.867899   0.955284   x
            x  H                12         0.500000   0.996974   0.632575   x
            x  H                13         0.500000   0.765024   0.317883   x
            x  H                14         0.500000   0.632101   0.455283   x
            x  H                15         0.500000   0.503024   0.132576   x
            x  H                16         0.000000   0.765024   0.182116   x
            x  H                17        -0.000000   0.632101   0.044716   x
            x  H                18         0.000000   0.503026   0.367425   x
            x  H                19        -0.000000   0.734976   0.682117   x
            x  H                20         0.000000   0.867899   0.544717   x
            x  H                21         0.000000   0.996976   0.867424   x
            x  H                22         0.000000   0.234976   0.817884   x
            x  H                23        -0.000000   0.367899   0.955284   x
            x  H                24        -0.000000   0.496974   0.632575   x
            xxxxxxxxxxxxxxxxxxxxxxxxxxxxxxxxxxxxxxxxxxxxxxxxxxxxxxxxxxxxxxxxx


------------------------------------------------------------------------ <-- SCF
SCF loop      Energy                           Energy gain       Timer   <-- SCF
                                               per atom          (sec)   <-- SCF
------------------------------------------------------------------------ <-- SCF
Initial  -3.47295329E+002                                       2506.63  <-- SCF
      1  -3.47363260E+002                    2.83046734E-003    2630.33  <-- SCF
      2  -3.47363457E+002                    8.19125146E-006    2764.12  <-- SCF
      3  -3.47363260E+002                   -8.17494571E-006    2895.07  <-- SCF
      4  -3.47363274E+002                    5.81342771E-007    3026.38  <-- SCF
      5  -3.47363275E+002                    1.77423496E-008    3156.61  <-- SCF
      6  -3.47363275E+002                    1.75073868E-009    3287.31  <-- SCF
      7  -3.47363275E+002                    1.08053630E-011    3380.58  <-- SCF
      8  -3.47363275E+002                    5.33722496E-013    3473.82  <-- SCF
      9  -3.47363275E+002                    4.16907761E-013    3567.19  <-- SCF
------------------------------------------------------------------------ <-- SCF
 
Final energy =  -347.3632748879     eV
(energy not corrected for finite basis set)
 

 ************************************** Forces **************************************
 *                                                                                  *
 *                           Cartesian components (eV/A)                            *
 * -------------------------------------------------------------------------------- *
 *                         x                    y                    z              *
 *                                                                                  *
 * H               1      0.00000             -0.00836             -0.28856         *
 * H               2     -0.00000              0.26736             -0.17862         *
 * H               3      0.00000             -0.25601              0.15449         *
 * H               4      0.00000             -0.25600             -0.15449         *
 * H               5     -0.00000              0.26736              0.17862         *
 * H               6     -0.00000             -0.00837              0.28858         *
 * H               7     -0.00000              0.25601             -0.15449         *
 * H               8     -0.00000             -0.26737              0.17862         *
 * H               9     -0.00000              0.00836              0.28860         *
 * H              10      0.00000              0.25600              0.15449         *
 * H              11     -0.00000             -0.26736             -0.17861         *
 * H              12      0.00000              0.00837             -0.28858         *
 * H              13     -0.00000             -0.25601              0.15449         *
 * H              14      0.00000              0.26736             -0.17862         *
 * H              15     -0.00000             -0.00836             -0.28860         *
 * H              16     -0.00000             -0.25600             -0.15448         *
 * H              17      0.00000              0.26736              0.17861         *
 * H              18      0.00000             -0.00837              0.28858         *
 * H              19     -0.00000              0.25601             -0.15449         *
 * H              20     -0.00000             -0.26736              0.17862         *
 * H              21      0.00000              0.00836              0.28856         *
 * H              22     -0.00000              0.25601              0.15449         *
 * H              23     -0.00000             -0.26737             -0.17862         *
 * H              24      0.00000              0.00837             -0.28858         *
 *                                                                                  *
 ************************************************************************************

 ***************** Stress Tensor *****************
 *                                               *
 *          Cartesian components (GPa)           *
 * --------------------------------------------- *
 *             x             y             z     *
 *                                               *
 *  x   -234.811585      0.000000     -0.000000  *
 *  y      0.000000   -226.651013     -0.000061  *
 *  z     -0.000000     -0.000061   -226.039172  *
 *                                               *
 *  Pressure:  229.1673                          *
 *                                               *
 *************************************************
  
 +------------+-------------+-------------+-----------------+ <-- min LBFGS
 |    Step    |   lambda    |   F.delta'  |    enthalpy     | <-- min LBFGS
 +------------+-------------+-------------+-----------------+ <-- min LBFGS
 |  previous  |    0.000000 |    0.434276 |     -289.315758 | <-- min LBFGS
 | trial step |    1.000000 |   -0.163151 |     -289.440074 | <-- min LBFGS
 +------------+-------------+-------------+-----------------+ <-- min LBFGS
  
 LBFGS: finished iteration     1 with enthalpy= -2.89440074E+002 eV
  
 +-----------+-----------------+-----------------+------------+-----+ <-- LBFGS
 | Parameter |      value      |    tolerance    |    units   | OK? | <-- LBFGS
 +-----------+-----------------+-----------------+------------+-----+ <-- LBFGS
 |  dE/ion   |   5.179848E-003 |   1.000000E-009 |         eV | No  | <-- LBFGS
 |  |F|max   |   3.215434E-001 |   1.000000E-005 |       eV/A | No  | <-- LBFGS
 |  |dR|max  |   5.708885E-007 |   1.000000E-005 |          A | Yes | <-- LBFGS
 |   Smax    |   1.396083E+001 |   1.000000E-005 |        GPa | No  | <-- LBFGS
 +-----------+-----------------+-----------------+------------+-----+ <-- LBFGS
  

================================================================================
 Starting LBFGS iteration          2 ...
================================================================================
  
 +------------+-------------+-------------+-----------------+ <-- min LBFGS
 |    Step    |   lambda    |   F.delta'  |    enthalpy     | <-- min LBFGS
 +------------+-------------+-------------+-----------------+ <-- min LBFGS
 |  previous  |    0.000000 |    0.196757 |     -289.440074 | <-- min LBFGS
 +------------+-------------+-------------+-----------------+ <-- min LBFGS
  

--------------------------------------------------------------------------------
 LBFGS: starting iteration         2 with trial guess (lambda=  1.000000)
--------------------------------------------------------------------------------
 
+---------------- MEMORY AND SCRATCH DISK ESTIMATES PER PROCESS --------------+
|                                                     Memory          Disk    |
| Model and support data                              472.4 MB         0.0 MB |
| Electronic energy minimisation requirements         514.8 MB         0.0 MB |
| Geometry minimisation requirements                  755.7 MB         0.0 MB |
|                                               ----------------------------- |
| Approx. total storage required per process         1742.9 MB         0.0 MB |
|                                                                             |
| Requirements will fluctuate during execution and may exceed these estimates |
+-----------------------------------------------------------------------------+
 

                           -------------------------------
                                      Unit Cell
                           -------------------------------
        Real Lattice(A)              Reciprocal Lattice(1/A)
     2.6593161    -0.0000000     0.0000000        2.362707233   0.000000000  -0.000000000
    -0.0000000     4.9171164    -0.0000013        0.000000000   1.277819121   0.000000336
     0.0000000    -0.0000008     2.9614431       -0.000000000   0.000000553   2.121663326

                       Lattice parameters(A)       Cell Angles
                    a =      2.659316          alpha =   90.000030
                    b =      4.917116          beta  =   90.000000
                    c =      2.961443          gamma =   90.000000

                Current cell volume =            38.724324 A**3

                           -------------------------------
                                     Cell Contents
                           -------------------------------

            xxxxxxxxxxxxxxxxxxxxxxxxxxxxxxxxxxxxxxxxxxxxxxxxxxxxxxxxxxxxxxxxx
            x  Element         Atom        Fractional coordinates of atoms  x
            x                 Number           u          v          w      x
            x---------------------------------------------------------------x
            x  H                 1         0.000000   0.002899   0.125435   x
            x  H                 2         0.000000   0.136087   0.450863   x
            x  H                 3        -0.000000   0.261207   0.321705   x
            x  H                 4         0.500000   0.261207   0.178293   x
            x  H                 5         0.500000   0.136086   0.049135   x
            x  H                 6         0.500000   0.002901   0.374566   x
            x  H                 7         0.500000   0.238793   0.678295   x
            x  H                 8         0.500000   0.363913   0.549137   x
            x  H                 9         0.500000   0.497101   0.874566   x
            x  H                10         0.500000   0.738793   0.821707   x
            x  H                11         0.500000   0.863914   0.950865   x
            x  H                12         0.500000   0.997099   0.625434   x
            x  H                13         0.500000   0.761207   0.321705   x
            x  H                14         0.500000   0.636087   0.450863   x
            x  H                15         0.500000   0.502899   0.125434   x
            x  H                16         0.000000   0.761207   0.178293   x
            x  H                17        -0.000000   0.636086   0.049135   x
            x  H                18         0.000000   0.502901   0.374566   x
            x  H                19        -0.000000   0.738793   0.678295   x
            x  H                20         0.000000   0.863913   0.549137   x
            x  H                21         0.000000   0.997101   0.874565   x
            x  H                22         0.000000   0.238793   0.821707   x
            x  H                23        -0.000000   0.363914   0.950864   x
            x  H                24        -0.000000   0.497099   0.625434   x
            xxxxxxxxxxxxxxxxxxxxxxxxxxxxxxxxxxxxxxxxxxxxxxxxxxxxxxxxxxxxxxxxx


------------------------------------------------------------------------ <-- SCF
SCF loop      Energy                           Energy gain       Timer   <-- SCF
                                               per atom          (sec)   <-- SCF
------------------------------------------------------------------------ <-- SCF
Initial  -3.46289246E+002                                       3830.86  <-- SCF
      1  -3.47501812E+002                    5.05235752E-002    3947.98  <-- SCF
      2  -3.47506677E+002                    2.02690557E-004    4076.63  <-- SCF
      3  -3.47347284E+002                   -6.64133835E-003    4200.63  <-- SCF
      4  -3.47342873E+002                   -1.83812693E-004    4326.61  <-- SCF
      5  -3.47342865E+002                   -3.42856806E-007    4451.24  <-- SCF
      6  -3.47342865E+002                    8.34976217E-009    4575.84  <-- SCF
      7  -3.47342865E+002                    4.06261507E-010    4699.23  <-- SCF
      8  -3.47342865E+002                    1.93308246E-011    4787.39  <-- SCF
      9  -3.47342865E+002                    3.08149214E-013    4876.74  <-- SCF
     10  -3.47342865E+002                   -6.84776032E-014    4965.10  <-- SCF
------------------------------------------------------------------------ <-- SCF
 
Final energy =  -347.3428649318     eV
(energy not corrected for finite basis set)
 

 ************************************** Forces **************************************
 *                                                                                  *
 *                           Cartesian components (eV/A)                            *
 * -------------------------------------------------------------------------------- *
 *                         x                    y                    z              *
 *                                                                                  *
 * H               1     -0.00000             -0.01701              0.55870         *
 * H               2     -0.00000             -0.81232              0.48009         *
 * H               3      0.00000              0.62702             -0.38624         *
 * H               4      0.00000              0.62700              0.38629         *
 * H               5      0.00000             -0.81230             -0.48012         *
 * H               6      0.00000             -0.01700             -0.55879         *
 * H               7      0.00000             -0.62703              0.38625         *
 * H               8      0.00000              0.81233             -0.48010         *
 * H               9     -0.00000              0.01700             -0.55880         *
 * H              10     -0.00000             -0.62700             -0.38629         *
 * H              11     -0.00000              0.81230              0.48012         *
 * H              12     -0.00000              0.01700              0.55879         *
 * H              13      0.00000              0.62702             -0.38624         *
 * H              14     -0.00000             -0.81232              0.48010         *
 * H              15     -0.00000             -0.01700              0.55880         *
 * H              16     -0.00000              0.62700              0.38628         *
 * H              17     -0.00000             -0.81230             -0.48012         *
 * H              18      0.00000             -0.01700             -0.55881         *
 * H              19      0.00000             -0.62703              0.38625         *
 * H              20     -0.00000              0.81232             -0.48010         *
 * H              21      0.00000              0.01701             -0.55870         *
 * H              22     -0.00000             -0.62702             -0.38629         *
 * H              23      0.00000              0.81232              0.48013         *
 * H              24     -0.00000              0.01700              0.55881         *
 *                                                                                  *
 ************************************************************************************

 ***************** Stress Tensor *****************
 *                                               *
 *          Cartesian components (GPa)           *
 * --------------------------------------------- *
 *             x             y             z     *
 *                                               *
 *  x   -229.501039     -0.000000     -0.000000  *
 *  y     -0.000000   -248.834892      0.000195  *
 *  z     -0.000000      0.000195   -245.908348  *
 *                                               *
 *  Pressure:  241.4148                          *
 *                                               *
 *************************************************
  
 +------------+-------------+-------------+-----------------+ <-- min LBFGS
 |    Step    |   lambda    |   F.delta'  |    enthalpy     | <-- min LBFGS
 +------------+-------------+-------------+-----------------+ <-- min LBFGS
 |  previous  |    0.000000 |    0.196757 |     -289.440074 | <-- min LBFGS
 | trial step |    1.000000 |   -0.495158 |     -289.335292 | <-- min LBFGS
 +------------+-------------+-------------+-----------------+ <-- min LBFGS
  

--------------------------------------------------------------------------------
 LBFGS: improving iteration         2 with line minimization (lambda=  0.284366)
--------------------------------------------------------------------------------

                           -------------------------------
                                      Unit Cell
                           -------------------------------
        Real Lattice(A)              Reciprocal Lattice(1/A)
     2.6530995    -0.0000000     0.0000000        2.368243342   0.000000000  -0.000000000
    -0.0000000     4.9197805    -0.0000014        0.000000000   1.277127170   0.000000363
     0.0000000    -0.0000008     2.9636898       -0.000000000   0.000000599   2.120055000

                       Lattice parameters(A)       Cell Angles
                    a =      2.653100          alpha =   90.000032
                    b =      4.919780          beta  =   90.000000
                    c =      2.963690          gamma =   90.000000

                Current cell volume =            38.684056 A**3

                           -------------------------------
                                     Cell Contents
                           -------------------------------

            xxxxxxxxxxxxxxxxxxxxxxxxxxxxxxxxxxxxxxxxxxxxxxxxxxxxxxxxxxxxxxxxx
            x  Element         Atom        Fractional coordinates of atoms  x
            x                 Number           u          v          w      x
            x---------------------------------------------------------------x
            x  H                 1         0.000000   0.002988   0.130545   x
            x  H                 2         0.000000   0.133234   0.454026   x
            x  H                 3        -0.000000   0.263938   0.318970   x
            x  H                 4         0.500000   0.263938   0.181029   x
            x  H                 5         0.500000   0.133234   0.045972   x
            x  H                 6         0.500000   0.002990   0.369456   x
            x  H                 7         0.500000   0.236062   0.681030   x
            x  H                 8         0.500000   0.366766   0.545974   x
            x  H                 9         0.500000   0.497012   0.869455   x
            x  H                10         0.500000   0.736062   0.818971   x
            x  H                11         0.500000   0.866766   0.954028   x
            x  H                12         0.500000   0.997010   0.630544   x
            x  H                13         0.500000   0.763938   0.318970   x
            x  H                14         0.500000   0.633234   0.454026   x
            x  H                15         0.500000   0.502988   0.130545   x
            x  H                16         0.000000   0.763938   0.181029   x
            x  H                17        -0.000000   0.633234   0.045972   x
            x  H                18         0.000000   0.502990   0.369456   x
            x  H                19        -0.000000   0.736062   0.681030   x
            x  H                20         0.000000   0.866766   0.545974   x
            x  H                21         0.000000   0.997012   0.869455   x
            x  H                22         0.000000   0.236062   0.818971   x
            x  H                23        -0.000000   0.366766   0.954028   x
            x  H                24        -0.000000   0.497010   0.630544   x
            xxxxxxxxxxxxxxxxxxxxxxxxxxxxxxxxxxxxxxxxxxxxxxxxxxxxxxxxxxxxxxxxx


------------------------------------------------------------------------ <-- SCF
SCF loop      Energy                           Energy gain       Timer   <-- SCF
                                               per atom          (sec)   <-- SCF
------------------------------------------------------------------------ <-- SCF
Initial  -3.46868072E+002                                       5226.17  <-- SCF
      1  -3.47496379E+002                    2.61794822E-002    5352.78  <-- SCF
      2  -3.47498958E+002                    1.07460732E-004    5491.69  <-- SCF
      3  -3.47416515E+002                   -3.43514135E-003    5628.23  <-- SCF
      4  -3.47414367E+002                   -8.95100640E-005    5767.43  <-- SCF
      5  -3.47414362E+002                   -2.06598677E-007    5902.66  <-- SCF
      6  -3.47414362E+002                    3.46008467E-009    6038.26  <-- SCF
      7  -3.47414362E+002                    1.95108804E-010    6154.87  <-- SCF
      8  -3.47414362E+002                    5.54265777E-012    6249.85  <-- SCF
      9  -3.47414362E+002                    3.12177309E-013    6345.00  <-- SCF
------------------------------------------------------------------------ <-- SCF
 
Final energy =  -347.4143618598     eV
(energy not corrected for finite basis set)
 

 ************************************** Forces **************************************
 *                                                                                  *
 *                           Cartesian components (eV/A)                            *
 * -------------------------------------------------------------------------------- *
 *                         x                    y                    z              *
 *                                                                                  *
 * H               1      0.00000             -0.01261             -0.08417         *
 * H               2     -0.00000             -0.00128             -0.01681         *
 * H               3      0.00000             -0.04521              0.02529         *
 * H               4      0.00000             -0.04521             -0.02528         *
 * H               5     -0.00000             -0.00127              0.01680         *
 * H               6     -0.00000             -0.01261              0.08418         *
 * H               7      0.00000              0.04521             -0.02529         *
 * H               8     -0.00000              0.00128              0.01681         *
 * H               9     -0.00000              0.01261              0.08418         *
 * H              10      0.00000              0.04521              0.02528         *
 * H              11     -0.00000              0.00127             -0.01680         *
 * H              12      0.00000              0.01261             -0.08418         *
 * H              13      0.00000             -0.04521              0.02529         *
 * H              14     -0.00000             -0.00128             -0.01681         *
 * H              15     -0.00000             -0.01261             -0.08418         *
 * H              16     -0.00000             -0.04521             -0.02528         *
 * H              17      0.00000             -0.00127              0.01680         *
 * H              18      0.00000             -0.01261              0.08418         *
 * H              19     -0.00000              0.04521             -0.02529         *
 * H              20     -0.00000              0.00128              0.01681         *
 * H              21      0.00000              0.01261              0.08417         *
 * H              22     -0.00000              0.04521              0.02528         *
 * H              23     -0.00000              0.00127             -0.01680         *
 * H              24      0.00000              0.01261             -0.08418         *
 *                                                                                  *
 ************************************************************************************

 ***************** Stress Tensor *****************
 *                                               *
 *          Cartesian components (GPa)           *
 * --------------------------------------------- *
 *             x             y             z     *
 *                                               *
 *  x   -233.355722     -0.000000     -0.000000  *
 *  y     -0.000000   -232.391757      0.000005  *
 *  z     -0.000000      0.000005   -231.209554  *
 *                                               *
 *  Pressure:  232.3190                          *
 *                                               *
 *************************************************
  
 +------------+-------------+-------------+-----------------+ <-- min LBFGS
 |    Step    |   lambda    |   F.delta'  |    enthalpy     | <-- min LBFGS
 +------------+-------------+-------------+-----------------+ <-- min LBFGS
 |  previous  |    0.000000 |    0.196757 |     -289.440074 | <-- min LBFGS
 | trial step |    1.000000 |   -0.495158 |     -289.335292 | <-- min LBFGS
 |  line step |    0.284366 |    0.028013 |     -289.467108 | <-- min LBFGS
 +------------+-------------+-------------+-----------------+ <-- min LBFGS
  
 LBFGS: finished iteration     2 with enthalpy= -2.89467108E+002 eV
  
 +-----------+-----------------+-----------------+------------+-----+ <-- LBFGS
 | Parameter |      value      |    tolerance    |    units   | OK? | <-- LBFGS
 +-----------+-----------------+-----------------+------------+-----+ <-- LBFGS
 |  dE/ion   |   1.126407E-003 |   1.000000E-009 |         eV | No  | <-- LBFGS
 |  |F|max   |   8.511933E-002 |   1.000000E-005 |       eV/A | No  | <-- LBFGS
 |  |dR|max  |   6.706080E-003 |   1.000000E-005 |          A | No  | <-- LBFGS
 |   Smax    |   8.790446E+000 |   1.000000E-005 |        GPa | No  | <-- LBFGS
 +-----------+-----------------+-----------------+------------+-----+ <-- LBFGS
  

================================================================================
 Starting LBFGS iteration          3 ...
================================================================================
  
 +------------+-------------+-------------+-----------------+ <-- min LBFGS
 |    Step    |   lambda    |   F.delta'  |    enthalpy     | <-- min LBFGS
 +------------+-------------+-------------+-----------------+ <-- min LBFGS
 |  previous  |    0.000000 |    0.109514 |     -289.467108 | <-- min LBFGS
 +------------+-------------+-------------+-----------------+ <-- min LBFGS
  

--------------------------------------------------------------------------------
 LBFGS: starting iteration         3 with trial guess (lambda=  1.000000)
--------------------------------------------------------------------------------

                           -------------------------------
                                      Unit Cell
                           -------------------------------
        Real Lattice(A)              Reciprocal Lattice(1/A)
     2.6407961     0.0000000     0.0000000        2.379276930  -0.000000000  -0.000000000
     0.0000000     4.8981818    -0.0000014       -0.000000000   1.282758685   0.000000381
     0.0000000    -0.0000009     2.9481226       -0.000000000   0.000000627   2.131249632

                       Lattice parameters(A)       Cell Angles
                    a =      2.640796          alpha =   90.000034
                    b =      4.898182          beta  =   90.000000
                    c =      2.948123          gamma =   90.000000

                Current cell volume =            38.134260 A**3

                           -------------------------------
                                     Cell Contents
                           -------------------------------

            xxxxxxxxxxxxxxxxxxxxxxxxxxxxxxxxxxxxxxxxxxxxxxxxxxxxxxxxxxxxxxxxx
            x  Element         Atom        Fractional coordinates of atoms  x
            x                 Number           u          v          w      x
            x---------------------------------------------------------------x
            x  H                 1         0.000000   0.002718   0.129016   x
            x  H                 2         0.000000   0.132193   0.454480   x
            x  H                 3        -0.000000   0.263826   0.319003   x
            x  H                 4         0.500000   0.263826   0.180995   x
            x  H                 5         0.500000   0.132192   0.045518   x
            x  H                 6         0.500000   0.002720   0.370985   x
            x  H                 7         0.500000   0.236174   0.680997   x
            x  H                 8         0.500000   0.367807   0.545520   x
            x  H                 9         0.500000   0.497282   0.870984   x
            x  H                10         0.500000   0.736174   0.819005   x
            x  H                11         0.500000   0.867808   0.954482   x
            x  H                12         0.500000   0.997280   0.629015   x
            x  H                13         0.500000   0.763826   0.319003   x
            x  H                14         0.500000   0.632193   0.454480   x
            x  H                15         0.500000   0.502718   0.129016   x
            x  H                16         0.000000   0.763826   0.180995   x
            x  H                17        -0.000000   0.632192   0.045518   x
            x  H                18         0.000000   0.502720   0.370984   x
            x  H                19        -0.000000   0.736174   0.680997   x
            x  H                20         0.000000   0.867807   0.545520   x
            x  H                21         0.000000   0.997282   0.870984   x
            x  H                22         0.000000   0.236174   0.819005   x
            x  H                23        -0.000000   0.367808   0.954482   x
            x  H                24        -0.000000   0.497280   0.629016   x
            xxxxxxxxxxxxxxxxxxxxxxxxxxxxxxxxxxxxxxxxxxxxxxxxxxxxxxxxxxxxxxxxx


------------------------------------------------------------------------ <-- SCF
SCF loop      Energy                           Energy gain       Timer   <-- SCF
                                               per atom          (sec)   <-- SCF
------------------------------------------------------------------------ <-- SCF
Initial  -3.46568353E+002                                       6605.08  <-- SCF
      1  -3.46601048E+002                    1.36229155E-003    6733.34  <-- SCF
      2  -3.46601160E+002                    4.63993380E-006    6871.25  <-- SCF
      3  -3.46596419E+002                   -1.97521487E-004    7008.16  <-- SCF
      4  -3.46596424E+002                    2.16316529E-007    7145.99  <-- SCF
      5  -3.46596425E+002                    1.76738619E-008    7282.56  <-- SCF
      6  -3.46596425E+002                   -3.31218111E-010    7418.58  <-- SCF
      7  -3.46596425E+002                    2.06278709E-011    7515.26  <-- SCF
      8  -3.46596425E+002                    1.18627377E-012    7610.49  <-- SCF
      9  -3.46596425E+002                   -2.01404715E-014    7706.68  <-- SCF
------------------------------------------------------------------------ <-- SCF
 
Final energy =  -346.5964247389     eV
(energy not corrected for finite basis set)
 

 ************************************** Forces **************************************
 *                                                                                  *
 *                           Cartesian components (eV/A)                            *
 * -------------------------------------------------------------------------------- *
 *                         x                    y                    z              *
 *                                                                                  *
 * H               1     -0.00000              0.01094              0.24939         *
 * H               2      0.00000              0.08871             -0.04037         *
 * H               3      0.00000             -0.10926              0.04109         *
 * H               4      0.00000             -0.10926             -0.04109         *
 * H               5     -0.00000              0.08871              0.04037         *
 * H               6     -0.00000              0.01094             -0.24942         *
 * H               7      0.00000              0.10926             -0.04109         *
 * H               8     -0.00000             -0.08871              0.04037         *
 * H               9      0.00000             -0.01094             -0.24939         *
 * H              10      0.00000              0.10926              0.04109         *
 * H              11     -0.00000             -0.08871             -0.04037         *
 * H              12      0.00000             -0.01094              0.24942         *
 * H              13      0.00000             -0.10926              0.04109         *
 * H              14      0.00000              0.08871             -0.04037         *
 * H              15     -0.00000              0.01094              0.24939         *
 * H              16      0.00000             -0.10927             -0.04109         *
 * H              17     -0.00000              0.08872              0.04037         *
 * H              18     -0.00000              0.01094             -0.24942         *
 * H              19      0.00000              0.10926             -0.04110         *
 * H              20      0.00000             -0.08872              0.04037         *
 * H              21     -0.00000             -0.01094             -0.24939         *
 * H              22     -0.00000              0.10927              0.04110         *
 * H              23      0.00000             -0.08872             -0.04037         *
 * H              24     -0.00000             -0.01094              0.24942         *
 *                                                                                  *
 ************************************************************************************

 ***************** Stress Tensor *****************
 *                                               *
 *          Cartesian components (GPa)           *
 * --------------------------------------------- *
 *             x             y             z     *
 *                                               *
 *  x   -241.695366     -0.000000      0.000000  *
 *  y     -0.000000   -239.242564      0.000095  *
 *  z      0.000000      0.000095   -244.151765  *
 *                                               *
 *  Pressure:  241.6966                          *
 *                                               *
 *************************************************
  
 +------------+-------------+-------------+-----------------+ <-- min LBFGS
 |    Step    |   lambda    |   F.delta'  |    enthalpy     | <-- min LBFGS
 +------------+-------------+-------------+-----------------+ <-- min LBFGS
 |  previous  |    0.000000 |    0.109514 |     -289.467108 | <-- min LBFGS
 | trial step |    1.000000 |   -0.069338 |     -289.472745 | <-- min LBFGS
 +------------+-------------+-------------+-----------------+ <-- min LBFGS
  
 LBFGS: finished iteration     3 with enthalpy= -2.89472745E+002 eV
  
 +-----------+-----------------+-----------------+------------+-----+ <-- LBFGS
 | Parameter |      value      |    tolerance    |    units   | OK? | <-- LBFGS
 +-----------+-----------------+-----------------+------------+-----+ <-- LBFGS
 |  dE/ion   |   2.348607E-004 |   1.000000E-009 |         eV | No  | <-- LBFGS
 |  |F|max   |   2.496645E-001 |   1.000000E-005 |       eV/A | No  | <-- LBFGS
 |  |dR|max  |   5.275677E-003 |   1.000000E-005 |          A | No  | <-- LBFGS
 |   Smax    |   4.151765E+000 |   1.000000E-005 |        GPa | No  | <-- LBFGS
 +-----------+-----------------+-----------------+------------+-----+ <-- LBFGS
  

================================================================================
 Starting LBFGS iteration          4 ...
================================================================================
  
 +------------+-------------+-------------+-----------------+ <-- min LBFGS
 |    Step    |   lambda    |   F.delta'  |    enthalpy     | <-- min LBFGS
 +------------+-------------+-------------+-----------------+ <-- min LBFGS
 |  previous  |    0.000000 |    0.079220 |     -289.472745 | <-- min LBFGS
 +------------+-------------+-------------+-----------------+ <-- min LBFGS
  

--------------------------------------------------------------------------------
 LBFGS: starting iteration         4 with trial guess (lambda=  1.000000)
--------------------------------------------------------------------------------

                           -------------------------------
                                      Unit Cell
                           -------------------------------
        Real Lattice(A)              Reciprocal Lattice(1/A)
     2.6330618     0.0000000     0.0000000        2.386265825  -0.000000000  -0.000000000
     0.0000000     4.8802126    -0.0000017       -0.000000000   1.287481873   0.000000445
     0.0000000    -0.0000010     2.9414428       -0.000000000   0.000000734   2.136089598

                       Lattice parameters(A)       Cell Angles
                    a =      2.633062          alpha =   90.000040
                    b =      4.880213          beta  =   90.000000
                    c =      2.941443          gamma =   90.000000

                Current cell volume =            37.797249 A**3

                           -------------------------------
                                     Cell Contents
                           -------------------------------

            xxxxxxxxxxxxxxxxxxxxxxxxxxxxxxxxxxxxxxxxxxxxxxxxxxxxxxxxxxxxxxxxx
            x  Element         Atom        Fractional coordinates of atoms  x
            x                 Number           u          v          w      x
            x---------------------------------------------------------------x
            x  H                 1         0.000000   0.002659   0.133221   x
            x  H                 2         0.000000   0.132443   0.454078   x
            x  H                 3        -0.000000   0.262463   0.319793   x
            x  H                 4         0.500000   0.262463   0.180205   x
            x  H                 5         0.500000   0.132443   0.045919   x
            x  H                 6         0.500000   0.002661   0.366779   x
            x  H                 7         0.500000   0.237537   0.680207   x
            x  H                 8         0.500000   0.367557   0.545922   x
            x  H                 9         0.500000   0.497341   0.866779   x
            x  H                10         0.500000   0.737537   0.819795   x
            x  H                11         0.500000   0.867557   0.954081   x
            x  H                12         0.500000   0.997339   0.633221   x
            x  H                13         0.500000   0.762463   0.319793   x
            x  H                14         0.500000   0.632443   0.454078   x
            x  H                15         0.500000   0.502659   0.133221   x
            x  H                16         0.000000   0.762463   0.180205   x
            x  H                17        -0.000000   0.632443   0.045919   x
            x  H                18         0.000000   0.502661   0.366779   x
            x  H                19        -0.000000   0.737537   0.680207   x
            x  H                20         0.000000   0.867557   0.545922   x
            x  H                21         0.000000   0.997341   0.866779   x
            x  H                22        -0.000000   0.237537   0.819795   x
            x  H                23        -0.000000   0.367557   0.954081   x
            x  H                24        -0.000000   0.497339   0.633221   x
            xxxxxxxxxxxxxxxxxxxxxxxxxxxxxxxxxxxxxxxxxxxxxxxxxxxxxxxxxxxxxxxxx


------------------------------------------------------------------------ <-- SCF
SCF loop      Energy                           Energy gain       Timer   <-- SCF
                                               per atom          (sec)   <-- SCF
------------------------------------------------------------------------ <-- SCF
Initial  -3.45952466E+002                                       7964.85  <-- SCF
      1  -3.46083080E+002                    5.44227602E-003    8089.34  <-- SCF
      2  -3.46083561E+002                    2.00363376E-005    8223.55  <-- SCF
      3  -3.46069887E+002                   -5.69770269E-004    8355.45  <-- SCF
      4  -3.46069709E+002                   -7.40688880E-006    8489.15  <-- SCF
      5  -3.46069708E+002                   -4.12511035E-008    8621.70  <-- SCF
      6  -3.46069708E+002                    2.35800613E-010    8754.62  <-- SCF
      7  -3.46069708E+002                    4.51811198E-011    8848.96  <-- SCF
      8  -3.46069708E+002                    3.02509882E-012    8941.39  <-- SCF
      9  -3.46069708E+002                   -6.84776032E-014    9034.58  <-- SCF
------------------------------------------------------------------------ <-- SCF
 
Final energy =  -346.0697079976     eV
(energy not corrected for finite basis set)
 

 ************************************** Forces **************************************
 *                                                                                  *
 *                           Cartesian components (eV/A)                            *
 * -------------------------------------------------------------------------------- *
 *                         x                    y                    z              *
 *                                                                                  *
 * H               1     -0.00000             -0.05251             -0.38487         *
 * H               2     -0.00000             -0.17786              0.14279         *
 * H               3      0.00000              0.24585             -0.09513         *
 * H               4      0.00000              0.24586              0.09515         *
 * H               5      0.00000             -0.17786             -0.14279         *
 * H               6     -0.00000             -0.05252              0.38490         *
 * H               7      0.00000             -0.24585              0.09513         *
 * H               8     -0.00000              0.17786             -0.14279         *
 * H               9     -0.00000              0.05251              0.38486         *
 * H              10      0.00000             -0.24586             -0.09515         *
 * H              11      0.00000              0.17786              0.14279         *
 * H              12      0.00000              0.05252             -0.38490         *
 * H              13     -0.00000              0.24585             -0.09513         *
 * H              14     -0.00000             -0.17786              0.14279         *
 * H              15      0.00000             -0.05251             -0.38486         *
 * H              16      0.00000              0.24587              0.09515         *
 * H              17     -0.00000             -0.17787             -0.14280         *
 * H              18     -0.00000             -0.05252              0.38489         *
 * H              19      0.00000             -0.24586              0.09513         *
 * H              20      0.00000              0.17787             -0.14279         *
 * H              21     -0.00000              0.05251              0.38487         *
 * H              22     -0.00000             -0.24588             -0.09516         *
 * H              23      0.00000              0.17788              0.14280         *
 * H              24      0.00000              0.05252             -0.38489         *
 *                                                                                  *
 ************************************************************************************

 ***************** Stress Tensor *****************
 *                                               *
 *          Cartesian components (GPa)           *
 * --------------------------------------------- *
 *             x             y             z     *
 *                                               *
 *  x   -245.747367     -0.000000     -0.000000  *
 *  y     -0.000000   -252.020734     -0.000179  *
 *  z     -0.000000     -0.000179   -243.632710  *
 *                                               *
 *  Pressure:  247.1336                          *
 *                                               *
 *************************************************
  
 +------------+-------------+-------------+-----------------+ <-- min LBFGS
 |    Step    |   lambda    |   F.delta'  |    enthalpy     | <-- min LBFGS
 +------------+-------------+-------------+-----------------+ <-- min LBFGS
 |  previous  |    0.000000 |    0.079220 |     -289.472745 | <-- min LBFGS
 | trial step |    1.000000 |   -0.192106 |     -289.450858 | <-- min LBFGS
 +------------+-------------+-------------+-----------------+ <-- min LBFGS
  

--------------------------------------------------------------------------------
 LBFGS: improving iteration         4 with line minimization (lambda=  0.291974)
--------------------------------------------------------------------------------

                           -------------------------------
                                      Unit Cell
                           -------------------------------
        Real Lattice(A)              Reciprocal Lattice(1/A)
     2.6385379     0.0000000     0.0000000        2.381313271  -0.000000000  -0.000000000
     0.0000000     4.8929353    -0.0000015       -0.000000000   1.284134148   0.000000399
     0.0000000    -0.0000009     2.9461723       -0.000000000   0.000000658   2.132660508

                       Lattice parameters(A)       Cell Angles
                    a =      2.638538          alpha =   90.000036
                    b =      4.892935          beta  =   90.000000
                    c =      2.946172          gamma =   90.000000

                Current cell volume =            38.035659 A**3

                           -------------------------------
                                     Cell Contents
                           -------------------------------

            xxxxxxxxxxxxxxxxxxxxxxxxxxxxxxxxxxxxxxxxxxxxxxxxxxxxxxxxxxxxxxxxx
            x  Element         Atom        Fractional coordinates of atoms  x
            x                 Number           u          v          w      x
            x---------------------------------------------------------------x
            x  H                 1         0.000000   0.002701   0.130244   x
            x  H                 2         0.000000   0.132266   0.454363   x
            x  H                 3        -0.000000   0.263428   0.319234   x
            x  H                 4         0.500000   0.263428   0.180765   x
            x  H                 5         0.500000   0.132266   0.045635   x
            x  H                 6         0.500000   0.002703   0.369757   x
            x  H                 7         0.500000   0.236572   0.680766   x
            x  H                 8         0.500000   0.367734   0.545637   x
            x  H                 9         0.500000   0.497299   0.869756   x
            x  H                10         0.500000   0.736572   0.819235   x
            x  H                11         0.500000   0.867734   0.954365   x
            x  H                12         0.500000   0.997297   0.630243   x
            x  H                13         0.500000   0.763428   0.319234   x
            x  H                14         0.500000   0.632266   0.454363   x
            x  H                15         0.500000   0.502701   0.130244   x
            x  H                16         0.000000   0.763428   0.180765   x
            x  H                17        -0.000000   0.632266   0.045635   x
            x  H                18         0.000000   0.502703   0.369757   x
            x  H                19        -0.000000   0.736572   0.680766   x
            x  H                20         0.000000   0.867734   0.545637   x
            x  H                21         0.000000   0.997299   0.869756   x
            x  H                22         0.000000   0.236572   0.819235   x
            x  H                23        -0.000000   0.367734   0.954365   x
            x  H                24        -0.000000   0.497297   0.630243   x
            xxxxxxxxxxxxxxxxxxxxxxxxxxxxxxxxxxxxxxxxxxxxxxxxxxxxxxxxxxxxxxxxx


------------------------------------------------------------------------ <-- SCF
SCF loop      Energy                           Energy gain       Timer   <-- SCF
                                               per atom          (sec)   <-- SCF
[...]
              H 5  -- H 6                    0.14        1.15158
              H 21 -- H 22                   0.20        1.18240
              H 1  -- H 16                   0.20        1.18240
              H 9  -- H 10                   0.20        1.18240
              H 4  -- H 15                   0.21        1.18240
              H 7  -- H 12                   0.21        1.18240
              H 6  -- H 13                   0.20        1.18240
              H 3  -- H 18                   0.21        1.18240
              H 19 -- H 24                   0.21        1.18240
              H 5  -- H 7                   -0.09        1.19139
              H 3  -- H 23                  -0.09        1.19139
              H 17 -- H 19                  -0.09        1.19139
              H 11 -- H 13                  -0.09        1.19139
              H 10 -- H 14                  -0.09        1.19140
              H 2  -- H 22                  -0.09        1.19140
              H 16 -- H 20                  -0.09        1.19140
              H 4  -- H 8                   -0.09        1.19140
              H 5  -- H 11                  -0.04        1.32442
              H 17 -- H 23                  -0.04        1.32442
              H 8  -- H 14                  -0.04        1.32443
              H 2  -- H 20                  -0.04        1.32443
              H 7  -- H 22                   0.02        1.38319
              H 13 -- H 16                   0.03        1.38319
              H 10 -- H 19                   0.03        1.38319
              H 3  -- H 4                    0.03        1.38319
              H 8  -- H 15                  -0.26        1.38995
              H 2  -- H 21                  -0.26        1.38995
              H 9  -- H 14                  -0.26        1.38995
              H 1  -- H 20                  -0.26        1.38995
              H 6  -- H 11                  -0.26        1.38995
              H 5  -- H 12                  -0.26        1.38995
              H 18 -- H 23                  -0.26        1.38995
              H 17 -- H 24                  -0.26        1.38995
              H 4  -- H 6                   -0.09        1.39441
              H 16 -- H 18                  -0.09        1.39441
              H 10 -- H 12                  -0.09        1.39441
              H 22 -- H 24                  -0.09        1.39441
              H 1  -- H 3                   -0.09        1.39441
              H 19 -- H 21                  -0.09        1.39441
              H 13 -- H 15                  -0.09        1.39441
              H 7  -- H 9                   -0.09        1.39441
              H 6  -- H 7                   -0.22        1.47287
              H 12 -- H 13                  -0.22        1.47287
              H 18 -- H 19                  -0.22        1.47287
              H 3  -- H 24                  -0.22        1.47287
              H 10 -- H 15                  -0.22        1.47288
              H 4  -- H 9                   -0.22        1.47288
              H 1  -- H 22                  -0.22        1.47288
              H 16 -- H 21                  -0.22        1.47288
              H 4  -- H 7                   -0.30        1.48111
              H 3  -- H 22                  -0.30        1.48112
              H 10 -- H 13                  -0.30        1.48112
              H 16 -- H 19                  -0.30        1.48112
              H 8  -- H 24                  -0.14        1.48885
              H 2  -- H 6                   -0.14        1.48885
              H 12 -- H 20                  -0.14        1.48885
              H 14 -- H 18                  -0.14        1.48885
              H 11 -- H 21                  -0.14        1.48885
              H 9  -- H 23                  -0.14        1.48885
              H 15 -- H 17                  -0.14        1.48885
              H 1  -- H 5                   -0.14        1.48885
              H 12 -- H 21                  -0.19        1.49825
              H 1  -- H 6                   -0.19        1.49825
              H 9  -- H 24                  -0.19        1.49825
              H 15 -- H 18                  -0.19        1.49825
              H 1  -- H 11                  -0.15        1.56463
              H 5  -- H 21                  -0.15        1.56463
              H 15 -- H 23                  -0.15        1.56463
              H 9  -- H 17                  -0.15        1.56463
              H 8  -- H 18                  -0.15        1.56464
              H 2  -- H 12                  -0.15        1.56464
              H 14 -- H 24                  -0.15        1.56464
              H 6  -- H 20                  -0.15        1.56464
              H 10 -- H 17                  -0.20        1.56615
              H 5  -- H 22                  -0.20        1.56615
              H 4  -- H 23                  -0.20        1.56615
              H 11 -- H 16                  -0.20        1.56615
              H 14 -- H 19                  -0.20        1.56616
              H 3  -- H 8                   -0.20        1.56616
              H 2  -- H 7                   -0.20        1.56616
              H 13 -- H 20                  -0.20        1.56616
              H 10 -- H 20                  -0.34        1.67663
              H 14 -- H 16                  -0.34        1.67663
              H 2  -- H 4                   -0.34        1.67663
              H 8  -- H 22                  -0.34        1.67663
              H 3  -- H 5                   -0.34        1.67663
              H 7  -- H 23                  -0.34        1.67663
              H 13 -- H 17                  -0.34        1.67663
              H 11 -- H 19                  -0.34        1.67663
              H 4  -- H 22                  -0.36        1.70269
              H 10 -- H 16                  -0.36        1.70269
              H 13 -- H 19                  -0.37        1.70269
              H 3  -- H 7                   -0.37        1.70269
              H 5  -- H 23                  -0.24        1.77378
              H 11 -- H 17                  -0.24        1.77378
              H 14 -- H 20                  -0.24        1.77378
              H 2  -- H 8                   -0.24        1.77378
              H 11 -- H 20                  -0.60        1.79208
              H 2  -- H 5                   -0.60        1.79208
              H 14 -- H 17                  -0.60        1.79208
              H 8  -- H 23                  -0.60        1.79208
              H 1  -- H 17                  -0.16        1.83024
              H 21 -- H 23                  -0.16        1.83024
              H 5  -- H 15                  -0.16        1.83024
              H 9  -- H 11                  -0.16        1.83024
              H 6  -- H 14                  -0.16        1.83024
              H 20 -- H 24                  -0.16        1.83024
              H 2  -- H 18                  -0.16        1.83024
              H 8  -- H 12                  -0.16        1.83024
              H 13 -- H 18                  -0.29        1.84420
              H 12 -- H 19                  -0.29        1.84420
              H 3  -- H 6                   -0.29        1.84420
              H 7  -- H 24                  -0.29        1.84420
              H 1  -- H 4                   -0.29        1.84421
              H 15 -- H 16                  -0.29        1.84421
              H 10 -- H 21                  -0.29        1.84421
              H 9  -- H 22                  -0.29        1.84421
              H 7  -- H 21                  -0.12        1.85280
              H 1  -- H 13                  -0.12        1.85280
              H 3  -- H 15                  -0.12        1.85280
              H 9  -- H 19                  -0.12        1.85280
              H 12 -- H 22                  -0.12        1.85281
              H 6  -- H 16                  -0.12        1.85281
              H 10 -- H 24                  -0.12        1.85281
              H 4  -- H 18                  -0.12        1.85281
              H 3  -- H 21                  -0.39        1.85719
              H 1  -- H 19                  -0.39        1.85719
              H 7  -- H 15                  -0.39        1.85719
              H 9  -- H 13                  -0.39        1.85719
              H 6  -- H 10                  -0.39        1.85720
              H 16 -- H 24                  -0.39        1.85720
              H 4  -- H 12                  -0.39        1.85720
              H 18 -- H 22                  -0.39        1.85720
              H 12 -- H 14                  -0.27        1.86476
              H 18 -- H 20                  -0.27        1.86476
              H 2  -- H 24                  -0.27        1.86476
              H 6  -- H 8                   -0.27        1.86476
              H 5  -- H 9                   -0.27        1.86477
              H 17 -- H 21                  -0.27        1.86477
              H 1  -- H 23                  -0.27        1.86477
              H 11 -- H 15                  -0.27        1.86477
              H 17 -- H 20                  -0.36        1.87299
              H 2  -- H 23                  -0.36        1.87299
              H 11 -- H 14                  -0.36        1.87299
              H 5  -- H 8                   -0.36        1.87299
              H 6  -- H 21                  -0.44        1.98091
              H 1  -- H 12                  -0.44        1.98091
              H 9  -- H 18                  -0.44        1.98091
              H 15 -- H 24                  -0.44        1.98091
              H 2  -- H 16                  -0.08        1.98410
              H 20 -- H 22                  -0.08        1.98410
              H 8  -- H 10                  -0.08        1.98410
              H 4  -- H 14                  -0.08        1.98410
              H 7  -- H 11                  -0.08        1.98410
              H 19 -- H 23                  -0.08        1.98410
              H 5  -- H 13                  -0.08        1.98410
              H 3  -- H 17                  -0.08        1.98410
              H 4  -- H 11                  -0.12        2.04860
              H 5  -- H 10                  -0.12        2.04860
              H 16 -- H 23                  -0.12        2.04860
              H 17 -- H 22                  -0.12        2.04860
              H 8  -- H 13                  -0.12        2.04860
              H 2  -- H 19                  -0.12        2.04860
              H 3  -- H 20                  -0.12        2.04860
              H 7  -- H 14                  -0.12        2.04860
              H 4  -- H 21                  -0.23        2.06790
              H 1  -- H 10                  -0.23        2.06790
              H 15 -- H 22                  -0.23        2.06790
              H 9  -- H 16                  -0.23        2.06790
              H 6  -- H 19                  -0.23        2.06791
              H 13 -- H 24                  -0.23        2.06791
              H 3  -- H 12                  -0.23        2.06791
              H 7  -- H 18                  -0.23        2.06791
              H 6  -- H 22                  -0.17        2.19860
              H 12 -- H 16                  -0.17        2.19860
              H 10 -- H 18                  -0.17        2.19860
              H 4  -- H 24                  -0.17        2.19860
              H 1  -- H 7                   -0.17        2.19860
              H 3  -- H 9                   -0.17        2.19860
              H 15 -- H 19                  -0.17        2.19860
              H 13 -- H 21                  -0.17        2.19860
              H 7  -- H 20                  -0.03        2.27750
              H 2  -- H 13                  -0.03        2.27750
              H 8  -- H 19                  -0.03        2.27750
              H 3  -- H 14                  -0.03        2.27750
              H 11 -- H 22                  -0.03        2.27750
              H 5  -- H 16                  -0.03        2.27750
              H 10 -- H 23                  -0.03        2.27750
              H 4  -- H 17                  -0.03        2.27750
              H 2  -- H 11                  -0.06        2.36800
              H 5  -- H 20                  -0.06        2.36800
              H 8  -- H 17                  -0.06        2.36800
              H 14 -- H 23                  -0.06        2.36800
              H 1  -- H 14                   0.07        2.43941
              H 9  -- H 20                   0.07        2.43941
              H 8  -- H 21                   0.07        2.43941
              H 2  -- H 15                   0.07        2.43941
              H 6  -- H 17                   0.07        2.43942
              H 12 -- H 23                   0.07        2.43942
              H 5  -- H 18                   0.07        2.43942
              H 11 -- H 24                   0.07        2.43942
              H 19 -- H 22                  -0.05        2.48494
              H 3  -- H 16                  -0.05        2.48494
              H 7  -- H 10                  -0.05        2.48494
              H 4  -- H 13                  -0.05        2.48494
              H 12 -- H 17                   0.07        2.54023
              H 5  -- H 24                   0.07        2.54023
              H 6  -- H 23                   0.07        2.54023
              H 11 -- H 18                   0.07        2.54023
              H 14 -- H 21                   0.07        2.54023
              H 2  -- H 9                    0.07        2.54023
              H 1  -- H 8                    0.07        2.54023
              H 15 -- H 20                   0.07        2.54023
              H 21 -- H 24                   0.01        2.55077
              H 1  -- H 18                   0.01        2.55077
              H 9  -- H 12                   0.01        2.55077
              H 6  -- H 15                   0.01        2.55077
              H 16 -- H 22                  -0.03        2.55783
              H 4  -- H 10                  -0.03        2.55783
              H 7  -- H 13                  -0.03        2.55783
              H 3  -- H 19                  -0.03        2.55783
              H 3  -- H 11                   0.09        2.57970
              H 5  -- H 19                   0.09        2.57970
              H 13 -- H 23                   0.09        2.57970
              H 7  -- H 17                   0.09        2.57970
              H 8  -- H 16                   0.09        2.57971
              H 2  -- H 10                   0.09        2.57971
              H 4  -- H 20                   0.09        2.57971
              H 14 -- H 22                   0.09        2.57971
======================================================================


Writing analysis data to Cmca-12.castep_bin

Writing model to Cmca-12.check
 
 A BibTeX formatted list of references used in this run has been written to 
 Cmca-12.bib
 
Initialisation time =     14.72 s
Calculation time    =  33341.56 s
Finalisation time   =     76.68 s
Total time          =  33432.95 s
Peak Memory Use     = 1527428 kB
  
Overall parallel efficiency rating: Excellent (98%)                             
  
Data was distributed by:-
k-point (18-way); efficiency rating: Excellent (98%)                            
