 +-------------------------------------------------+
 |                                                 |
 |      CCC   AA    SSS  TTTTT  EEEEE  PPPP        |
 |     C     A  A  S       T    E      P   P       |
 |     C     AAAA   SS     T    EEE    PPPP        |
 |     C     A  A     S    T    E      P           |
 |      CCC  A  A  SSS     T    EEEEE  P           |
 |                                                 |
 +-------------------------------------------------+
 |                                                 |
 | Welcome to Academic Release CASTEP version 18.1 |          
 | Ab Initio Total Energy Program                  |
 |                                                 |
 | Authors:                                        |
 | M. Segall, M. Probert, C. Pickard, P. Hasnip,   |
 | S. Clark, K. Refson, J. R. Yates, M. Payne      |
 |                                                 |
 | Contributors:                                   |
 | P. Lindan, P. Haynes, J. White, V. Milman,      |
 | N. Govind, M. Gibson, P. Tulip, V. Cocula,      |
 | B. Montanari, D. Quigley, M. Glover,            |
 | L. Bernasconi, A. Perlov, M. Plummer,           |
 | E. McNellis, J. Meyer, J. Gale, D. Jochym       |
 | J. Aarons, B. Walker, R. Gillen, D. Jones       |
 | T. Green, I. J. Bush, C. J. Armstrong,          |
 | E. J. Higgins, E. L. Brown, M. S. McFly,        |
 | J. Wilkins, B-C. Shih, P. J. P. Byrne           |
 |                                                 |
 | Copyright (c) 2000 - 2017                       |
 |                                                 |
 |     Distributed under the terms of an           |
 |     Agreement between the United Kingdom        |
 |     Car-Parrinello (UKCP) Consortium,           |
 |     Daresbury Laboratory and Accelrys, Inc.     |
 |                                                 |
 | Please cite                                     |
 |                                                 |
 |     "First principles methods using CASTEP"     |
 |                                                 |
 |         Zeitschrift fuer Kristallographie       |
 |           220(5-6) pp. 567-570 (2005)           |
 |                                                 |
 | S. J. Clark, M. D. Segall, C. J. Pickard,       |
 | P. J. Hasnip, M. J. Probert, K. Refson,         |
 | M. C. Payne                                     |
 |                                                 |
 |       in all publications arising from          |
 |              your use of CASTEP                 |
 |                                                 |
 +-------------------------------------------------+


 Compiled for linux_x86_64_gfortran4.8 on Thu, 19 Jul 2018 15:42:32 +0100
 from code version 70483bd0ad64+  Sun, 10 Dec 2017 12:18:29 +0000
 Compiler: GNU Fortran 4.8.5; Optimisation: fast
 MATHLIBS: Intel MKL(2018.0.0) (LAPACK version 3.7.0)
 FFT Lib : mkl
 Fundamental constants values: CODATA 2014

 Run started: Thu, 06 Aug 2020 17:42:45 +0100
 +-------------------------------------------------+
 |                                                 |
 |  D D D D    F F F F F  P P P P     T T T T T    |
 |  D       D  F          P       P       T        |
 |  D       D  F F F F    P P P P         T        |
 |  D       D  F          P               T        |
 |  D D D D    F          P               T        |
 |                                                 |
 +-------------------------------------------------+
 |                                                 |
 | Welcome to Castep Linear Response (DFPT)        |
 |                                                 |
 | Copyright (c) 2006 - 2017                       |
 |                                                 |
 | Please cite the following publications in all   |
 | work arising from your use of CASTEP LR.        |
 |                                                 |
 | K. Refson, S. J. Clark and P. R. Tulip          |
 | Variational density functional perturbation     |
 | theory for dielectrics and lattice dynamics     |
 | Phys. Rev. B 73(15), 155114 (2006)              |
 +-------------------------------------------------+


 Atomic calculation performed for H: 1s1

 Converged in 41 iterations to an ae energy of -12.488 eV

   ============================================================                
   | Pseudopotential Report - Date of generation  6-08-2020   |                
   ------------------------------------------------------------                
   | Element: H Ionic charge:  1.00 Level of theory: PBE      |                
   | Atomic Solver: Koelling-Harmon                           |                
   |                                                          |                
   |               Reference Electronic Structure             |                
   |         Orbital         Occupation         Energy        |                
   |            1s              1.000           -0.239        |                
   |                                                          |                
   |                 Pseudopotential Definition               |                
   |        Beta     l      e      Rc     scheme   norm       |                
   |         loc     0   -0.239   0.702     qc      1         |                
   |                                                          |                
   | No charge augmentation                                   |                
   | No partial core correction                               |                
   ------------------------------------------------------------                
   | "0|0.7|2|6|8|10L(qc=10)"                                 |                
   ------------------------------------------------------------                
   |      Author: Chris J. Pickard, Cambridge University      |                
   ============================================================                

 Pseudo atomic calculation performed for H 1s1

 Converged in 24 iterations to a total energy of -12.4843 eV

 Calculation parallelised over 8 processes.
 Data is distributed by k-point(8-way)

 ************************************ Title ************************************
 

 ***************************** General Parameters ******************************
  
 output verbosity                               : normal  (1)
 write checkpoint data to                       : Hibam.check
 type of calculation                            : phonon calculation
 stress calculation                             : on
 density difference calculation                 : off
 electron localisation func (ELF) calculation   : off
 Hirshfeld analysis                             : off
 unlimited duration calculation
 timing information                             : on
 memory usage estimate                          : on
 write extra output files                       : on
 write final potential to formatted file        : off
 write final density to formatted file          : off
 write structure in CELL formatted file         : on
 write BibTeX reference list                    : on
 write OTFG pseudopotential files               : on
 write electrostatic potential file             : on
 write bands file                               : on
 checkpoint writing                             : both castep_bin and check files
  
 output         length unit                     : A
 output           mass unit                     : amu
 output           time unit                     : ps
 output         charge unit                     : e
 output           spin unit                     : hbar/2
 output         energy unit                     : eV
 output          force unit                     : eV/A
 output       velocity unit                     : A/ps
 output       pressure unit                     : GPa
 output     inv_length unit                     : 1/A
 output      frequency unit                     : cm-1
 output force constant unit                     : eV/A**2
 output         volume unit                     : A**3
 output   IR intensity unit                     : (D/A)**2/amu
 output         dipole unit                     : D
 output         efield unit                     : eV/A/e
 output        entropy unit                     : J/mol/K
  
 wavefunctions paging                           : none
 random number generator seed                   : randomised (174245483)
 data distribution                              : optimal for this architecture
 optimization strategy                          : maximize speed(+++)

 *********************** Exchange-Correlation Parameters ***********************
  
 using functional                               : Perdew Burke Ernzerhof
 relativistic treatment                         : Koelling-Harmon
 DFT+D: Semi-empirical dispersion correction    : off

 ************************* Pseudopotential Parameters **************************
  
 pseudopotential representation                 : reciprocal space
 <beta|phi> representation                      : reciprocal space
 spin-orbit coupling                            : off

 **************************** Basis Set Parameters *****************************
  
 plane wave basis set cut-off                   :  1200.0000   eV
 size of standard grid                          :     2.0000
 size of   fine   gmax                          :    35.4943   1/A
 finite basis set correction                    : automatic
 number of sample energies                      :          3
           sample  spacing                      :     5.0000   eV

 **************************** Electronic Parameters ****************************
  
 number of  electrons                           :  16.00    
 net charge of system                           :  0.000    
 treating system as non-spin-polarized
 number of bands                                :          8

 ********************* Electronic Minimization Parameters **********************
  
 Method: Treating system as non-metallic,
         and number of  SD  steps               :          1
         and number of  CG  steps               :          4
  
 total energy / atom convergence tol.           : 0.1000E-10   eV
 eigen-energy convergence tolerance             : 0.2000E-10   eV
 max force / atom convergence tol.              : ignored
 convergence tolerance window                   :          3   cycles
 max. number of SCF cycles                      :        100
 periodic dipole correction                     : NONE

 ************************** Density Mixing Parameters **************************
  
 density-mixing scheme                          : Broyden
 max. length of mixing history                  :         20
 charge density mixing amplitude                : 0.8000    
 cut-off energy for mixing                      :  1200.       eV

 *********************** Population Analysis Parameters ************************
  
 Population analysis with cutoff                :  3.000       A
 Population analysis output                     : summary and pdos components

 ****************************** Phonon Parameters ******************************
  
 phonon calculation method                      : linear response
 phonon convergence tolerance                   : 0.1000E-04   eV/A**2
 max. number of phonon cycles                   :         50
 max. number of phonon CG steps                 :          0
 convergence tolerance window                   :          2   cycles
 DFPT solver method                             : AllBands (Gonze variational method)
 preconditioning scheme                         : TPA     
 fine phonon calculation method                 : interpolation
 non-periodic force constant method             : Weighted cumulant sum
 LO/TO splitting term                           : included
 acoustic phonon sum rule                       : correct D(q) in recip-space
 Born effective charges                         : calculated
 Born charge sum rule                           : explicitly enforced
 Raman intensities                              : calculated
 Raman frequency window start                   :  0.000       eV
 Raman frequency window stop                    :  1.000       eV
 Raman tensor calculated using                  : finite displacement method
 phonon k-points                                : use reduced set
 phonon DOS                                     : not calculated
 backups results every                          :      14400   seconds
 band convergence tolerance                     : 0.1000E-08   eV

 *******************************************************************************
  

                           -------------------------------
                                      Unit Cell
                           -------------------------------
        Real Lattice(A)                      Reciprocal Lattice(1/A)
     2.9884205     0.0000000     0.0000000        2.102510452  -0.000000000   0.000000000
     0.0000000     2.9804238     0.0000000       -0.000000000   2.108151653   0.000000000
     0.0000000     0.0000000     5.9033952        0.000000000   0.000000000   1.064334192

                       Lattice parameters(A)       Cell Angles
                    a =      2.988420          alpha =   90.000000
                    b =      2.980424          beta  =   90.000000
                    c =      5.903395          gamma =   90.000000

                       Current cell volume =            52.580121       A**3
                                   density =             0.306714   AMU/A**3
                                           =             0.509310     g/cm^3

                           -------------------------------
                                     Cell Contents
                           -------------------------------
                         Total number of ions in cell =   16
                      Total number of species in cell =    1
                        Max number of any one species =   16

            xxxxxxxxxxxxxxxxxxxxxxxxxxxxxxxxxxxxxxxxxxxxxxxxxxxxxxxxxxxx
            x  Element    Atom        Fractional coordinates of atoms  x
            x            Number           u          v          w      x
            x----------------------------------------------------------x
            x  H            1         0.432281   0.396685   0.000000   x 
            x  H            2        -0.432281   0.396685   0.500000   x 
            x  H            3         0.432281  -0.396685   0.500000   x 
            x  H            4        -0.432281  -0.396685   0.000000   x 
            x  H            5         0.376980   0.000000   0.250000   x 
            x  H            6        -0.376980   0.000000   0.750000   x 
            x  H            7         0.376980   0.000000   0.750000   x 
            x  H            8        -0.376980   0.000000   0.250000   x 
            x  H            9         0.932281   0.896685   0.500000   x 
            x  H           10        -0.932281   0.896685   0.000000   x 
            x  H           11         0.932281  -0.896685   0.000000   x 
            x  H           12        -0.932281  -0.896685   0.500000   x 
            x  H           13         0.876980   0.500000   0.750000   x 
            x  H           14        -0.876980   0.500000   0.250000   x 
            x  H           15         0.876980   0.500000   0.250000   x 
            x  H           16        -0.876980   0.500000   0.750000   x 
            xxxxxxxxxxxxxxxxxxxxxxxxxxxxxxxxxxxxxxxxxxxxxxxxxxxxxxxxxxxx


                         No user defined ionic velocities

                           -------------------------------
                                   Details of Species
                           -------------------------------

                               Mass of species in AMU
                                    H    1.0079400

                          Electric Quadrupole Moment (Barn)
                                    H    0.0028600 Isotope  2

                          Files used for pseudopotentials:
                                    H 0|0.7|2|6|8|10L(qc=10)

                           -------------------------------
                              k-Points For BZ Sampling
                           -------------------------------
                       MP grid size for SCF calculation is  8  8  8
                            with an offset of   0.000  0.000  0.000
                       Number of kpoints used =            64

                           -------------------------------
                               Symmetry and Constraints
                           -------------------------------

                      Cell is a supercell containing 2 primitive cells
                      Maximum deviation from symmetry = 0.315192E-14     ANG

                      Number of symmetry operations   =          16
                      Number of ionic constraints     =           3
                      Point group of crystal =     8: D2h, mmm, 2/m 2/m 2/m
                      Space group of crystal =    72: Ibam, -I 2 2c

             Set iprint > 1 for details on symmetry rotations/translations

                         Centre of mass is constrained
             Set iprint > 1 for details of linear ionic constraints

                         Number of cell constraints= 3
                         Cell constraints are:  1 2 3 0 0 0

                         External pressure/stress (GPa)
                         40.00000   0.00000   0.00000
                                   40.00000   0.00000
                                             40.00000
  
+---------------- MEMORY AND SCRATCH DISK ESTIMATES PER PROCESS --------------+
|                                                     Memory          Disk    |
| Baseline code, static data and system overhead      383.0 MB         0.0 MB |
| BLAS internal memory storage                          0.0 MB         0.0 MB |
| Model and support data                               44.8 MB         0.0 MB |
| Electronic energy minimisation requirements          30.6 MB         0.0 MB |
| Force calculation requirements                       10.7 MB         0.0 MB |
| Stress calculation requirements                      13.5 MB         0.0 MB |
|                                               ----------------------------- |
| Approx. total storage required per process          458.4 MB         0.0 MB |
|                                                                             |
| Requirements will fluctuate during execution and may exceed these estimates |
+-----------------------------------------------------------------------------+
Calculating finite basis set correction with  3 cut-off energies.
Calculating total energy with cut-off of 1190.000 eV.
------------------------------------------------------------------------ <-- SCF
SCF loop      Energy                           Energy gain       Timer   <-- SCF
                                               per atom          (sec)   <-- SCF
------------------------------------------------------------------------ <-- SCF
Initial   4.20115079E+002                                          4.54  <-- SCF
      1  -1.94344338E+002                    3.84037136E+001       8.56  <-- SCF
      2  -2.49089066E+002                    3.42154550E+000      11.08  <-- SCF
      3  -2.50104607E+002                    6.34712854E-002      13.46  <-- SCF
      4  -2.48281101E+002                   -1.13969116E-001      17.56  <-- SCF
      5  -2.48226982E+002                   -3.38242690E-003      21.44  <-- SCF
      6  -2.48230304E+002                    2.07632059E-004      25.49  <-- SCF
      7  -2.48230710E+002                    2.53956192E-005      29.34  <-- SCF
      8  -2.48230712E+002                    9.98016788E-008      33.22  <-- SCF
      9  -2.48230712E+002                    9.82194504E-009      37.26  <-- SCF
     10  -2.48230712E+002                   -5.12977810E-012      40.29  <-- SCF
     11  -2.48230712E+002                    3.96364480E-012      43.29  <-- SCF
------------------------------------------------------------------------ <-- SCF
 
Final energy =  -248.2307121499     eV
(energy not corrected for finite basis set)
 
Calculating total energy with cut-off of 1195.000 eV.
------------------------------------------------------------------------ <-- SCF
SCF loop      Energy                           Energy gain       Timer   <-- SCF
                                               per atom          (sec)   <-- SCF
------------------------------------------------------------------------ <-- SCF
Initial  -2.48230712E+002                                         45.15  <-- SCF
      1  -2.48231809E+002                    6.85818253E-005      48.35  <-- SCF
      2  -2.48231809E+002                    7.06870129E-011      52.43  <-- SCF
      3  -2.48231810E+002                    3.41165983E-008      56.48  <-- SCF
      4  -2.48231810E+002                    2.31620659E-009      60.47  <-- SCF
      5  -2.48231810E+002                    3.48420087E-011      63.38  <-- SCF
      6  -2.48231810E+002                    1.97880133E-012      66.47  <-- SCF
      7  -2.48231810E+002                   -5.70982368E-013      69.43  <-- SCF
------------------------------------------------------------------------ <-- SCF
 
Final energy =  -248.2318100437     eV
(energy not corrected for finite basis set)
 
Calculating total energy with cut-off of 1200.000 eV.
------------------------------------------------------------------------ <-- SCF
SCF loop      Energy                           Energy gain       Timer   <-- SCF
                                               per atom          (sec)   <-- SCF
------------------------------------------------------------------------ <-- SCF
Initial  -2.48231810E+002                                         71.35  <-- SCF
      1  -2.48232886E+002                    6.72169624E-005      74.59  <-- SCF
      2  -2.48232886E+002                    6.78109536E-011      78.46  <-- SCF
      3  -2.48232886E+002                    3.39159297E-008      82.57  <-- SCF
      4  -2.48232886E+002                    2.29341563E-009      86.84  <-- SCF
      5  -2.48232886E+002                    3.61138795E-011      89.97  <-- SCF
      6  -2.48232886E+002                    8.57984087E-013      92.99  <-- SCF
      7  -2.48232886E+002                    3.41380992E-013      96.10  <-- SCF
------------------------------------------------------------------------ <-- SCF
 
Final energy =  -248.2328860962     eV
(energy not corrected for finite basis set)
 
 For future reference: finite basis dEtot/dlog(Ecut) =      -0.259533eV
 Total energy corrected for finite basis set =    -248.232897 eV

 Efield perturbation    1:  X                                           103.65s
  +---------------- MEMORY AND SCRATCH DISK ESTIMATES PER PROCESS --------------+
  |                                                     Memory          Disk    |
  | Baseline code, static data and system overhead      383.0 MB         0.0 MB |
  | BLAS internal memory storage                          0.0 MB         0.0 MB |
  | Model and support data                               45.0 MB         0.0 MB |
  | DFPT E-field response requirements                   43.1 MB         0.0 MB |
  |                                               ----------------------------- |
  | Approx. total storage required per process          471.1 MB         0.0 MB |
  |                                                                             |
  | Requirements will fluctuate during execution and may exceed these estimates |
  +-----------------------------------------------------------------------------+

 Efield perturbation    2:  Y                                           171.61s

 Efield perturbation    3:  Z                                           233.53s
 Perturbation    1 (of    6): H     1 X at q=( 0.000, 0.000, 0.000):    297.91s
  Parallel strategy changed for perturbation using 128 k-points
  Data is distributed by G-vector(1-way) and k-point(8-way) and band(1-way)
  +---------------- MEMORY AND SCRATCH DISK ESTIMATES PER PROCESS --------------+
  |                                                     Memory          Disk    |
  | Baseline code, static data and system overhead      383.0 MB         0.0 MB |
  | BLAS internal memory storage                          0.0 MB         0.0 MB |
  | Model and support data                               45.0 MB         0.0 MB |
  | DFPT phonon calculation requirements                106.6 MB         0.0 MB |
  |                                               ----------------------------- |
  | Approx. total storage required per process          534.6 MB         0.0 MB |
  |                                                                             |
  | Requirements will fluctuate during execution and may exceed these estimates |
  +-----------------------------------------------------------------------------+
 Perturbation    2 (of    6): H     5 X at q=( 0.000, 0.000, 0.000):    424.01s
 Perturbation    3 (of    6): H     1 Y at q=( 0.000, 0.000, 0.000):    542.34s
 Perturbation    4 (of    6): H     5 Y at q=( 0.000, 0.000, 0.000):    655.92s
  Parallel strategy changed for perturbation using 256 k-points
  Data is distributed by G-vector(1-way) and k-point(8-way) and band(1-way)
  +---------------- MEMORY AND SCRATCH DISK ESTIMATES PER PROCESS --------------+
  |                                                     Memory          Disk    |
  | Baseline code, static data and system overhead      383.0 MB         0.0 MB |
  | BLAS internal memory storage                          0.0 MB         0.0 MB |
  | Model and support data                               45.0 MB         0.0 MB |
  | DFPT phonon calculation requirements                204.0 MB         0.0 MB |
  |                                               ----------------------------- |
  | Approx. total storage required per process          632.0 MB         0.0 MB |
  |                                                                             |
  | Requirements will fluctuate during execution and may exceed these estimates |
  +-----------------------------------------------------------------------------+
 Perturbation    5 (of    6): H     1 Z at q=( 0.000, 0.000, 0.000):    865.32s
 Perturbation    6 (of    6): H     5 Z at q=( 0.000, 0.000, 0.000):   1071.18s

 Phonon calculation: q-point   1 (of    1) ( 0.000, 0.000, 0.000):     1276.53s
 -------------------------------------------------------------------------------
 
 ==============================================================================
 +                           Vibrational Frequencies                          +
 +                           -----------------------                          +
 +                                                                            +
 + Performing frequency calculation at  1 wavevector  (q-pt )                 +
 + ========================================================================== +
 +                                                                            +
 +============================================================================+
 +                       Raman Intensity Progress Report                      +
 +----------------------------------------------------------------------------+
 + RAMAN: Not a continuation; generating Raman intensities from beginning     +
 +----------------------------------------------------------------------------+
 + Mode     1: not Raman active; calculation not required                     +
 + Mode     2: not Raman active; calculation not required                     +
 + Mode     3: not Raman active; calculation not required                     +
 + Mode     4: frequency out of range; calculation not required               +
 + Mode     5: not Raman active; calculation not required                     +
 + Mode     6: not Raman active; calculation not required                     +
 + Mode     7: not Raman active; calculation not required                     +
 + Mode     8: not Raman active; calculation not required                     +
 + Mode     9: not Raman active; calculation not required                     +
 + Mode    10: performing Raman intensity calculation                         +

 Efield perturbation    1:  X                                          1336.08s

 Efield perturbation    2:  Y                                          1403.08s

 Efield perturbation    3:  Z                                          1463.93s

 Efield perturbation    1:  X                                          1573.38s

 Efield perturbation    2:  Y                                          1642.07s

 Efield perturbation    3:  Z                                          1706.49s
 + Mode number:  10 completed;                   time taken:   485.80 seconds +
 + Mode    11: performing Raman intensity calculation                         +

 Efield perturbation    1:  X                                          1858.52s

 Efield perturbation    2:  Y                                          1979.47s

 Efield perturbation    3:  Z                                          2109.47s

 Efield perturbation    1:  X                                          2266.38s

 Efield perturbation    2:  Y                                          2385.03s

 Efield perturbation    3:  Z                                          2519.87s
 + Mode number:  11 completed;                   time taken:   830.88 seconds +
 + Mode    12: not Raman active; calculation not required                     +
 + Mode    13: performing Raman intensity calculation                         +

 Efield perturbation    1:  X                                          2684.30s

 Efield perturbation    2:  Y                                          2854.48s

 Efield perturbation    3:  Z                                          2935.29s

 Efield perturbation    1:  X                                          3097.68s

 Efield perturbation    2:  Y                                          3272.19s

 Efield perturbation    3:  Z                                          3353.97s
 + Mode number:  13 completed;                   time taken:   834.60 seconds +
 + Mode    14: not Raman active; calculation not required                     +
 + Mode    15: not Raman active; calculation not required                     +
 + Mode    16: performing Raman intensity calculation                         +

 Efield perturbation    1:  X                                          3514.02s

 Efield perturbation    2:  Y                                          3684.51s

 Efield perturbation    3:  Z                                          3764.09s

 Efield perturbation    1:  X                                          3921.86s

 Efield perturbation    2:  Y                                          4091.96s

 Efield perturbation    3:  Z                                          4169.63s
 + Mode number:  16 completed;                   time taken:   810.65 seconds +
 + Mode    17: not Raman active; calculation not required                     +
 + Mode    18: not Raman active; calculation not required                     +
 + Mode    19: not Raman active; calculation not required                     +
 + Mode    20: not Raman active; calculation not required                     +
 + Mode    21: not Raman active; calculation not required                     +
 + Mode    22: performing Raman intensity calculation                         +

 Efield perturbation    1:  X                                          4328.18s

 Efield perturbation    2:  Y                                          4498.92s

 Efield perturbation    3:  Z                                          4577.29s

 Efield perturbation    1:  X                                          4738.76s

 Efield perturbation    2:  Y                                          4904.74s

 Efield perturbation    3:  Z                                          4980.33s
 + Mode number:  22 completed;                   time taken:   811.58 seconds +
 + Mode    23: not Raman active; calculation not required                     +
 + Mode    24: not Raman active; calculation not required                     +
 + Mode    25: not Raman active; calculation not required                     +
 + Mode    26: not Raman active; calculation not required                     +
 + Mode    27: not Raman active; calculation not required                     +
 + Mode    28: not Raman active; calculation not required                     +
 + Mode    29: not Raman active; calculation not required                     +
 + Mode    30: not Raman active; calculation not required                     +
 + Mode    31: not Raman active; calculation not required                     +
 + Mode    32: performing Raman intensity calculation                         +

 Efield perturbation    1:  X                                          5142.22s

 Efield perturbation    2:  Y                                          5260.91s

 Efield perturbation    3:  Z                                          5394.92s

 Efield perturbation    1:  X                                          5556.88s

 Efield perturbation    2:  Y                                          5676.00s

 Efield perturbation    3:  Z                                          5808.17s
 + Mode number:  32 completed;                   time taken:   830.67 seconds +
 + Mode    33: not Raman active; calculation not required                     +
 + Mode    34: performing Raman intensity calculation                         +

 Efield perturbation    1:  X                                          5971.94s

 Efield perturbation    2:  Y                                          6148.98s

 Efield perturbation    3:  Z                                          6229.01s

 Efield perturbation    1:  X                                          6386.57s

 Efield perturbation    2:  Y                                          6551.14s

 Efield perturbation    3:  Z                                          6631.99s
 + Mode number:  34 completed;                   time taken:   825.57 seconds +
 + Mode    35: not Raman active; calculation not required                     +
 + Mode    36: not Raman active; calculation not required                     +
 + Mode    37: not Raman active; calculation not required                     +
 + Mode    38: performing Raman intensity calculation                         +

 Efield perturbation    1:  X                                          6797.73s

 Efield perturbation    2:  Y                                          6972.54s

 Efield perturbation    3:  Z                                          7054.63s

 Efield perturbation    1:  X                                          7208.80s

 Efield perturbation    2:  Y                                          7380.24s

 Efield perturbation    3:  Z                                          7466.35s
 + Mode number:  38 completed;                   time taken:   836.58 seconds +
 + Mode    39: not Raman active; calculation not required                     +
 + Mode    40: not Raman active; calculation not required                     +
 + Mode    41: performing Raman intensity calculation                         +

 Efield perturbation    1:  X                                          7596.52s

 Efield perturbation    2:  Y                                          7661.70s

 Efield perturbation    3:  Z                                          7720.84s

 Efield perturbation    1:  X                                          7824.75s

 Efield perturbation    2:  Y                                          7889.80s

 Efield perturbation    3:  Z                                          7954.30s
 + Mode number:  41 completed;                   time taken:   462.88 seconds +
 + Mode    42: not Raman active; calculation not required                     +
 + Mode    43: not Raman active; calculation not required                     +
 + Mode    44: performing Raman intensity calculation                         +

 Efield perturbation    1:  X                                          8059.78s

 Efield perturbation    2:  Y                                          8114.95s

 Efield perturbation    3:  Z                                          8158.46s

 Efield perturbation    1:  X                                          8235.96s

 Efield perturbation    2:  Y                                          8298.35s

 Efield perturbation    3:  Z                                          8356.99s
 + Mode number:  44 completed;                   time taken:   402.20 seconds +
 + Mode    45: not Raman active; calculation not required                     +
 + Mode    46: performing Raman intensity calculation                         +

 Efield perturbation    1:  X                                          8492.40s

 Efield perturbation    2:  Y                                          8656.47s

 Efield perturbation    3:  Z                                          8736.05s

 Efield perturbation    1:  X                                          8895.88s

 Efield perturbation    2:  Y                                          9066.65s

 Efield perturbation    3:  Z                                          9146.47s
 + Mode number:  46 completed;                   time taken:   805.84 seconds +
 + Mode    47: not Raman active; calculation not required                     +
 + Mode    48: not Raman active; calculation not required                     +
 +----------------------------------------------------------------------------+
 +   E N D    O F    R A M A N    I N T E N S I T Y    C A L C U L A T I O N  +
 +         Raman intensity calculation completed in    7937.37 seconds        +
 +============================================================================+
 + -------------------------------------------------------------------------- +
 +  q-pt=    1 (  0.000000  0.000000  0.000000)     1.0000000000              +
 + -------------------------------------------------------------------------- +
 +  Acoustic sum rule correction <   7.946494 cm-1 applied                    +
 +     N      Frequency irrep.    ir intensity active  raman activity  active + 
 +                (cm-1)         ((D/A)**2/amu)              (A**4/amu)       + 
 +                                                                            +
 +     1    -281.687697   a          0.0000000  N            0.0000000  N     + 
 +     2    -278.459548   b          0.0000000  Y            0.0000000  N     + 
 +     3    -175.945365   c          0.0000000  N            0.0000000  N     + 
 +     4    -146.192057   d          0.0000000  N            0.0000000  Y     + 
 +     5      -0.172522   b          0.0000000  N            0.0000000  N     + 
 +     6      -0.140863   e          0.0000000  N            0.0000000  N     + 
 +     7      -0.099605   f          0.0000000  N            0.0000000  N     + 
 +     8     120.968957   g          0.0000000  N            0.0000000  N     + 
 +     9     269.518782   a          0.0000000  N            0.0000000  N     + 
 +    10     279.367615   h          0.0000000  N          160.5740102  Y     + 
 +    11     320.475747   i          0.0000000  N          199.4273047  Y     + 
 +    12     341.760485   e          0.3457827  Y            0.0000000  N     + 
 +    13     413.458759   d          0.0000000  N          278.1852571  Y     + 
 +    14     416.489334   j          0.0000000  N            0.0000000  N     + 
 +    15     557.314650   c          0.0000000  N            0.0000000  N     + 
 +    16     558.194957   k          0.0000000  N          415.3774098  Y     + 
 +    17     579.232350   g          0.0000000  N            0.0000000  N     + 
 +    18     590.186127   l          0.0000000  N            0.0000000  N     + 
 +    19     594.255918   c          0.0000000  N            0.0000000  N     + 
 +    20     595.534649   j          0.0000000  N            0.0000000  N     + 
 +    21     595.629976   m          0.0000000  N            0.0000000  N     + 
 +    22     634.113219   k          0.0000000  N          189.6061421  Y     + 
 +    23     712.091465   n          0.0000000  N            0.0000000  N     + 
 +    24     753.694528   f          0.0226060  Y            0.0000000  N     + 
 +    25     767.750148   l          0.0000000  N            0.0000000  N     + 
 +    26     768.321575   o          0.0000000  N            0.0000000  N     + 
 +    27     775.014822   e          0.7027130  Y            0.0000000  N     + 
 +    28     792.838488   m          0.0000000  N            0.0000000  N     + 
 +    29     800.288139   g          0.0000000  N            0.0000000  N     + 
 +    30     820.602546   p          0.0000000  N            0.0000000  N     + 
 +    31     821.137328   a          0.0000000  N            0.0000000  N     + 
 +    32     821.962293   i          0.0000000  N            6.0120406  Y     + 
 +    33     823.913647   m          0.0000000  N            0.0000000  N     + 
 +    34     852.016528   k          0.0000000  N           11.0725718  Y     + 
 +    35     860.539117   f          2.1539859  Y            0.0000000  N     + 
 +    36     961.942470   e          1.5185615  Y            0.0000000  N     + 
 +    37    1012.385006   l          0.0000000  N            0.0000000  N     + 
 +    38    1022.059034   d          0.0000000  N            9.1813748  Y     + 
 +    39    1082.721069   g          0.0000000  N            0.0000000  N     + 
 +    40    1118.701104   b          0.0071677  Y            0.0000000  N     + 
 +    41    4319.841321   h          0.0000000  N        12632.8810480  Y     + 
 +    42    4364.202381   a          0.0000000  N            0.0000000  N     + 
 +    43    4399.911948   p          0.0000000  N            0.0000000  N     + 
 +    44    4437.171578   h          0.0000000  N          642.8072210  Y     + 
 +    45    4486.188237   n          0.0000000  N            0.0000000  N     + 
 +    46    4499.518583   k          0.0000000  N          317.5624461  Y     + 
 +    47    4519.856477   o          0.0000000  N            0.0000000  N     + 
 +    48    4539.503578   n          0.0000000  N            0.0000000  N     + 
 + .......................................................................... +
 +        Character table from group theory analysis of eigenvectors          +
 +                           Point Group =   8, D2h                           +
 + .......................................................................... +
 +  Rep  Mul |    E   I   2   m   2   m   2   m                               +
 +           | --------------------------------                               +
 + a Ag    4 |    1   1   1   1   1   1   1   1                               +
 + b B1u   3 |    1  -1   1  -1  -1   1  -1   1                               +
 + c B3g   3 |    1   1  -1  -1  -1  -1   1   1                               +
 + d B2g   3 |    1   1  -1  -1   1   1  -1  -1                               +
 + e B2u   4 |    1  -1  -1   1   1  -1  -1   1                               +
 + f B3u   3 |    1  -1  -1   1  -1   1   1  -1                               +
 + g B3u   4 |    1  -1  -1   1  -1   1   1  -1                               +
 + h Ag    3 |    1   1   1   1   1   1   1   1                               +
 + i B3g   2 |    1   1  -1  -1  -1  -1   1   1                               +
 + j B2g   2 |    1   1  -1  -1   1   1  -1  -1                               +
 + k B1g   4 |    1   1   1   1  -1  -1  -1  -1                               +
 + l B2u   3 |    1  -1  -1   1   1  -1  -1   1                               +
 + m Au    3 |    1  -1   1  -1   1  -1   1  -1                               +
 + n B1g   3 |    1   1   1   1  -1  -1  -1  -1                               +
 + o Au    2 |    1  -1   1  -1   1  -1   1  -1                               +
 + p B1u   2 |    1  -1   1  -1  -1   1  -1   1                               +
 + -------------------------------------------------------------------------- +
 +  q-pt=    1 (  0.000000  0.000000  0.000000)     1.0000000000              +
 +  q->0 along (  0.000000  0.000000  1.000000)                               +
 + -------------------------------------------------------------------------- +
 +  Acoustic sum rule correction <   7.946494 cm-1 applied                    +
 +     N      Frequency irrep.    ir intensity active            raman active + 
 +                (cm-1)         ((D/A)**2/amu)                               + 
 +                                                                            +
 +     1    -281.687697   a          0.0000000  N                       N     + 
 +     2    -278.457193   b          0.0000000  Y                       N     + 
 +     3    -175.945365   c          0.0000000  N                       N     + 
 +     4    -146.192057   d          0.0000000  N                       Y     + 
 +     5      -0.172521   b          0.0000000  N                       N     + 
 +     6      -0.140863   e          0.0000000  N                       N     + 
 +     7      -0.099605   f          0.0000000  N                       N     + 
 +     8     120.968957   g          0.0000000  N                       N     + 
 +     9     269.518782   a          0.0000000  N                       N     + 
 +    10     279.367615   h          0.0000000  N                       Y     + 
 +    11     320.475747   i          0.0000000  N                       Y     + 
 +    12     341.760485   e          0.3457827  Y                       N     + 
 +    13     413.458759   d          0.0000000  N                       Y     + 
 +    14     416.489334   j          0.0000000  N                       N     + 
 +    15     557.314650   c          0.0000000  N                       N     + 
 +    16     558.194957   k          0.0000000  N                       Y     + 
 +    17     579.232350   g          0.0000000  N                       N     + 
 +    18     590.186127   l          0.0000000  N                       N     + 
 +    19     594.255918   c          0.0000000  N                       N     + 
 +    20     595.534649   j          0.0000000  N                       N     + 
 +    21     595.629976   m          0.0000000  N                       N     + 
 +    22     634.113219   k          0.0000000  N                       Y     + 
 +    23     712.091465   n          0.0000000  N                       N     + 
 +    24     753.694528   f          0.0226060  Y                       N     + 
 +    25     767.750148   l          0.0000000  N                       N     + 
 +    26     768.321575   o          0.0000000  N                       N     + 
 +    27     775.014822   e          0.7027130  Y                       N     + 
 +    28     792.838488   m          0.0000000  N                       N     + 
 +    29     800.288139   g          0.0000000  N                       N     + 
 +    30     820.602546   p          0.0000000  N                       N     + 
 +    31     821.137328   a          0.0000000  N                       N     + 
 +    32     821.962293   i          0.0000000  N                       Y     + 
 +    33     823.913647   m          0.0000000  N                       N     + 
 +    34     852.016528   k          0.0000000  N                       Y     + 
 +    35     860.539117   f          2.1539859  Y                       N     + 
 +    36     961.942470   e          1.5185615  Y                       N     + 
 +    37    1012.385006   l          0.0000000  N                       N     + 
 +    38    1022.059034   d          0.0000000  N                       Y     + 
 +    39    1082.721069   g          0.0000000  N                       N     + 
 +    40    1118.743927   b          0.0071677  Y                       N     + 
 +    41    4319.841321   h          0.0000000  N                       Y     + 
 +    42    4364.202381   a          0.0000000  N                       N     + 
 +    43    4399.911948   p          0.0000000  N                       N     + 
 +    44    4437.171578   h          0.0000000  N                       Y     + 
 +    45    4486.188237   n          0.0000000  N                       N     + 
 +    46    4499.518583   k          0.0000000  N                       Y     + 
 +    47    4519.856477   o          0.0000000  N                       N     + 
 +    48    4539.503578   n          0.0000000  N                       N     + 
 + .......................................................................... +
 +        Character table from group theory analysis of eigenvectors          +
 +                           Point Group =   8, D2h                           +
 + (Due to LO/TO splitting this character table may not contain some symmetry +
 +  operations of the full crystallographic point group.  Additional          +
 +  representations may be also be present corresponding to split LO modes.   +
 +  A conventional analysis can be generated by specifying an additional null +
 +  (all zero) field direction or one along any unique crystallographic axis  +
 +  in %BLOCK PHONON_GAMMA_DIRECTIONS in <seedname>.cell.)                    +
 + .......................................................................... +
 +  Rep  Mul |    E   I   2   m   2   m   2   m                               +
 +           | --------------------------------                               +
 + a Ag    4 |    1   1   1   1   1   1   1   1                               +
 + b B1u   3 |    1  -1   1  -1  -1   1  -1   1                               +
 + c B3g   3 |    1   1  -1  -1  -1  -1   1   1                               +
 + d B2g   3 |    1   1  -1  -1   1   1  -1  -1                               +
 + e B2u   4 |    1  -1  -1   1   1  -1  -1   1                               +
 + f B3u   3 |    1  -1  -1   1  -1   1   1  -1                               +
 + g B3u   4 |    1  -1  -1   1  -1   1   1  -1                               +
 + h Ag    3 |    1   1   1   1   1   1   1   1                               +
 + i B3g   2 |    1   1  -1  -1  -1  -1   1   1                               +
 + j B2g   2 |    1   1  -1  -1   1   1  -1  -1                               +
 + k B1g   4 |    1   1   1   1  -1  -1  -1  -1                               +
 + l B2u   3 |    1  -1  -1   1   1  -1  -1   1                               +
 + m Au    3 |    1  -1   1  -1   1  -1   1  -1                               +
 + n B1g   3 |    1   1   1   1  -1  -1  -1  -1                               +
 + o Au    2 |    1  -1   1  -1   1  -1   1  -1                               +
 + p B1u   2 |    1  -1   1  -1  -1   1  -1   1                               +
 ==============================================================================
 ===================================================
                   Born Effective Charges
                   ----------------------
   H       1        -0.03592     0.10697     0.00000
                     0.09647     0.03407     0.00000
                     0.00000     0.00000    -0.00442
   H       2        -0.03592    -0.10697     0.00000
                    -0.09647     0.03407     0.00000
                     0.00000     0.00000    -0.00442
   H       3        -0.03592    -0.10697     0.00000
                    -0.09647     0.03407     0.00000
                     0.00000     0.00000    -0.00442
   H       4        -0.03592     0.10697     0.00000
                     0.09647     0.03407     0.00000
                     0.00000     0.00000    -0.00442
   H       5         0.03592     0.00000     0.00000
                     0.00000    -0.03407     0.00075
                     0.00000    -0.01594     0.00442
   H       6         0.03592     0.00000     0.00000
                     0.00000    -0.03407     0.00075
                     0.00000    -0.01594     0.00442
   H       7         0.03592     0.00000     0.00000
                     0.00000    -0.03407    -0.00075
                     0.00000     0.01594     0.00442
   H       8         0.03592     0.00000     0.00000
                     0.00000    -0.03407    -0.00075
                     0.00000     0.01594     0.00442
   H       9        -0.03592     0.10697     0.00000
                     0.09647     0.03407     0.00000
                     0.00000     0.00000    -0.00442
   H      10        -0.03592    -0.10697     0.00000
                    -0.09647     0.03407     0.00000
                     0.00000     0.00000    -0.00442
   H      11        -0.03592    -0.10697     0.00000
                    -0.09647     0.03407     0.00000
                     0.00000     0.00000    -0.00442
   H      12        -0.03592     0.10697     0.00000
                     0.09647     0.03407     0.00000
                     0.00000     0.00000    -0.00442
   H      13         0.03592     0.00000     0.00000
                     0.00000    -0.03407     0.00075
                     0.00000    -0.01594     0.00442
   H      14         0.03592     0.00000     0.00000
                     0.00000    -0.03407     0.00075
                     0.00000    -0.01594     0.00442
   H      15         0.03592     0.00000     0.00000
                     0.00000    -0.03407    -0.00075
                     0.00000     0.01594     0.00442
   H      16         0.03592     0.00000     0.00000
                     0.00000    -0.03407    -0.00075
                     0.00000     0.01594     0.00442
 ===================================================
  
 ==============================================================================
 +                      Raman Susceptibility Tensors ((A/amu)*0.5)            +
 +----------------------------------------------------------------------------+
 + Mode number:   1 Raman tensor       Depolarisation Ratio                   +
 +     0.0000    0.0000    0.0000      0.000000                               +
 +     0.0000    0.0000    0.0000                                             +
 +     0.0000    0.0000    0.0000                                             +
 +                                                                            +
 + Mode number:   2 Raman tensor       Depolarisation Ratio                   +
 +     0.0000    0.0000    0.0000      0.000000                               +
 +     0.0000    0.0000    0.0000                                             +
 +     0.0000    0.0000    0.0000                                             +
 +                                                                            +
 + Mode number:   3 Raman tensor       Depolarisation Ratio                   +
 +     0.0000    0.0000    0.0000      0.000000                               +
 +     0.0000    0.0000    0.0000                                             +
 +     0.0000    0.0000    0.0000                                             +
 +                                                                            +
 + Mode number:   4 is outside of the requested Raman frequency range         +
 +                                                                            +
 + Mode number:   5 Raman tensor       Depolarisation Ratio                   +
 +     0.0000    0.0000    0.0000      0.000000                               +
 +     0.0000    0.0000    0.0000                                             +
 +     0.0000    0.0000    0.0000                                             +
 +                                                                            +
 + Mode number:   6 Raman tensor       Depolarisation Ratio                   +
 +     0.0000    0.0000    0.0000      0.000000                               +
 +     0.0000    0.0000    0.0000                                             +
 +     0.0000    0.0000    0.0000                                             +
 +                                                                            +
 + Mode number:   7 Raman tensor       Depolarisation Ratio                   +
 +     0.0000    0.0000    0.0000      0.000000                               +
 +     0.0000    0.0000    0.0000                                             +
 +     0.0000    0.0000    0.0000                                             +
 +                                                                            +
 + Mode number:   8 Raman tensor       Depolarisation Ratio                   +
 +     0.0000    0.0000    0.0000      0.000000                               +
 +     0.0000    0.0000    0.0000                                             +
 +     0.0000    0.0000    0.0000                                             +
 +                                                                            +
 + Mode number:   9 Raman tensor       Depolarisation Ratio                   +
 +     0.0000    0.0000    0.0000      0.000000                               +
 +     0.0000    0.0000    0.0000                                             +
 +     0.0000    0.0000    0.0000                                             +
 +                                                                            +
 + Mode number:  10 Raman tensor       Depolarisation Ratio                   +
 +    -0.4357    0.0000    0.0000      0.715170                               +
 +     0.0000    0.3140    0.0000                                             +
 +     0.0000    0.0000   -0.0069                                             +
 +                                                                            +
 + Mode number:  11 Raman tensor       Depolarisation Ratio                   +
 +     0.0000    0.0000    0.0000      0.750000                               +
 +     0.0000    0.0000    0.4250                                             +
 +     0.0000    0.4250    0.0000                                             +
 +                                                                            +
 + Mode number:  12 Raman tensor       Depolarisation Ratio                   +
 +     0.0000    0.0000    0.0000      0.000000                               +
 +     0.0000    0.0000    0.0000                                             +
 +     0.0000    0.0000    0.0000                                             +
 +                                                                            +
 + Mode number:  13 Raman tensor       Depolarisation Ratio                   +
 +     0.0000    0.0000    0.5019      0.750000                               +
 +     0.0000    0.0000    0.0000                                             +
 +     0.5019    0.0000    0.0000                                             +
 +                                                                            +
 + Mode number:  14 Raman tensor       Depolarisation Ratio                   +
 +     0.0000    0.0000    0.0000      0.000000                               +
 +     0.0000    0.0000    0.0000                                             +
 +     0.0000    0.0000    0.0000                                             +
 +                                                                            +
 + Mode number:  15 Raman tensor       Depolarisation Ratio                   +
 +     0.0000    0.0000    0.0000      0.000000                               +
 +     0.0000    0.0000    0.0000                                             +
 +     0.0000    0.0000    0.0000                                             +
 +                                                                            +
 + Mode number:  16 Raman tensor       Depolarisation Ratio                   +
 +     0.0000    0.6133    0.0000      0.750000                               +
 +     0.6133    0.0000    0.0000                                             +
 +     0.0000    0.0000    0.0000                                             +
 +                                                                            +
 + Mode number:  17 Raman tensor       Depolarisation Ratio                   +
 +     0.0000    0.0000    0.0000      0.000000                               +
 +     0.0000    0.0000    0.0000                                             +
 +     0.0000    0.0000    0.0000                                             +
 +                                                                            +
 + Mode number:  18 Raman tensor       Depolarisation Ratio                   +
 +     0.0000    0.0000    0.0000      0.000000                               +
 +     0.0000    0.0000    0.0000                                             +
 +     0.0000    0.0000    0.0000                                             +
 +                                                                            +
 + Mode number:  19 Raman tensor       Depolarisation Ratio                   +
 +     0.0000    0.0000    0.0000      0.000000                               +
 +     0.0000    0.0000    0.0000                                             +
 +     0.0000    0.0000    0.0000                                             +
 +                                                                            +
 + Mode number:  20 Raman tensor       Depolarisation Ratio                   +
 +     0.0000    0.0000    0.0000      0.000000                               +
 +     0.0000    0.0000    0.0000                                             +
 +     0.0000    0.0000    0.0000                                             +
 +                                                                            +
 + Mode number:  21 Raman tensor       Depolarisation Ratio                   +
 +     0.0000    0.0000    0.0000      0.000000                               +
 +     0.0000    0.0000    0.0000                                             +
 +     0.0000    0.0000    0.0000                                             +
 +                                                                            +
 + Mode number:  22 Raman tensor       Depolarisation Ratio                   +
 +     0.0000   -0.4144    0.0000      0.750000                               +
 +    -0.4144    0.0000    0.0000                                             +
 +     0.0000    0.0000    0.0000                                             +
 +                                                                            +
 + Mode number:  23 Raman tensor       Depolarisation Ratio                   +
 +     0.0000    0.0000    0.0000      0.000000                               +
 +     0.0000    0.0000    0.0000                                             +
 +     0.0000    0.0000    0.0000                                             +
 +                                                                            +
 + Mode number:  24 Raman tensor       Depolarisation Ratio                   +
 +     0.0000    0.0000    0.0000      0.000000                               +
 +     0.0000    0.0000    0.0000                                             +
 +     0.0000    0.0000    0.0000                                             +
 +                                                                            +
 + Mode number:  25 Raman tensor       Depolarisation Ratio                   +
 +     0.0000    0.0000    0.0000      0.000000                               +
 +     0.0000    0.0000    0.0000                                             +
 +     0.0000    0.0000    0.0000                                             +
 +                                                                            +
 + Mode number:  26 Raman tensor       Depolarisation Ratio                   +
 +     0.0000    0.0000    0.0000      0.000000                               +
 +     0.0000    0.0000    0.0000                                             +
 +     0.0000    0.0000    0.0000                                             +
 +                                                                            +
 + Mode number:  27 Raman tensor       Depolarisation Ratio                   +
 +     0.0000    0.0000    0.0000      0.000000                               +
 +     0.0000    0.0000    0.0000                                             +
 +     0.0000    0.0000    0.0000                                             +
 +                                                                            +
 + Mode number:  28 Raman tensor       Depolarisation Ratio                   +
 +     0.0000    0.0000    0.0000      0.000000                               +
 +     0.0000    0.0000    0.0000                                             +
 +     0.0000    0.0000    0.0000                                             +
 +                                                                            +
 + Mode number:  29 Raman tensor       Depolarisation Ratio                   +
 +     0.0000    0.0000    0.0000      0.000000                               +
 +     0.0000    0.0000    0.0000                                             +
 +     0.0000    0.0000    0.0000                                             +
 +                                                                            +
 + Mode number:  30 Raman tensor       Depolarisation Ratio                   +
 +     0.0000    0.0000    0.0000      0.000000                               +
 +     0.0000    0.0000    0.0000                                             +
 +     0.0000    0.0000    0.0000                                             +
 +                                                                            +
 + Mode number:  31 Raman tensor       Depolarisation Ratio                   +
 +     0.0000    0.0000    0.0000      0.000000                               +
 +     0.0000    0.0000    0.0000                                             +
 +     0.0000    0.0000    0.0000                                             +
 +                                                                            +
 + Mode number:  32 Raman tensor       Depolarisation Ratio                   +
 +     0.0000    0.0000    0.0000      0.750000                               +
 +     0.0000    0.0000    0.0738                                             +
 +     0.0000    0.0738    0.0000                                             +
 +                                                                            +
 + Mode number:  33 Raman tensor       Depolarisation Ratio                   +
 +     0.0000    0.0000    0.0000      0.000000                               +
 +     0.0000    0.0000    0.0000                                             +
 +     0.0000    0.0000    0.0000                                             +
 +                                                                            +
 + Mode number:  34 Raman tensor       Depolarisation Ratio                   +
 +     0.0000    0.1001    0.0000      0.750000                               +
 +     0.1001    0.0000    0.0000                                             +
 +     0.0000    0.0000    0.0000                                             +
 +                                                                            +
 + Mode number:  35 Raman tensor       Depolarisation Ratio                   +
 +     0.0000    0.0000    0.0000      0.000000                               +
 +     0.0000    0.0000    0.0000                                             +
 +     0.0000    0.0000    0.0000                                             +
 +                                                                            +
 + Mode number:  36 Raman tensor       Depolarisation Ratio                   +
 +     0.0000    0.0000    0.0000      0.000000                               +
 +     0.0000    0.0000    0.0000                                             +
 +     0.0000    0.0000    0.0000                                             +
 +                                                                            +
 + Mode number:  37 Raman tensor       Depolarisation Ratio                   +
 +     0.0000    0.0000    0.0000      0.000000                               +
 +     0.0000    0.0000    0.0000                                             +
 +     0.0000    0.0000    0.0000                                             +
 +                                                                            +
 + Mode number:  38 Raman tensor       Depolarisation Ratio                   +
 +     0.0000    0.0000    0.0912      0.750000                               +
 +     0.0000    0.0000    0.0000                                             +
 +     0.0912    0.0000    0.0000                                             +
 +                                                                            +
 + Mode number:  39 Raman tensor       Depolarisation Ratio                   +
 +     0.0000    0.0000    0.0000      0.000000                               +
 +     0.0000    0.0000    0.0000                                             +
 +     0.0000    0.0000    0.0000                                             +
 +                                                                            +
 + Mode number:  40 Raman tensor       Depolarisation Ratio                   +
 +     0.0000    0.0000    0.0000      0.000000                               +
 +     0.0000    0.0000    0.0000                                             +
 +     0.0000    0.0000    0.0000                                             +
 +                                                                            +
 + Mode number:  41 Raman tensor       Depolarisation Ratio                   +
 +    -2.9635    0.0000    0.0000      0.019108                               +
 +     0.0000   -2.2665    0.0000                                             +
 +     0.0000    0.0000   -1.5486                                             +
 +                                                                            +
 + Mode number:  42 Raman tensor       Depolarisation Ratio                   +
 +     0.0000    0.0000    0.0000      0.000000                               +
 +     0.0000    0.0000    0.0000                                             +
 +     0.0000    0.0000    0.0000                                             +
 +                                                                            +
 + Mode number:  43 Raman tensor       Depolarisation Ratio                   +
 +     0.0000    0.0000    0.0000      0.000000                               +
 +     0.0000    0.0000    0.0000                                             +
 +     0.0000    0.0000    0.0000                                             +
 +                                                                            +
 + Mode number:  44 Raman tensor       Depolarisation Ratio                   +
 +     0.9409    0.0000    0.0000      0.215286                               +
 +     0.0000   -0.0151    0.0000                                             +
 +     0.0000    0.0000    0.2719                                             +
 +                                                                            +
 + Mode number:  45 Raman tensor       Depolarisation Ratio                   +
 +     0.0000    0.0000    0.0000      0.000000                               +
 +     0.0000    0.0000    0.0000                                             +
 +     0.0000    0.0000    0.0000                                             +
 +                                                                            +
 + Mode number:  46 Raman tensor       Depolarisation Ratio                   +
 +     0.0000   -0.5363    0.0000      0.750000                               +
 +    -0.5363    0.0000    0.0000                                             +
 +     0.0000    0.0000    0.0000                                             +
 +                                                                            +
 + Mode number:  47 Raman tensor       Depolarisation Ratio                   +
 +     0.0000    0.0000    0.0000      0.000000                               +
 +     0.0000    0.0000    0.0000                                             +
 +     0.0000    0.0000    0.0000                                             +
 +                                                                            +
 + Mode number:  48 Raman tensor       Depolarisation Ratio                   +
 +     0.0000    0.0000    0.0000      0.000000                               +
 +     0.0000    0.0000    0.0000                                             +
 +     0.0000    0.0000    0.0000                                             +
 +                                                                            +
 +----------------------------------------------------------------------------+
  

 ******************** Symmetrised Forces ********************
 *                                                          *
 *               Cartesian components (eV/A)                *
 * -------------------------------------------------------- *
 *                         x            y            z      *
 *                                                          *
 * H               1      0.00000      0.00000      0.00000 *
 * H               2     -0.00000      0.00000      0.00000 *
 * H               3      0.00000     -0.00000      0.00000 *
 * H               4     -0.00000     -0.00000      0.00000 *
 * H               5      0.00000      0.00000      0.00000 *
 * H               6     -0.00000      0.00000     -0.00000 *
 * H               7      0.00000      0.00000      0.00000 *
 * H               8     -0.00000      0.00000      0.00000 *
 * H               9      0.00000      0.00000      0.00000 *
 * H              10     -0.00000      0.00000      0.00000 *
 * H              11      0.00000     -0.00000      0.00000 *
 * H              12     -0.00000     -0.00000      0.00000 *
 * H              13      0.00000      0.00000      0.00000 *
 * H              14     -0.00000      0.00000      0.00000 *
 * H              15      0.00000      0.00000      0.00000 *
 * H              16     -0.00000      0.00000      0.00000 *
 *                                                          *
 ************************************************************

 *********** Symmetrised Stress Tensor ***********
 *                                               *
 *          Cartesian components (GPa)           *
 * --------------------------------------------- *
 *             x             y             z     *
 *                                               *
 *  x    -40.000017      0.000000      0.000000  *
 *  y      0.000000    -40.000022      0.000000  *
 *  z      0.000000      0.000000    -40.000025  *
 *                                               *
 *  Pressure:   40.0000                          *
 *                                               *
 *************************************************

 Pseudo atomic calculation performed for H 1s1

 Converged in 24 iterations to a total energy of -12.4843 eV

Charge spilling parameter for spin component 1 = 0.70%

            Orbital Populations       
     Ion    Atom   Orbital             Charge
  -------------------------------------------
      H     1      S                    0.998
      H     2      S                    1.001
      H     3      S                    1.001
      H     4      S                    0.998
      H     5      S                    1.001
      H     6      S                    1.001
      H     7      S                    1.001
      H     8      S                    1.001
      H     9      S                    0.998
      H    10      S                    1.001
      H    11      S                    1.001
      H    12      S                    0.998
      H    13      S                    1.001
      H    14      S                    1.001
      H    15      S                    1.001
      H    16      S                    1.001
  -------------------------------------------
                           Total:      16.000
  -------------------------------------------

     Atomic Populations (Mulliken)
     -----------------------------
Species          Ion     s      p      d      f     Total  Charge (e)
=====================================================================
  H               1     1.00   0.00   0.00   0.00   1.00     0.00
  H               2     1.00   0.00   0.00   0.00   1.00     0.00
  H               3     1.00   0.00   0.00   0.00   1.00     0.00
  H               4     1.00   0.00   0.00   0.00   1.00     0.00
  H               5     1.00   0.00   0.00   0.00   1.00    -0.00
  H               6     1.00   0.00   0.00   0.00   1.00    -0.00
  H               7     1.00   0.00   0.00   0.00   1.00    -0.00
  H               8     1.00   0.00   0.00   0.00   1.00    -0.00
  H               9     1.00   0.00   0.00   0.00   1.00     0.00
  H              10     1.00   0.00   0.00   0.00   1.00     0.00
  H              11     1.00   0.00   0.00   0.00   1.00     0.00
  H              12     1.00   0.00   0.00   0.00   1.00     0.00
  H              13     1.00   0.00   0.00   0.00   1.00    -0.00
  H              14     1.00   0.00   0.00   0.00   1.00    -0.00
  H              15     1.00   0.00   0.00   0.00   1.00    -0.00
  H              16     1.00   0.00   0.00   0.00   1.00    -0.00
=====================================================================

                 Bond                   Population      Length (A)
======================================================================
              H 6  -- H 7                    1.37        0.73527
              H 5  -- H 8                    1.37        0.73527
              H 14 -- H 15                   1.37        0.73527
              H 13 -- H 16                   1.37        0.73527
              H 2  -- H 3                    1.37        0.73694
              H 1  -- H 4                    1.37        0.73694
              H 10 -- H 11                   1.37        0.73694
              H 9  -- H 12                   1.37        0.73694
              H 8  -- H 15                  -0.19        1.67234
              H 7  -- H 16                  -0.19        1.67234
              H 6  -- H 13                  -0.19        1.67234
              H 5  -- H 14                  -0.19        1.67234
              H 4  -- H 10                  -0.21        1.73124
              H 3  -- H 9                   -0.21        1.73124
              H 2  -- H 12                  -0.21        1.73124
              H 1  -- H 11                  -0.21        1.73124
              H 8  -- H 11                  -0.09        1.76836
              H 8  -- H 9                   -0.09        1.76836
              H 7  -- H 12                  -0.09        1.76836
              H 7  -- H 10                  -0.09        1.76836
              H 6  -- H 11                  -0.09        1.76836
              H 6  -- H 9                   -0.09        1.76836
              H 5  -- H 12                  -0.09        1.76836
              H 5  -- H 10                  -0.09        1.76836
              H 4  -- H 15                  -0.09        1.76836
              H 4  -- H 13                  -0.09        1.76836
              H 3  -- H 16                  -0.09        1.76836
              H 3  -- H 14                  -0.09        1.76836
              H 2  -- H 15                  -0.09        1.76836
              H 2  -- H 13                  -0.09        1.76836
              H 1  -- H 16                  -0.09        1.76836
              H 1  -- H 14                  -0.09        1.76836
              H 4  -- H 11                  -0.23        1.84599
              H 3  -- H 12                  -0.23        1.84599
              H 2  -- H 9                   -0.23        1.84599
              H 1  -- H 10                  -0.23        1.84599
              H 10 -- H 16                  -0.10        1.89822
              H 10 -- H 14                  -0.10        1.89822
              H 9  -- H 15                  -0.10        1.89822
              H 9  -- H 13                  -0.10        1.89822
              H 4  -- H 8                   -0.10        1.89822
              H 4  -- H 6                   -0.10        1.89822
              H 3  -- H 7                   -0.10        1.89822
              H 3  -- H 5                   -0.10        1.89822
              H 2  -- H 8                   -0.10        1.89822
              H 2  -- H 6                   -0.10        1.89822
              H 1  -- H 7                   -0.10        1.89822
              H 1  -- H 5                   -0.10        1.89822
              H 12 -- H 16                  -0.10        1.89822
              H 12 -- H 14                  -0.10        1.89822
              H 11 -- H 15                  -0.10        1.89822
              H 11 -- H 13                  -0.10        1.89822
              H 4  -- H 7                   -0.10        1.97506
              H 4  -- H 5                   -0.10        1.97506
              H 3  -- H 8                   -0.10        1.97506
              H 3  -- H 6                   -0.10        1.97506
              H 2  -- H 7                   -0.10        1.97506
              H 2  -- H 5                   -0.10        1.97506
              H 1  -- H 8                   -0.10        1.97506
              H 1  -- H 6                   -0.10        1.97506
              H 12 -- H 15                  -0.10        1.97506
              H 12 -- H 13                  -0.10        1.97506
              H 11 -- H 16                  -0.10        1.97506
              H 11 -- H 14                  -0.10        1.97506
              H 10 -- H 15                  -0.10        1.97506
              H 10 -- H 13                  -0.10        1.97506
              H 9  -- H 16                  -0.10        1.97506
              H 9  -- H 14                  -0.10        1.97506
              H 4  -- H 16                  -0.11        2.00974
              H 4  -- H 14                  -0.11        2.00974
              H 3  -- H 15                  -0.11        2.00974
              H 3  -- H 13                  -0.11        2.00974
              H 2  -- H 16                  -0.11        2.00974
              H 2  -- H 14                  -0.11        2.00974
              H 1  -- H 15                  -0.11        2.00974
              H 1  -- H 13                  -0.11        2.00974
              H 8  -- H 12                  -0.11        2.00974
              H 8  -- H 10                  -0.11        2.00974
              H 7  -- H 11                  -0.11        2.00974
              H 7  -- H 9                   -0.11        2.00974
              H 6  -- H 12                  -0.11        2.00974
              H 6  -- H 10                  -0.11        2.00974
              H 5  -- H 11                  -0.11        2.00974
              H 5  -- H 9                   -0.11        2.00974
              H 8  -- H 14                  -0.25        2.11031
              H 7  -- H 13                  -0.25        2.11031
              H 6  -- H 16                  -0.25        2.11031
              H 5  -- H 15                  -0.25        2.11031
              H 14 -- H 16                   0.01        2.95170
              H 13 -- H 15                   0.01        2.95170
              H 6  -- H 8                    0.01        2.95170
              H 5  -- H 7                    0.01        2.95170
              H 3  -- H 4                    0.01        2.97932
              H 1  -- H 2                    0.01        2.97932
              H 11 -- H 12                   0.01        2.97932
              H 9  -- H 10                   0.01        2.97932
======================================================================


Writing analysis data to Hibam.castep_bin

Writing model to Hibam.check
 
 A BibTeX formatted list of references used in this run has been written to 
 Hibam.bib
 
Initialisation time =      3.01 s
Calculation time    =   9229.12 s
Finalisation time   =      0.90 s
Total time          =   9233.03 s
Peak Memory Use     = 617240 kB
  
Overall parallel efficiency rating: Excellent (92%)                             
  
Data was distributed by:-
k-point (8-way); efficiency rating: Excellent (94%)                             
