 +-------------------------------------------------+
 |                                                 |
 |      CCC   AA    SSS  TTTTT  EEEEE  PPPP        |
 |     C     A  A  S       T    E      P   P       |
 |     C     AAAA   SS     T    EEE    PPPP        |
 |     C     A  A     S    T    E      P           |
 |      CCC  A  A  SSS     T    EEEEE  P           |
 |                                                 |
 +-------------------------------------------------+
 |                                                 |
 | Welcome to Academic Release CASTEP version 18.1 |          
 | Ab Initio Total Energy Program                  |
 |                                                 |
 | Authors:                                        |
 | M. Segall, M. Probert, C. Pickard, P. Hasnip,   |
 | S. Clark, K. Refson, J. R. Yates, M. Payne      |
 |                                                 |
 | Contributors:                                   |
 | P. Lindan, P. Haynes, J. White, V. Milman,      |
 | N. Govind, M. Gibson, P. Tulip, V. Cocula,      |
 | B. Montanari, D. Quigley, M. Glover,            |
 | L. Bernasconi, A. Perlov, M. Plummer,           |
 | E. McNellis, J. Meyer, J. Gale, D. Jochym       |
 | J. Aarons, B. Walker, R. Gillen, D. Jones       |
 | T. Green, I. J. Bush, C. J. Armstrong,          |
 | E. J. Higgins, E. L. Brown, M. S. McFly,        |
 | J. Wilkins, B-C. Shih, P. J. P. Byrne           |
 |                                                 |
 | Copyright (c) 2000 - 2017                       |
 |                                                 |
 |     Distributed under the terms of an           |
 |     Agreement between the United Kingdom        |
 |     Car-Parrinello (UKCP) Consortium,           |
 |     Daresbury Laboratory and Accelrys, Inc.     |
 |                                                 |
 | Please cite                                     |
 |                                                 |
 |     "First principles methods using CASTEP"     |
 |                                                 |
 |         Zeitschrift fuer Kristallographie       |
 |           220(5-6) pp. 567-570 (2005)           |
 |                                                 |
 | S. J. Clark, M. D. Segall, C. J. Pickard,       |
 | P. J. Hasnip, M. J. Probert, K. Refson,         |
 | M. C. Payne                                     |
 |                                                 |
 |       in all publications arising from          |
 |              your use of CASTEP                 |
 |                                                 |
 +-------------------------------------------------+


 Compiled for linux_x86_64_gfortran4.8 on Thu, 19 Jul 2018 15:42:32 +0100
 from code version 70483bd0ad64+  Sun, 10 Dec 2017 12:18:29 +0000
 Compiler: GNU Fortran 4.8.5; Optimisation: fast
 MATHLIBS: Intel MKL(2018.0.0) (LAPACK version 3.7.0)
 FFT Lib : mkl
 Fundamental constants values: CODATA 2014

 Run started: Sat, 20 Jun 2020 20:19:32 +0100
 Info: number of up-spin electrons is not equal to the
       number of down-spins but spin_polarized=false
     - consider setting spin_polarized=true.

 Pseudo atomic calculation performed for Al 3s2 3p1

 Converged in 15 iterations to a total energy of -52.8779 eV

 Calculation parallelised over 16 processes.
 Data is distributed by k-point(16-way)

 ************************************ Title ************************************
 

 ***************************** General Parameters ******************************
  
 output verbosity                               : normal  (1)
 write checkpoint data to                       : Al.check
 type of calculation                            : single point energy
 stress calculation                             : off
 density difference calculation                 : on
 electron localisation func (ELF) calculation   : off
 Hirshfeld analysis                             : off
 unlimited duration calculation
 timing information                             : on
 memory usage estimate                          : on
 write extra output files                       : on
 write final potential to formatted file        : off
 write final density to formatted file          : on
 write BibTeX reference list                    : on
 write OTFG pseudopotential files               : on
 write electrostatic potential file             : on
 write bands file                               : on
 checkpoint writing                             : both castep_bin and check files
  
 output         length unit                     : A
 output           mass unit                     : amu
 output           time unit                     : ps
 output         charge unit                     : e
 output           spin unit                     : hbar/2
 output         energy unit                     : eV
 output          force unit                     : eV/A
 output       velocity unit                     : A/ps
 output       pressure unit                     : GPa
 output     inv_length unit                     : 1/A
 output      frequency unit                     : cm-1
 output force constant unit                     : eV/A**2
 output         volume unit                     : A**3
 output   IR intensity unit                     : (D/A)**2/amu
 output         dipole unit                     : D
 output         efield unit                     : eV/A/e
 output        entropy unit                     : J/mol/K
  
 wavefunctions paging                           : none
 random number generator seed                   : randomised (201933455)
 data distribution                              : optimal for this architecture
 optimization strategy                          : maximize speed(+++)

 *********************** Exchange-Correlation Parameters ***********************
  
 using functional                               : Local Density Approximation
 relativistic treatment                         : Koelling-Harmon
 DFT+D: Semi-empirical dispersion correction    : off

 ************************* Pseudopotential Parameters **************************
  
 pseudopotential representation                 : reciprocal space
 <beta|phi> representation                      : reciprocal space
 spin-orbit coupling                            : off

 **************************** Basis Set Parameters *****************************
  
 plane wave basis set cut-off                   :   120.0000   eV
 size of standard grid                          :     1.7500
 size of   fine   gmax                          :     9.8213   1/A
 finite basis set correction                    : none

 **************************** Electronic Parameters ****************************
  
 number of  electrons                           :  3.000    
 net charge of system                           :  0.000    
 treating system as non-spin-polarized
 number of bands                                :          6

 ********************* Electronic Minimization Parameters **********************
  
 Method: Treating system as metallic with density mixing treatment of electrons,
         and number of  SD  steps               :          1
         and number of  CG  steps               :          4
  
 total energy / atom convergence tol.           : 0.1000E-04   eV
 eigen-energy convergence tolerance             : 0.1000E-05   eV
 max force / atom convergence tol.              : ignored
 convergence tolerance window                   :          3   cycles
 max. number of SCF cycles                      :         30
 number of fixed-spin iterations                :         10
 smearing scheme                                : Gaussian
 smearing width                                 : 0.2000       eV
 Fermi energy convergence tolerance             : 0.2721E-13   eV
 periodic dipole correction                     : NONE

 ************************** Density Mixing Parameters **************************
  
 density-mixing scheme                          : Broyden
 max. length of mixing history                  :         20
 charge density mixing amplitude                : 0.8000    
 cut-off energy for mixing                      :  120.0       eV

 *********************** Population Analysis Parameters ************************
  
 Population analysis with cutoff                :  3.000       A
 Population analysis output                     : summary and pdos components

 *******************************************************************************
  

                           -------------------------------
                                      Unit Cell
                           -------------------------------
        Real Lattice(A)                      Reciprocal Lattice(1/A)
     0.0000000     2.0247500     2.0247500       -1.551595335   1.551595335   1.551595335
     2.0247500     0.0000000     2.0247500        1.551595335  -1.551595335   1.551595335
     2.0247500     2.0247500     0.0000000        1.551595335   1.551595335  -1.551595335

                       Lattice parameters(A)       Cell Angles
                    a =      2.863429          alpha =   60.000000
                    b =      2.863429          beta  =   60.000000
                    c =      2.863429          gamma =   60.000000

                       Current cell volume =            16.601381       A**3
                                   density =             1.625259   AMU/A**3
                                           =             2.698806     g/cm^3

                           -------------------------------
                                     Cell Contents
                           -------------------------------
                         Total number of ions in cell =    1
                      Total number of species in cell =    1
                        Max number of any one species =    1

            xxxxxxxxxxxxxxxxxxxxxxxxxxxxxxxxxxxxxxxxxxxxxxxxxxxxxxxxxxxx
            x  Element    Atom        Fractional coordinates of atoms  x
            x            Number           u          v          w      x
            x----------------------------------------------------------x
            x  Al           1         0.000000   0.000000   0.000000   x 
            xxxxxxxxxxxxxxxxxxxxxxxxxxxxxxxxxxxxxxxxxxxxxxxxxxxxxxxxxxxx


                         No user defined ionic velocities

                           -------------------------------
                                   Details of Species
                           -------------------------------

                               Mass of species in AMU
                                    Al   26.9815400

                          Electric Quadrupole Moment (Barn)
                                    Al    0.1466000 Isotope 27

                          Files used for pseudopotentials:
                                    Al Al_00.usp

                           -------------------------------
                              k-Points For BZ Sampling
                           -------------------------------
                       MP grid size for SCF calculation is 12 12 12
                            with an offset of   0.000  0.000  0.000
                       Number of kpoints used =           182

                           -------------------------------
                               Symmetry and Constraints
                           -------------------------------

                      Maximum deviation from symmetry = 0.235002E-15     ANG

                      Number of symmetry operations   =          48
                      Number of ionic constraints     =           3
                      Point group of crystal =    32: Oh, m-3m, 4/m -3 2/m
                      Space group of crystal =   225: Fm-3m, -F 4 2 3

             Set iprint > 1 for details on symmetry rotations/translations

                         Centre of mass is constrained
             Set iprint > 1 for details of linear ionic constraints

                         Number of cell constraints= 5
                         Cell constraints are:  1 1 1 0 0 0

                         External pressure/stress (GPa)
                          0.00000   0.00000   0.00000
                                    0.00000   0.00000
                                              0.00000
  
+---------------- MEMORY AND SCRATCH DISK ESTIMATES PER PROCESS --------------+
|                                                     Memory          Disk    |
| Baseline code, static data and system overhead      409.0 MB         0.0 MB |
| BLAS internal memory storage                          0.0 MB         0.0 MB |
| Model and support data                                2.3 MB         0.0 MB |
| Electronic energy minimisation requirements           0.4 MB         0.0 MB |
| Force calculation requirements                        0.1 MB         0.0 MB |
|                                               ----------------------------- |
| Approx. total storage required per process          411.7 MB         0.0 MB |
|                                                                             |
| Requirements will fluctuate during execution and may exceed these estimates |
+-----------------------------------------------------------------------------+
Calculating total energy with cut-off of  120.000 eV.
------------------------------------------------------------------------ <-- SCF
SCF loop      Energy           Fermi           Energy gain       Timer   <-- SCF
                               energy          per atom          (sec)   <-- SCF
------------------------------------------------------------------------ <-- SCF
Initial   7.33062880E+001  0.00000000E+000                         1.37  <-- SCF
      1  -5.24465503E+001  9.77627558E+000   1.25752838E+002       1.45  <-- SCF
      2  -5.70495483E+001  8.00329824E+000   4.60299802E+000       1.53  <-- SCF
      3  -5.70989522E+001  7.95671846E+000   4.94039284E-002       1.60  <-- SCF
      4  -5.70933665E+001  7.95034046E+000  -5.58570770E-003       1.68  <-- SCF
      5  -5.70921549E+001  7.95185576E+000  -1.21160979E-003       1.75  <-- SCF
      6  -5.70921719E+001  7.95185173E+000   1.70522690E-005       1.80  <-- SCF
      7  -5.70921764E+001  7.95185020E+000   4.49870266E-006       1.85  <-- SCF
      8  -5.70921764E+001  7.95184977E+000  -4.57018758E-008       1.90  <-- SCF
------------------------------------------------------------------------ <-- SCF
 
Final energy, E             =  -57.08297047931     eV
Final free energy (E-TS)    =  -57.09217640281     eV
(energies not corrected for finite basis set)
 
NB est. 0K energy (E-0.5TS)      =  -57.08757344106     eV
 

Writing analysis data to Al.castep_bin

Writing model to Al.check

 ******************** Symmetrised Forces ********************
 *                                                          *
 *               Cartesian components (eV/A)                *
 * -------------------------------------------------------- *
 *                         x            y            z      *
 *                                                          *
 * Al              1      0.00000      0.00000      0.00000 *
 *                                                          *
 ************************************************************

 Pseudo atomic calculation performed for Al 3s2 3p1

 Converged in 15 iterations to a total energy of -52.8779 eV

Charge spilling parameter for spin component 1 = 1.42%

            Orbital Populations       
     Ion    Atom   Orbital             Charge
  -------------------------------------------
     Al     1      S                    1.128
     Al     1      Px                   0.658
     Al     1      Py                   0.619
     Al     1      Pz                   0.596
  -------------------------------------------
                           Total:       3.000
  -------------------------------------------

     Atomic Populations (Mulliken)
     -----------------------------
Species          Ion     s      p      d      f     Total  Charge (e)
=====================================================================
  Al              1     1.13   1.87   0.00   0.00   3.00     0.00
=====================================================================

                 Bond                   Population      Length (A)
======================================================================
======================================================================


Writing analysis data to Al.castep_bin

Writing model to Al.check
 
 A BibTeX formatted list of references used in this run has been written to 
 Al.bib
 
Initialisation time =      1.19 s
Calculation time    =      0.99 s
Finalisation time   =      0.07 s
Total time          =      2.25 s
Peak Memory Use     = 429600 kB
  
Overall parallel efficiency rating: Poor (44%)                                  
  
Data was distributed by:-
k-point (16-way); efficiency rating: Poor (46%)                                 
  
Parallel notes:
1) Calculation only took 2.2 s, so efficiency estimates may be inaccurate.      
