 +-------------------------------------------------+
 |                                                 |
 |      CCC   AA    SSS  TTTTT  EEEEE  PPPP        |
 |     C     A  A  S       T    E      P   P       |
 |     C     AAAA   SS     T    EEE    PPPP        |
 |     C     A  A     S    T    E      P           |
 |      CCC  A  A  SSS     T    EEEEE  P           |
 |                                                 |
 +-------------------------------------------------+
 |                                                 |
 | Welcome to Academic Release CASTEP version 18.1 |          
 | Ab Initio Total Energy Program                  |
 |                                                 |
 | Authors:                                        |
 | M. Segall, M. Probert, C. Pickard, P. Hasnip,   |
 | S. Clark, K. Refson, J. R. Yates, M. Payne      |
 |                                                 |
 | Contributors:                                   |
 | P. Lindan, P. Haynes, J. White, V. Milman,      |
 | N. Govind, M. Gibson, P. Tulip, V. Cocula,      |
 | B. Montanari, D. Quigley, M. Glover,            |
 | L. Bernasconi, A. Perlov, M. Plummer,           |
 | E. McNellis, J. Meyer, J. Gale, D. Jochym       |
 | J. Aarons, B. Walker, R. Gillen, D. Jones       |
 | T. Green, I. J. Bush, C. J. Armstrong,          |
 | E. J. Higgins, E. L. Brown, M. S. McFly,        |
 | J. Wilkins, B-C. Shih, P. J. P. Byrne           |
 |                                                 |
 | Copyright (c) 2000 - 2017                       |
 |                                                 |
 |     Distributed under the terms of an           |
 |     Agreement between the United Kingdom        |
 |     Car-Parrinello (UKCP) Consortium,           |
 |     Daresbury Laboratory and Accelrys, Inc.     |
 |                                                 |
 | Please cite                                     |
 |                                                 |
 |     "First principles methods using CASTEP"     |
 |                                                 |
 |         Zeitschrift fuer Kristallographie       |
 |           220(5-6) pp. 567-570 (2005)           |
 |                                                 |
 | S. J. Clark, M. D. Segall, C. J. Pickard,       |
 | P. J. Hasnip, M. J. Probert, K. Refson,         |
 | M. C. Payne                                     |
 |                                                 |
 |       in all publications arising from          |
 |              your use of CASTEP                 |
 |                                                 |
 +-------------------------------------------------+


 Compiled for linux_x86_64_gfortran4.8 on Thu, 19 Jul 2018 15:42:32 +0100
 from code version 70483bd0ad64+  Sun, 10 Dec 2017 12:18:29 +0000
 Compiler: GNU Fortran 4.8.5; Optimisation: fast
 MATHLIBS: Intel MKL(2018.0.0) (LAPACK version 3.7.0)
 FFT Lib : mkl
 Fundamental constants values: CODATA 2014

 Run started: Wed, 26 Aug 2020 13:08:13 +0100

 Atomic calculation performed for H: 1s1

 Converged in 41 iterations to an ae energy of -12.488 eV

   ============================================================                
   | Pseudopotential Report - Date of generation 26-08-2020   |                
   ------------------------------------------------------------                
   | Element: H Ionic charge:  1.00 Level of theory: PBE      |                
   | Atomic Solver: Koelling-Harmon                           |                
   |                                                          |                
   |               Reference Electronic Structure             |                
   |         Orbital         Occupation         Energy        |                
   |            1s              1.000           -0.239        |                
   |                                                          |                
   |                 Pseudopotential Definition               |                
   |        Beta     l      e      Rc     scheme   norm       |                
   |         loc     0   -0.239   0.702     qc      1         |                
   |                                                          |                
   | No charge augmentation                                   |                
   | No partial core correction                               |                
   ------------------------------------------------------------                
   | "0|0.7|2|6|8|10L(qc=10)"                                 |                
   ------------------------------------------------------------                
   |      Author: Chris J. Pickard, Cambridge University      |                
   ============================================================                

 Pseudo atomic calculation performed for H 1s1

 Converged in 24 iterations to a total energy of -12.4843 eV

 Calculation parallelised over 32 processes.
 Data is distributed by k-point(32-way)

 ************************************ Title ************************************
 

 ***************************** General Parameters ******************************
  
 output verbosity                               : normal  (1)
 write checkpoint data to                       : Hibam.check
 type of calculation                            : geometry optimization
 stress calculation                             : on
 density difference calculation                 : off
 electron localisation func (ELF) calculation   : off
 Hirshfeld analysis                             : off
 unlimited duration calculation
 timing information                             : on
 memory usage estimate                          : on
 write extra output files                       : on
 write final potential to formatted file        : off
 write final density to formatted file          : off
 write structure in CELL formatted file         : on
 write BibTeX reference list                    : on
 write OTFG pseudopotential files               : on
 write electrostatic potential file             : on
 write bands file                               : on
 checkpoint writing                             : both castep_bin and check files
  
 output         length unit                     : A
 output           mass unit                     : amu
 output           time unit                     : ps
 output         charge unit                     : e
 output           spin unit                     : hbar/2
 output         energy unit                     : eV
 output          force unit                     : eV/A
 output       velocity unit                     : A/ps
 output       pressure unit                     : GPa
 output     inv_length unit                     : 1/A
 output      frequency unit                     : cm-1
 output force constant unit                     : eV/A**2
 output         volume unit                     : A**3
 output   IR intensity unit                     : (D/A)**2/amu
 output         dipole unit                     : D
 output         efield unit                     : eV/A/e
 output        entropy unit                     : J/mol/K
  
 wavefunctions paging                           : none
 random number generator seed                   : randomised (130814019)
 data distribution                              : optimal for this architecture
 optimization strategy                          : maximize speed(+++)

 *********************** Exchange-Correlation Parameters ***********************
  
 using functional                               : Perdew Burke Ernzerhof
 relativistic treatment                         : Koelling-Harmon
 DFT+D: Semi-empirical dispersion correction    : off

 ************************* Pseudopotential Parameters **************************
  
 pseudopotential representation                 : reciprocal space
 <beta|phi> representation                      : reciprocal space
 spin-orbit coupling                            : off

 **************************** Basis Set Parameters *****************************
  
 plane wave basis set cut-off                   :  1200.0000   eV
 size of standard grid                          :     2.0000
 size of   fine   gmax                          :    35.4943   1/A
 finite basis set correction                    : automatic
 number of sample energies                      :          3
           sample  spacing                      :     5.0000   eV

 **************************** Electronic Parameters ****************************
  
 number of  electrons                           :  16.00    
 net charge of system                           :  0.000    
 treating system as non-spin-polarized
 number of bands                                :          8

 ********************* Electronic Minimization Parameters **********************
  
 Method: Treating system as non-metallic,
         and number of  SD  steps               :          1
         and number of  CG  steps               :          4
  
 total energy / atom convergence tol.           : 0.1000E-10   eV
 eigen-energy convergence tolerance             : 0.2000E-10   eV
 max force / atom convergence tol.              : ignored
 convergence tolerance window                   :          3   cycles
 max. number of SCF cycles                      :        100
 periodic dipole correction                     : NONE

 ************************** Density Mixing Parameters **************************
  
 density-mixing scheme                          : Broyden
 max. length of mixing history                  :         20
 charge density mixing amplitude                : 0.8000    
 cut-off energy for mixing                      :  1200.       eV

 *********************** Population Analysis Parameters ************************
  
 Population analysis with cutoff                :  3.000       A
 Population analysis output                     : summary and pdos components

 ********************** Geometry Optimization Parameters ***********************
  
 optimization method                            : LBFGS
 max. no. of LBFGS updates                      : unbounded
 variable cell method                           : fixed basis quality
 max. number of steps                           :         60
 estimated bulk modulus                         :  500.0       GPa
 estimated <frequency>                          :  1668.       cm-1
 geom line minimiser                            : on
 with line minimiser tolerance                  :     0.4000
 total energy convergence tolerance             : 0.1000E-08   eV/atom
        max ionic |force| tolerance             : 0.1000E-04   eV/A
 max ionic |displacement| tolerance             : 0.1000E-04   A
   max |stress component| tolerance             : 0.1000E-04   GPa
 convergence tolerance window                   :          2   steps
 backup results every                           :      14400   seconds
 write geom trajectory file                     : on

 *******************************************************************************
  

                           -------------------------------
                                      Unit Cell
                           -------------------------------
        Real Lattice(A)                      Reciprocal Lattice(1/A)
     2.9012831     0.0000000     0.0000000        2.165657468  -0.000000000   0.000000000
     0.0000000     1.7595383     0.0000000       -0.000000000   3.570928448   0.000000000
     0.0000000     0.0000000     5.4614879        0.000000000   0.000000000   1.150453021

                       Lattice parameters(A)       Cell Angles
                    a =      2.901283          alpha =   90.000000
                    b =      1.759538          beta  =   90.000000
                    c =      5.461488          gamma =   90.000000

                       Current cell volume =            27.880451       A**3
                                   density =             0.578435   AMU/A**3
                                           =             0.960515     g/cm^3

                           -------------------------------
                                     Cell Contents
                           -------------------------------
                         Total number of ions in cell =   16
                      Total number of species in cell =    1
                        Max number of any one species =   16

            xxxxxxxxxxxxxxxxxxxxxxxxxxxxxxxxxxxxxxxxxxxxxxxxxxxxxxxxxxxx
            x  Element    Atom        Fractional coordinates of atoms  x
            x            Number           u          v          w      x
            x----------------------------------------------------------x
            x  H            1         0.407086   0.361268   0.000000   x 
            x  H            2        -0.407086   0.361268   0.500000   x 
            x  H            3         0.407086  -0.361268   0.500000   x 
            x  H            4        -0.407086  -0.361268   0.000000   x 
            x  H            5         0.349766   0.000000   0.250000   x 
            x  H            6        -0.349766  -0.000000   0.750000   x 
            x  H            7         0.349766   0.000000   0.750000   x 
            x  H            8        -0.349766   0.000000   0.250000   x 
            x  H            9         0.907086   0.861268   0.500000   x 
            x  H           10        -0.907086   0.861268   0.000000   x 
            x  H           11         0.907086  -0.861268   0.000000   x 
            x  H           12        -0.907086  -0.861268   0.500000   x 
            x  H           13         0.849766   0.500000   0.750000   x 
            x  H           14        -0.849766   0.500000   0.250000   x 
            x  H           15         0.849766   0.500000   0.250000   x 
            x  H           16        -0.849766   0.500000   0.750000   x 
            xxxxxxxxxxxxxxxxxxxxxxxxxxxxxxxxxxxxxxxxxxxxxxxxxxxxxxxxxxxx


                         No user defined ionic velocities

                           -------------------------------
                                   Details of Species
                           -------------------------------

                               Mass of species in AMU
                                    H    1.0079400

                          Electric Quadrupole Moment (Barn)
                                    H    0.0028600 Isotope  2

                          Files used for pseudopotentials:
                                    H 0|0.7|2|6|8|10L(qc=10)

                           -------------------------------
                              k-Points For BZ Sampling
                           -------------------------------
                       MP grid size for SCF calculation is  8  8  8
                            with an offset of   0.000  0.000  0.000
                       Number of kpoints used =            64

                           -------------------------------
                               Symmetry and Constraints
                           -------------------------------

                      Cell is a supercell containing 2 primitive cells
                      Maximum deviation from symmetry = 0.322107E-15     ANG

                      Number of symmetry operations   =          16
                      Number of ionic constraints     =           3
                      Point group of crystal =     8: D2h, mmm, 2/m 2/m 2/m
                      Space group of crystal =    72: Ibam, -I 2 2c

             Set iprint > 1 for details on symmetry rotations/translations

                         Centre of mass is constrained
             Set iprint > 1 for details of linear ionic constraints

                         Number of cell constraints= 3
                         Cell constraints are:  1 2 3 0 0 0

                         External pressure/stress (GPa)
                        180.00000   0.00000   0.00000
                                  180.00000   0.00000
                                            180.00000
  
+---------------- MEMORY AND SCRATCH DISK ESTIMATES PER PROCESS --------------+
|                                                     Memory          Disk    |
| Baseline code, static data and system overhead      479.0 MB         0.0 MB |
| BLAS internal memory storage                          0.0 MB         0.0 MB |
| Model and support data                               33.2 MB         0.0 MB |
| Electronic energy minimisation requirements          11.9 MB         0.0 MB |
| Force calculation requirements                        5.3 MB         0.0 MB |
| Stress calculation requirements                       6.7 MB         0.0 MB |
|                                               ----------------------------- |
| Approx. total storage required per process          524.1 MB         0.0 MB |
|                                                                             |
| Requirements will fluctuate during execution and may exceed these estimates |
+-----------------------------------------------------------------------------+
Calculating finite basis set correction with  3 cut-off energies.
Calculating total energy with cut-off of 1190.000 eV.
------------------------------------------------------------------------ <-- SCF
SCF loop      Energy                           Energy gain       Timer   <-- SCF
                                               per atom          (sec)   <-- SCF
------------------------------------------------------------------------ <-- SCF
Initial   3.68656332E+002                                          3.67  <-- SCF
      1  -1.97597234E+002                    3.53908479E+001       4.08  <-- SCF
      2  -2.33791258E+002                    2.26212646E+000       4.38  <-- SCF
      3  -2.33962786E+002                    1.07205090E-002       4.97  <-- SCF
      4  -2.33957536E+002                   -3.28106710E-004       5.57  <-- SCF
      5  -2.33957866E+002                    2.06232895E-005       6.18  <-- SCF
      6  -2.33957893E+002                    1.68499673E-006       6.79  <-- SCF
      7  -2.33957893E+002                    2.43334468E-008       7.39  <-- SCF
      8  -2.33957894E+002                    9.44314204E-010       7.99  <-- SCF
      9  -2.33957894E+002                    1.88363760E-011       8.48  <-- SCF
     10  -2.33957894E+002                    5.31708448E-013       8.96  <-- SCF
     11  -2.33957894E+002                    6.22340570E-013       9.44  <-- SCF
------------------------------------------------------------------------ <-- SCF
 
Final energy =  -233.9578935116     eV
(energy not corrected for finite basis set)
 
Calculating total energy with cut-off of 1195.000 eV.
------------------------------------------------------------------------ <-- SCF
SCF loop      Energy                           Energy gain       Timer   <-- SCF
                                               per atom          (sec)   <-- SCF
------------------------------------------------------------------------ <-- SCF
Initial  -2.33957894E+002                                          9.96  <-- SCF
      1  -2.33959146E+002                    7.83043839E-005      10.30  <-- SCF
      2  -2.33959146E+002                    1.51570140E-010      10.90  <-- SCF
      3  -2.33959147E+002                    2.72979691E-008      11.49  <-- SCF
      4  -2.33959147E+002                    1.16329047E-009      12.09  <-- SCF
      5  -2.33959147E+002                    5.46813802E-012      12.57  <-- SCF
      6  -2.33959147E+002                    9.69763704E-013      13.06  <-- SCF
------------------------------------------------------------------------ <-- SCF
 
Final energy =  -233.9591468396     eV
(energy not corrected for finite basis set)
 
Calculating total energy with cut-off of 1200.000 eV.
------------------------------------------------------------------------ <-- SCF
SCF loop      Energy                           Energy gain       Timer   <-- SCF
                                               per atom          (sec)   <-- SCF
------------------------------------------------------------------------ <-- SCF
Initial  -2.33959147E+002                                         13.58  <-- SCF
      1  -2.33960343E+002                    7.47588430E-005      13.91  <-- SCF
      2  -2.33960343E+002                    1.40806065E-010      14.51  <-- SCF
      3  -2.33960343E+002                    2.55605786E-008      15.11  <-- SCF
      4  -2.33960343E+002                    1.13728208E-009      15.70  <-- SCF
      5  -2.33960343E+002                    5.22343129E-012      16.18  <-- SCF
      6  -2.33960343E+002                    4.89413458E-013      16.66  <-- SCF
------------------------------------------------------------------------ <-- SCF
 
Final energy =  -233.9603434106     eV
(energy not corrected for finite basis set)
 
 For future reference: finite basis dEtot/dlog(Ecut) =      -0.288319eV
 Total energy corrected for finite basis set =    -233.960322 eV
 
+---------------- MEMORY AND SCRATCH DISK ESTIMATES PER PROCESS --------------+
|                                                     Memory          Disk    |
| Model and support data                               42.1 MB         0.0 MB |
| Electronic energy minimisation requirements          11.9 MB         0.0 MB |
| Geometry minimisation requirements                   13.4 MB         0.0 MB |
|                                               ----------------------------- |
| Approx. total storage required per process           67.5 MB         0.0 MB |
|                                                                             |
| Requirements will fluctuate during execution and may exceed these estimates |
+-----------------------------------------------------------------------------+
 

 ******************************** Symmetrised Forces ********************************
 *                                                                                  *
 *                           Cartesian components (eV/A)                            *
 * -------------------------------------------------------------------------------- *
 *                         x                    y                    z              *
 *                                                                                  *
 * H               1      0.00000             -0.00000              0.00000         *
 * H               2     -0.00000             -0.00000              0.00000         *
 * H               3      0.00000              0.00000              0.00000         *
 * H               4     -0.00000              0.00000              0.00000         *
 * H               5      0.00000              0.00000              0.00000         *
 * H               6     -0.00000              0.00000              0.00000         *
 * H               7      0.00000              0.00000             -0.00000         *
 * H               8     -0.00000              0.00000              0.00000         *
 * H               9      0.00000             -0.00000              0.00000         *
 * H              10     -0.00000             -0.00000              0.00000         *
 * H              11      0.00000              0.00000              0.00000         *
 * H              12     -0.00000              0.00000              0.00000         *
 * H              13      0.00000             -0.00000             -0.00000         *
 * H              14     -0.00000             -0.00000              0.00000         *
 * H              15      0.00000              0.00000             -0.00000         *
 * H              16     -0.00000              0.00000             -0.00000         *
 *                                                                                  *
 ************************************************************************************

 *********** Symmetrised Stress Tensor ***********
 *                                               *
 *          Cartesian components (GPa)           *
 * --------------------------------------------- *
 *             x             y             z     *
 *                                               *
 *  x   -189.986504      0.000000      0.000000  *
 *  y      0.000000   -189.986515      0.000000  *
 *  z      0.000000      0.000000   -189.986500  *
 *                                               *
 *  Pressure:  189.9865                          *
 *                                               *
 *************************************************
 LBFGS: finished iteration     0 with enthalpy= -2.02637425E+002 eV
  
 +-----------+-----------------+-----------------+------------+-----+ <-- LBFGS
 | Parameter |      value      |    tolerance    |    units   | OK? | <-- LBFGS
 +-----------+-----------------+-----------------+------------+-----+ <-- LBFGS
 |  dE/ion   |   0.000000E+000 |   1.000000E-009 |         eV | No  | <-- LBFGS
 |  |F|max   |   4.595571E-007 |   1.000000E-005 |       eV/A | Yes | <-- LBFGS
 |  |dR|max  |   0.000000E+000 |   1.000000E-005 |          A | No  | <-- LBFGS
 |   Smax    |   9.986515E+000 |   1.000000E-005 |        GPa | No  | <-- LBFGS
 +-----------+-----------------+-----------------+------------+-----+ <-- LBFGS
  

================================================================================
 Starting LBFGS iteration          1 ...
================================================================================
  
 +------------+-------------+-------------+-----------------+ <-- min LBFGS
 |    Step    |   lambda    |   F.delta'  |    enthalpy     | <-- min LBFGS
 +------------+-------------+-------------+-----------------+ <-- min LBFGS
 |  previous  |    0.000000 |    0.110615 |     -202.637425 | <-- min LBFGS
 +------------+-------------+-------------+-----------------+ <-- min LBFGS
  

--------------------------------------------------------------------------------
 LBFGS: starting iteration         1 with trial guess (lambda=  1.000000)
--------------------------------------------------------------------------------
 
+---------------- MEMORY AND SCRATCH DISK ESTIMATES PER PROCESS --------------+
|                                                     Memory          Disk    |
| Model and support data                               43.6 MB         0.0 MB |
| Electronic energy minimisation requirements          12.9 MB         0.0 MB |
| Geometry minimisation requirements                   14.6 MB         0.0 MB |
|                                               ----------------------------- |
| Approx. total storage required per process           71.1 MB         0.0 MB |
|                                                                             |
| Requirements will fluctuate during execution and may exceed these estimates |
+-----------------------------------------------------------------------------+
 

                           -------------------------------
                                      Unit Cell
                           -------------------------------
        Real Lattice(A)              Reciprocal Lattice(1/A)
     2.9205988     0.0000000     0.0000000        2.151334594  -0.000000000   0.000000000
     0.0000000     1.7712527     0.0000000       -0.000000000   3.547311594   0.000000000
     0.0000000     0.0000000     5.4978487        0.000000000   0.000000000   1.142844344

                       Lattice parameters(A)       Cell Angles
                    a =      2.920599          alpha =   90.000000
                    b =      1.771253          beta  =   90.000000
                    c =      5.497849          gamma =   90.000000

                Current cell volume =            28.441024 A**3

                           -------------------------------
                                     Cell Contents
                           -------------------------------

            xxxxxxxxxxxxxxxxxxxxxxxxxxxxxxxxxxxxxxxxxxxxxxxxxxxxxxxxxxxxxxxxx
            x  Element         Atom        Fractional coordinates of atoms  x
            x                 Number           u          v          w      x
            x---------------------------------------------------------------x
            x  H                 1         0.407086   0.361268   0.000000   x
            x  H                 2        -0.407086   0.361268   0.500000   x
            x  H                 3         0.407086  -0.361268   0.500000   x
            x  H                 4        -0.407086  -0.361268   0.000000   x
            x  H                 5         0.349766   0.000000   0.250000   x
            x  H                 6        -0.349766  -0.000000   0.750000   x
            x  H                 7         0.349766   0.000000   0.750000   x
            x  H                 8        -0.349766  -0.000000   0.250000   x
            x  H                 9         0.907086   0.861268   0.500000   x
            x  H                10        -0.907086   0.861268   0.000000   x
            x  H                11         0.907086  -0.861268   0.000000   x
            x  H                12        -0.907086  -0.861268   0.500000   x
            x  H                13         0.849766   0.500000   0.750000   x
            x  H                14        -0.849766   0.500000   0.250000   x
            x  H                15         0.849766   0.500000   0.250000   x
            x  H                16        -0.849766   0.500000   0.750000   x
            xxxxxxxxxxxxxxxxxxxxxxxxxxxxxxxxxxxxxxxxxxxxxxxxxxxxxxxxxxxxxxxxx


------------------------------------------------------------------------ <-- SCF
SCF loop      Energy                           Energy gain       Timer   <-- SCF
                                               per atom          (sec)   <-- SCF
------------------------------------------------------------------------ <-- SCF
Initial  -2.34597748E+002                                         18.87  <-- SCF
      1  -2.34606035E+002                    5.17984346E-004      19.25  <-- SCF
      2  -2.34606058E+002                    1.40732801E-006      19.98  <-- SCF
      3  -2.34606034E+002                   -1.47364963E-006      20.70  <-- SCF
      4  -2.34606035E+002                    6.86727835E-008      21.43  <-- SCF
      5  -2.34606036E+002                    3.71064825E-009      22.14  <-- SCF
      6  -2.34606036E+002                    3.54673704E-010      22.84  <-- SCF
      7  -2.34606036E+002                    2.91533325E-012      23.41  <-- SCF
      8  -2.34606036E+002                   -2.14496022E-013      23.98  <-- SCF
------------------------------------------------------------------------ <-- SCF
 
Final energy =  -234.6060355378     eV
(energy not corrected for finite basis set)
 

 ******************************** Symmetrised Forces ********************************
 *                                                                                  *
 *                           Cartesian components (eV/A)                            *
 * -------------------------------------------------------------------------------- *
 *                         x                    y                    z              *
 *                                                                                  *
 * H               1      0.09362              0.08692              0.00000         *
 * H               2     -0.09362              0.08692              0.00000         *
 * H               3      0.09362             -0.08692              0.00000         *
 * H               4     -0.09362             -0.08692              0.00000         *
 * H               5      0.04373              0.00000              0.00000         *
 * H               6     -0.04373              0.00000             -0.00000         *
 * H               7      0.04373              0.00000             -0.00000         *
 * H               8     -0.04373              0.00000             -0.00000         *
 * H               9      0.09362              0.08692              0.00000         *
 * H              10     -0.09362              0.08692              0.00000         *
 * H              11      0.09362             -0.08692              0.00000         *
 * H              12     -0.09362             -0.08692              0.00000         *
 * H              13      0.04373              0.00000              0.00000         *
 * H              14     -0.04373              0.00000             -0.00000         *
 * H              15      0.04373              0.00000             -0.00000         *
 * H              16     -0.04373              0.00000              0.00000         *
 *                                                                                  *
 ************************************************************************************

 *********** Symmetrised Stress Tensor ***********
 *                                               *
 *          Cartesian components (GPa)           *
 * --------------------------------------------- *
 *             x             y             z     *
 *                                               *
 *  x   -177.705955     -0.000000      0.000000  *
 *  y     -0.000000   -178.957636      0.000000  *
 *  z      0.000000      0.000000   -181.193139  *
 *                                               *
 *  Pressure:  179.2856                          *
 *                                               *
 *************************************************
  
 +------------+-------------+-------------+-----------------+ <-- min LBFGS
 |    Step    |   lambda    |   F.delta'  |    enthalpy     | <-- min LBFGS
 +------------+-------------+-------------+-----------------+ <-- min LBFGS
 |  previous  |    0.000000 |    0.110615 |     -202.637425 | <-- min LBFGS
 | trial step |    1.000000 |   -0.008019 |     -202.653322 | <-- min LBFGS
 +------------+-------------+-------------+-----------------+ <-- min LBFGS
  
 LBFGS: finished iteration     1 with enthalpy= -2.02653322E+002 eV
  
 +-----------+-----------------+-----------------+------------+-----+ <-- LBFGS
 | Parameter |      value      |    tolerance    |    units   | OK? | <-- LBFGS
 +-----------+-----------------+-----------------+------------+-----+ <-- LBFGS
 |  dE/ion   |   9.935676E-004 |   1.000000E-009 |         eV | No  | <-- LBFGS
 |  |F|max   |   1.277442E-001 |   1.000000E-005 |       eV/A | No  | <-- LBFGS
 |  |dR|max  |   4.486918E-008 |   1.000000E-005 |          A | Yes | <-- LBFGS
 |   Smax    |   2.294045E+000 |   1.000000E-005 |        GPa | No  | <-- LBFGS
 +-----------+-----------------+-----------------+------------+-----+ <-- LBFGS
  

================================================================================
 Starting LBFGS iteration          2 ...
================================================================================
  
 +------------+-------------+-------------+-----------------+ <-- min LBFGS
 |    Step    |   lambda    |   F.delta'  |    enthalpy     | <-- min LBFGS
 +------------+-------------+-------------+-----------------+ <-- min LBFGS
 |  previous  |    0.000000 |    0.030198 |     -202.653322 | <-- min LBFGS
 +------------+-------------+-------------+-----------------+ <-- min LBFGS
  

--------------------------------------------------------------------------------
 LBFGS: starting iteration         2 with trial guess (lambda=  1.000000)
--------------------------------------------------------------------------------
 
+---------------- MEMORY AND SCRATCH DISK ESTIMATES PER PROCESS --------------+
|                                                     Memory          Disk    |
| Model and support data                               43.6 MB         0.0 MB |
| Electronic energy minimisation requirements          13.0 MB         0.0 MB |
| Geometry minimisation requirements                   14.6 MB         0.0 MB |
|                                               ----------------------------- |
| Approx. total storage required per process           71.2 MB         0.0 MB |
|                                                                             |
| Requirements will fluctuate during execution and may exceed these estimates |
+-----------------------------------------------------------------------------+
 

                           -------------------------------
                                      Unit Cell
                           -------------------------------
        Real Lattice(A)              Reciprocal Lattice(1/A)
     2.9237014     0.0000000     0.0000000        2.149051623  -0.000000000   0.000000000
     0.0000000     1.7745217     0.0000000       -0.000000000   3.540776921   0.000000000
     0.0000000     0.0000000     5.5156859        0.000000000   0.000000000   1.139148498

                       Lattice parameters(A)       Cell Angles
                    a =      2.923701          alpha =   90.000000
                    b =      1.774522          beta  =   90.000000
                    c =      5.515686          gamma =   90.000000

                Current cell volume =            28.616324 A**3

                           -------------------------------
                                     Cell Contents
                           -------------------------------

            xxxxxxxxxxxxxxxxxxxxxxxxxxxxxxxxxxxxxxxxxxxxxxxxxxxxxxxxxxxxxxxxx
            x  Element         Atom        Fractional coordinates of atoms  x
            x                 Number           u          v          w      x
            x---------------------------------------------------------------x
            x  H                 1         0.410023   0.365765   0.000000   x
            x  H                 2        -0.410023   0.365765   0.500000   x
            x  H                 3         0.410023  -0.365765   0.500000   x
            x  H                 4        -0.410023  -0.365765   0.000000   x
            x  H                 5         0.351138   0.000000   0.250000   x
            x  H                 6        -0.351138  -0.000000   0.750000   x
            x  H                 7         0.351138   0.000000   0.750000   x
            x  H                 8        -0.351138  -0.000000   0.250000   x
            x  H                 9         0.910023   0.865765   0.500000   x
            x  H                10        -0.910023   0.865765   0.000000   x
            x  H                11         0.910023  -0.865765   0.000000   x
            x  H                12        -0.910023  -0.865765   0.500000   x
            x  H                13         0.851138   0.500000   0.750000   x
            x  H                14        -0.851138   0.500000   0.250000   x
            x  H                15         0.851138   0.500000   0.250000   x
            x  H                16        -0.851138   0.500000   0.750000   x
            xxxxxxxxxxxxxxxxxxxxxxxxxxxxxxxxxxxxxxxxxxxxxxxxxxxxxxxxxxxxxxxxx


------------------------------------------------------------------------ <-- SCF
SCF loop      Energy                           Energy gain       Timer   <-- SCF
                                               per atom          (sec)   <-- SCF
------------------------------------------------------------------------ <-- SCF
Initial  -2.34664107E+002                                         26.42  <-- SCF
      1  -2.34788516E+002                    7.77550942E-003      26.80  <-- SCF
      2  -2.34789159E+002                    4.02271664E-005      27.51  <-- SCF
      3  -2.34781903E+002                   -4.53534454E-004      28.24  <-- SCF
      4  -2.34781674E+002                   -1.42884452E-005      28.97  <-- SCF
      5  -2.34781673E+002                   -8.32399002E-008      29.69  <-- SCF
      6  -2.34781673E+002                    9.89252631E-010      30.44  <-- SCF
      7  -2.34781673E+002                    9.22332894E-011      31.03  <-- SCF
      8  -2.34781673E+002                    6.72490344E-012      31.61  <-- SCF
      9  -2.34781673E+002                   -5.92129863E-013      32.19  <-- SCF
------------------------------------------------------------------------ <-- SCF
 
Final energy =  -234.7816727540     eV
(energy not corrected for finite basis set)
 

 ******************************** Symmetrised Forces ********************************
 *                                                                                  *
 *                           Cartesian components (eV/A)                            *
 * -------------------------------------------------------------------------------- *
 *                         x                    y                    z              *
 *                                                                                  *
 * H               1     -0.45414             -0.42209             -0.00000         *
 * H               2      0.45414             -0.42209             -0.00000         *
 * H               3     -0.45414              0.42209             -0.00000         *
 * H               4      0.45414              0.42209             -0.00000         *
 * H               5      0.02045              0.00000             -0.00000         *
 * H               6     -0.02045              0.00000              0.00000         *
 * H               7      0.02045              0.00000             -0.00000         *
 * H               8     -0.02045              0.00000             -0.00000         *
 * H               9     -0.45414             -0.42209             -0.00000         *
 * H              10      0.45414             -0.42209             -0.00000         *
 * H              11     -0.45414              0.42209             -0.00000         *
 * H              12      0.45414              0.42209             -0.00000         *
 * H              13      0.02045              0.00000              0.00000         *
 * H              14     -0.02045              0.00000              0.00000         *
 * H              15      0.02045              0.00000              0.00000         *
 * H              16     -0.02045              0.00000             -0.00000         *
 *                                                                                  *
 ************************************************************************************

 *********** Symmetrised Stress Tensor ***********
 *                                               *
 *          Cartesian components (GPa)           *
 * --------------------------------------------- *
 *             x             y             z     *
 *                                               *
 *  x   -182.058156      0.000000      0.000000  *
 *  y      0.000000   -181.193052      0.000000  *
 *  z      0.000000      0.000000   -177.456994  *
 *                                               *
 *  Pressure:  180.2361                          *
 *                                               *
 *************************************************
  
 +------------+-------------+-------------+-----------------+ <-- min LBFGS
 |    Step    |   lambda    |   F.delta'  |    enthalpy     | <-- min LBFGS
 +------------+-------------+-------------+-----------------+ <-- min LBFGS
 |  previous  |    0.000000 |    0.030198 |     -202.653322 | <-- min LBFGS
 | trial step |    1.000000 |   -0.132304 |     -202.632049 | <-- min LBFGS
 +------------+-------------+-------------+-----------------+ <-- min LBFGS
  

--------------------------------------------------------------------------------
 LBFGS: improving iteration         2 with line minimization (lambda=  0.185830)
--------------------------------------------------------------------------------

                           -------------------------------
                                      Unit Cell
                           -------------------------------
        Real Lattice(A)              Reciprocal Lattice(1/A)
     2.9211754     0.0000000     0.0000000        2.150909981  -0.000000000   0.000000000
     0.0000000     1.7718602     0.0000000       -0.000000000   3.546095429   0.000000000
     0.0000000     0.0000000     5.5011634        0.000000000   0.000000000   1.142155730

                       Lattice parameters(A)       Cell Angles
                    a =      2.921175          alpha =   90.000000
                    b =      1.771860          beta  =   90.000000
                    c =      5.501163          gamma =   90.000000

                Current cell volume =            28.473551 A**3

                           -------------------------------
                                     Cell Contents
                           -------------------------------

            xxxxxxxxxxxxxxxxxxxxxxxxxxxxxxxxxxxxxxxxxxxxxxxxxxxxxxxxxxxxxxxxx
            x  Element         Atom        Fractional coordinates of atoms  x
            x                 Number           u          v          w      x
            x---------------------------------------------------------------x
            x  H                 1         0.407632   0.362103   0.000000   x
            x  H                 2        -0.407632   0.362103   0.500000   x
            x  H                 3         0.407632  -0.362103   0.500000   x
            x  H                 4        -0.407632  -0.362103   0.000000   x
            x  H                 5         0.350021   0.000000   0.250000   x
            x  H                 6        -0.350021  -0.000000   0.750000   x
            x  H                 7         0.350021   0.000000   0.750000   x
            x  H                 8        -0.350021  -0.000000   0.250000   x
            x  H                 9         0.907632   0.862103   0.500000   x
            x  H                10        -0.907632   0.862103   0.000000   x
            x  H                11         0.907632  -0.862103   0.000000   x
            x  H                12        -0.907632  -0.862103   0.500000   x
            x  H                13         0.850021   0.500000   0.750000   x
            x  H                14        -0.850021   0.500000   0.250000   x
            x  H                15         0.850021   0.500000   0.250000   x
            x  H                16        -0.850021   0.500000   0.750000   x
            xxxxxxxxxxxxxxxxxxxxxxxxxxxxxxxxxxxxxxxxxxxxxxxxxxxxxxxxxxxxxxxxx


------------------------------------------------------------------------ <-- SCF
SCF loop      Energy                           Energy gain       Timer   <-- SCF
                                               per atom          (sec)   <-- SCF
------------------------------------------------------------------------ <-- SCF
Initial  -2.34565770E+002                                         34.59  <-- SCF
      1  -2.34648513E+002                    5.17143956E-003      34.97  <-- SCF
      2  -2.34648967E+002                    2.83159282E-005      35.68  <-- SCF
      3  -2.34644059E+002                   -3.06733718E-004      36.39  <-- SCF
      4  -2.34643907E+002                   -9.50706735E-006      37.11  <-- SCF
      5  -2.34643906E+002                   -4.72068524E-008      37.82  <-- SCF
      6  -2.34643906E+002                    5.27052978E-010      38.56  <-- SCF
      7  -2.34643906E+002                    6.10044812E-011      39.13  <-- SCF
      8  -2.34643906E+002                    3.22348247E-012      39.70  <-- SCF
      9  -2.34643906E+002                    1.17821758E-013      40.28  <-- SCF
------------------------------------------------------------------------ <-- SCF
 
Final energy =  -234.6439059202     eV
(energy not corrected for finite basis set)
 

 ******************************** Symmetrised Forces ********************************
 *                                                                                  *
 *                           Cartesian components (eV/A)                            *
 * -------------------------------------------------------------------------------- *
 *                         x                    y                    z              *
 *                                                                                  *
 * H               1      0.00016             -0.00033             -0.00000         *
 * H               2     -0.00016             -0.00033             -0.00000         *
 * H               3      0.00016              0.00033             -0.00000         *
 * H               4     -0.00016              0.00033             -0.00000         *
 * H               5      0.03945              0.00000             -0.00000         *
 * H               6     -0.03945              0.00000             -0.00000         *
 * H               7      0.03945              0.00000             -0.00000         *
 * H               8     -0.03945              0.00000              0.00000         *
 * H               9      0.00016             -0.00033             -0.00000         *
 * H              10     -0.00016             -0.00033             -0.00000         *
 * H              11      0.00016              0.00033             -0.00000         *
 * H              12     -0.00016              0.00033             -0.00000         *
 * H              13      0.03945              0.00000              0.00000         *
 * H              14     -0.03945              0.00000              0.00000         *
 * H              15      0.03945              0.00000             -0.00000         *
 * H              16     -0.03945              0.00000             -0.00000         *
 *                                                                                  *
 ************************************************************************************

 *********** Symmetrised Stress Tensor ***********
 *                                               *
 *          Cartesian components (GPa)           *
 * --------------------------------------------- *
 *             x             y             z     *
 *                                               *
 *  x   -178.463990      0.000000      0.000000  *
 *  y      0.000000   -179.323619      0.000000  *
 *  z      0.000000      0.000000   -180.496916  *
 *                                               *
 *  Pressure:  179.4282                          *
 *                                               *
 *************************************************
  
 +------------+-------------+-------------+-----------------+ <-- min LBFGS
 |    Step    |   lambda    |   F.delta'  |    enthalpy     | <-- min LBFGS
 +------------+-------------+-------------+-----------------+ <-- min LBFGS
 |  previous  |    0.000000 |    0.030198 |     -202.653322 | <-- min LBFGS
 | trial step |    1.000000 |   -0.132304 |     -202.632049 | <-- min LBFGS
 |  line step |    0.185830 |    0.002342 |     -202.654652 | <-- min LBFGS
 +------------+-------------+-------------+-----------------+ <-- min LBFGS
  
 LBFGS: finished iteration     2 with enthalpy= -2.02654652E+002 eV
  
 +-----------+-----------------+-----------------+------------+-----+ <-- LBFGS
 | Parameter |      value      |    tolerance    |    units   | OK? | <-- LBFGS
 +-----------+-----------------+-----------------+------------+-----+ <-- LBFGS
 |  dE/ion   |   8.312421E-005 |   1.000000E-009 |         eV | No  | <-- LBFGS
 |  |F|max   |   3.945319E-002 |   1.000000E-005 |       eV/A | No  | <-- LBFGS
 |  |dR|max  |   2.176050E-003 |   1.000000E-005 |          A | No  | <-- LBFGS
 |   Smax    |   1.536010E+000 |   1.000000E-005 |        GPa | No  | <-- LBFGS
 +-----------+-----------------+-----------------+------------+-----+ <-- LBFGS
  

================================================================================
 Starting LBFGS iteration          3 ...
================================================================================
  
 +------------+-------------+-------------+-----------------+ <-- min LBFGS
 |    Step    |   lambda    |   F.delta'  |    enthalpy     | <-- min LBFGS
 +------------+-------------+-------------+-----------------+ <-- min LBFGS
 |  previous  |    0.000000 |    0.014174 |     -202.654652 | <-- min LBFGS
 +------------+-------------+-------------+-----------------+ <-- min LBFGS
  

--------------------------------------------------------------------------------
 LBFGS: starting iteration         3 with trial guess (lambda=  1.000000)
--------------------------------------------------------------------------------

                           -------------------------------
                                      Unit Cell
                           -------------------------------
        Real Lattice(A)              Reciprocal Lattice(1/A)
     2.9188711     0.0000000     0.0000000        2.152608007  -0.000000000   0.000000000
     0.0000000     1.7715556     0.0000000       -0.000000000   3.546705113   0.000000000
     0.0000000     0.0000000     5.5048254        0.000000000   0.000000000   1.141395933

                       Lattice parameters(A)       Cell Angles
                    a =      2.918871          alpha =   90.000000
                    b =      1.771556          beta  =   90.000000
                    c =      5.504825          gamma =   90.000000

                Current cell volume =            28.465135 A**3

                           -------------------------------
                                     Cell Contents
                           -------------------------------

            xxxxxxxxxxxxxxxxxxxxxxxxxxxxxxxxxxxxxxxxxxxxxxxxxxxxxxxxxxxxxxxxx
            x  Element         Atom        Fractional coordinates of atoms  x
            x                 Number           u          v          w      x
            x---------------------------------------------------------------x
            x  H                 1         0.407603   0.362032   0.000000   x
            x  H                 2        -0.407603   0.362032   0.500000   x
            x  H                 3         0.407603  -0.362032   0.500000   x
            x  H                 4        -0.407603  -0.362032   0.000000   x
            x  H                 5         0.351445   0.000000   0.250000   x
            x  H                 6        -0.351445  -0.000000   0.750000   x
            x  H                 7         0.351445   0.000000   0.750000   x
            x  H                 8        -0.351445  -0.000000   0.250000   x
            x  H                 9         0.907603   0.862032   0.500000   x
            x  H                10        -0.907603   0.862032   0.000000   x
            x  H                11         0.907603  -0.862032   0.000000   x
            x  H                12        -0.907603  -0.862032   0.500000   x
            x  H                13         0.851445   0.500000   0.750000   x
            x  H                14        -0.851445   0.500000   0.250000   x
            x  H                15         0.851445   0.500000   0.250000   x
            x  H                16        -0.851445   0.500000   0.750000   x
            xxxxxxxxxxxxxxxxxxxxxxxxxxxxxxxxxxxxxxxxxxxxxxxxxxxxxxxxxxxxxxxxx


------------------------------------------------------------------------ <-- SCF
SCF loop      Energy                           Energy gain       Timer   <-- SCF
                                               per atom          (sec)   <-- SCF
------------------------------------------------------------------------ <-- SCF
Initial  -2.34622650E+002                                         42.69  <-- SCF
      1  -2.34635869E+002                    8.26191451E-004      43.10  <-- SCF
      2  -2.34635918E+002                    3.03669028E-006      43.81  <-- SCF
      3  -2.34635367E+002                   -3.44622246E-005      44.53  <-- SCF
      4  -2.34635339E+002                   -1.70045267E-006      45.26  <-- SCF
      5  -2.34635339E+002                    9.78243850E-010      45.98  <-- SCF
      6  -2.34635339E+002                    2.39791447E-010      46.68  <-- SCF
      7  -2.34635339E+002                    3.59205310E-012      47.25  <-- SCF
      8  -2.34635339E+002                   -2.74917436E-013      47.81  <-- SCF
------------------------------------------------------------------------ <-- SCF
 
Final energy =  -234.6353393195     eV
(energy not corrected for finite basis set)
 

 ******************************** Symmetrised Forces ********************************
 *                                                                                  *
 *                           Cartesian components (eV/A)                            *
 * -------------------------------------------------------------------------------- *
 *                         x                    y                    z              *
 *                                                                                  *
 * H               1     -0.00539              0.00026             -0.00000         *
 * H               2      0.00539              0.00026             -0.00000         *
 * H               3     -0.00539             -0.00026             -0.00000         *
 * H               4      0.00539             -0.00026             -0.00000         *
 * H               5      0.00315              0.00000              0.00000         *
 * H               6     -0.00315             -0.00000             -0.00000         *
 * H               7      0.00315             -0.00000             -0.00000         *
 * H               8     -0.00315             -0.00000             -0.00000         *
 * H               9     -0.00539              0.00026             -0.00000         *
 * H              10      0.00539              0.00026             -0.00000         *
 * H              11     -0.00539             -0.00026             -0.00000         *
 * H              12      0.00539             -0.00026             -0.00000         *
 * H              13      0.00315              0.00000              0.00000         *
 * H              14     -0.00315              0.00000              0.00000         *
 * H              15      0.00315             -0.00000              0.00000         *
 * H              16     -0.00315              0.00000             -0.00000         *
 *                                                                                  *
 ************************************************************************************

 *********** Symmetrised Stress Tensor ***********
 *                                               *
 *          Cartesian components (GPa)           *
 * --------------------------------------------- *
 *             x             y             z     *
 *                                               *
 *  x   -179.766137      0.000000      0.000000  *
 *  y      0.000000   -180.288496      0.000000  *
 *  z      0.000000      0.000000   -180.239142  *
 *                                               *
 *  Pressure:  180.0979                          *
 *                                               *
 *************************************************
  
 +------------+-------------+-------------+-----------------+ <-- min LBFGS
 |    Step    |   lambda    |   F.delta'  |    enthalpy     | <-- min LBFGS
 +------------+-------------+-------------+-----------------+ <-- min LBFGS
 |  previous  |    0.000000 |    0.014174 |     -202.654652 | <-- min LBFGS
 | trial step |    1.000000 |    0.001412 |     -202.655555 | <-- min LBFGS
 +------------+-------------+-------------+-----------------+ <-- min LBFGS
  
 LBFGS: finished iteration     3 with enthalpy= -2.02655555E+002 eV
  
 +-----------+-----------------+-----------------+------------+-----+ <-- LBFGS
 | Parameter |      value      |    tolerance    |    units   | OK? | <-- LBFGS
 +-----------+-----------------+-----------------+------------+-----+ <-- LBFGS
 |  dE/ion   |   5.640864E-005 |   1.000000E-009 |         eV | No  | <-- LBFGS
 |  |F|max   |   5.399546E-003 |   1.000000E-005 |       eV/A | No  | <-- LBFGS
 |  |dR|max  |   4.155756E-003 |   1.000000E-005 |          A | No  | <-- LBFGS
 |   Smax    |   2.884960E-001 |   1.000000E-005 |        GPa | No  | <-- LBFGS
 +-----------+-----------------+-----------------+------------+-----+ <-- LBFGS
  

================================================================================
 Starting LBFGS iteration          4 ...
================================================================================
  
 +------------+-------------+-------------+-----------------+ <-- min LBFGS
 |    Step    |   lambda    |   F.delta'  |    enthalpy     | <-- min LBFGS
 +------------+-------------+-------------+-----------------+ <-- min LBFGS
 |  previous  |    0.000000 |    0.002578 |     -202.655555 | <-- min LBFGS
 +------------+-------------+-------------+-----------------+ <-- min LBFGS
  

--------------------------------------------------------------------------------
 LBFGS: starting iteration         4 with trial guess (lambda=  1.000000)
--------------------------------------------------------------------------------

                           -------------------------------
                                      Unit Cell
                           -------------------------------
        Real Lattice(A)              Reciprocal Lattice(1/A)
     2.9182997     0.0000000     0.0000000        2.153029467  -0.000000000   0.000000000
     0.0000000     1.7719629     0.0000000       -0.000000000   3.545889941   0.000000000
     0.0000000     0.0000000     5.5062079        0.000000000   0.000000000   1.141109347

                       Lattice parameters(A)       Cell Angles
                    a =      2.918300          alpha =   90.000000
                    b =      1.771963          beta  =   90.000000
                    c =      5.506208          gamma =   90.000000

                Current cell volume =            28.473255 A**3

                           -------------------------------
                                     Cell Contents
                           -------------------------------

            xxxxxxxxxxxxxxxxxxxxxxxxxxxxxxxxxxxxxxxxxxxxxxxxxxxxxxxxxxxxxxxxx
            x  Element         Atom        Fractional coordinates of atoms  x
            x                 Number           u          v          w      x
            x---------------------------------------------------------------x
            x  H                 1         0.407488   0.362179   0.000000   x
            x  H                 2        -0.407488   0.362179   0.500000   x
            x  H                 3         0.407488  -0.362179   0.500000   x
            x  H                 4        -0.407488  -0.362179   0.000000   x
            x  H                 5         0.351632  -0.000000   0.250000   x
            x  H                 6        -0.351632   0.000000   0.750000   x
            x  H                 7         0.351632   0.000000   0.750000   x
            x  H                 8        -0.351632  -0.000000   0.250000   x
            x  H                 9         0.907488   0.862179   0.500000   x
            x  H                10        -0.907488   0.862179   0.000000   x
            x  H                11         0.907488  -0.862179   0.000000   x
            x  H                12        -0.907488  -0.862179   0.500000   x
            x  H                13         0.851632   0.500000   0.750000   x
            x  H                14        -0.851632   0.500000   0.250000   x
            x  H                15         0.851632   0.500000   0.250000   x
            x  H                16        -0.851632   0.500000   0.750000   x
            xxxxxxxxxxxxxxxxxxxxxxxxxxxxxxxxxxxxxxxxxxxxxxxxxxxxxxxxxxxxxxxxx


------------------------------------------------------------------------ <-- SCF
SCF loop      Energy                           Energy gain       Timer   <-- SCF
                                               per atom          (sec)   <-- SCF
------------------------------------------------------------------------ <-- SCF
Initial  -2.34644072E+002                                         50.23  <-- SCF
      1  -2.34644510E+002                    2.74054047E-005      50.61  <-- SCF
      2  -2.34644512E+002                    1.45892862E-007      51.32  <-- SCF
      3  -2.34644503E+002                   -5.74169492E-007      52.03  <-- SCF
      4  -2.34644503E+002                   -2.16788199E-008      52.77  <-- SCF
      5  -2.34644503E+002                    6.88683284E-011      53.45  <-- SCF
      6  -2.34644503E+002                    1.06371900E-011      54.02  <-- SCF
      7  -2.34644503E+002                   -3.29296710E-013      54.60  <-- SCF
      8  -2.34644503E+002                    7.37141258E-013      55.18  <-- SCF
------------------------------------------------------------------------ <-- SCF
 
Final energy =  -234.6445028319     eV
(energy not corrected for finite basis set)
 

 ******************************** Symmetrised Forces ********************************
 *                                                                                  *
 *                           Cartesian components (eV/A)                            *
 * -------------------------------------------------------------------------------- *
 *                         x                    y                    z              *
 *                                                                                  *
 * H               1     -0.00291              0.00234             -0.00000         *
 * H               2      0.00291              0.00234             -0.00000         *
 * H               3     -0.00291             -0.00234             -0.00000         *
 * H               4      0.00291             -0.00234             -0.00000         *
 * H               5     -0.00078              0.00000              0.00000         *
 * H               6      0.00078              0.00000              0.00000         *
 * H               7     -0.00078              0.00000              0.00000         *
 * H               8      0.00078              0.00000              0.00000         *
 * H               9     -0.00291              0.00234             -0.00000         *
 * H              10      0.00291              0.00234             -0.00000         *
 * H              11     -0.00291             -0.00234             -0.00000         *
 * H              12      0.00291             -0.00234             -0.00000         *
 * H              13     -0.00078              0.00000              0.00000         *
 * H              14      0.00078              0.00000             -0.00000         *
 * H              15     -0.00078              0.00000             -0.00000         *
 * H              16      0.00078              0.00000              0.00000         *
 *                                                                                  *
 ************************************************************************************

 *********** Symmetrised Stress Tensor ***********
 *                                               *
 *          Cartesian components (GPa)           *
 * --------------------------------------------- *
 *             x             y             z     *
 *                                               *
 *  x   -179.893628      0.000000      0.000000  *
 *  y      0.000000   -180.156053      0.000000  *
 *  z      0.000000      0.000000   -180.021452  *
 *                                               *
 *  Pressure:  180.0237                          *
 *                                               *
 *************************************************
  
 +------------+-------------+-------------+-----------------+ <-- min LBFGS
 |    Step    |   lambda    |   F.delta'  |    enthalpy     | <-- min LBFGS
 +------------+-------------+-------------+-----------------+ <-- min LBFGS
 |  previous  |    0.000000 |    0.002578 |     -202.655555 | <-- min LBFGS
 | trial step |    1.000000 |    0.000882 |     -202.655594 | <-- min LBFGS
 +------------+-------------+-------------+-----------------+ <-- min LBFGS
  

--------------------------------------------------------------------------------
 LBFGS: improving iteration         4 with line minimization (lambda=  1.520501)
--------------------------------------------------------------------------------

                           -------------------------------
                                      Unit Cell
                           -------------------------------
        Real Lattice(A)              Reciprocal Lattice(1/A)
     2.9180023     0.0000000     0.0000000        2.153248903  -0.000000000   0.000000000
     0.0000000     1.7721749     0.0000000       -0.000000000   3.545465791   0.000000000
     0.0000000     0.0000000     5.5069275        0.000000000   0.000000000   1.140960235

                       Lattice parameters(A)       Cell Angles
                    a =      2.918002          alpha =   90.000000
                    b =      1.772175          beta  =   90.000000
                    c =      5.506928          gamma =   90.000000

                Current cell volume =            28.477480 A**3

                           -------------------------------
                                     Cell Contents
                           -------------------------------

            xxxxxxxxxxxxxxxxxxxxxxxxxxxxxxxxxxxxxxxxxxxxxxxxxxxxxxxxxxxxxxxxx
            x  Element         Atom        Fractional coordinates of atoms  x
            x                 Number           u          v          w      x
            x---------------------------------------------------------------x
            x  H                 1         0.407428   0.362256   0.000000   x
            x  H                 2        -0.407428   0.362256   0.500000   x
            x  H                 3         0.407428  -0.362256   0.500000   x
            x  H                 4        -0.407428  -0.362256   0.000000   x
            x  H                 5         0.351729  -0.000000   0.250000   x
            x  H                 6        -0.351729   0.000000   0.750000   x
            x  H                 7         0.351729   0.000000   0.750000   x
            x  H                 8        -0.351729  -0.000000   0.250000   x
            x  H                 9         0.907428   0.862256   0.500000   x
            x  H                10        -0.907428   0.862256   0.000000   x
            x  H                11         0.907428  -0.862256   0.000000   x
            x  H                12        -0.907428  -0.862256   0.500000   x
            x  H                13         0.851729   0.500000   0.750000   x
            x  H                14        -0.851729   0.500000   0.250000   x
            x  H                15         0.851729   0.500000   0.250000   x
            x  H                16        -0.851729   0.500000   0.750000   x
            xxxxxxxxxxxxxxxxxxxxxxxxxxxxxxxxxxxxxxxxxxxxxxxxxxxxxxxxxxxxxxxxx


------------------------------------------------------------------------ <-- SCF
SCF loop      Energy                           Energy gain       Timer   <-- SCF
                                               per atom          (sec)   <-- SCF
------------------------------------------------------------------------ <-- SCF
Initial  -2.34649120E+002                                         57.59  <-- SCF
      1  -2.34649249E+002                    8.05677938E-006      57.99  <-- SCF
      2  -2.34649249E+002                    3.13375546E-008      58.72  <-- SCF
      3  -2.34649247E+002                   -1.56799686E-007      59.44  <-- SCF
      4  -2.34649247E+002                   -5.87316693E-009      60.16  <-- SCF
      5  -2.34649247E+002                    1.70660286E-011      60.76  <-- SCF
      6  -2.34649247E+002                    3.18722962E-012      61.35  <-- SCF
      7  -2.34649247E+002                    3.80654912E-013      61.93  <-- SCF
------------------------------------------------------------------------ <-- SCF
 
Final energy =  -234.6492466377     eV
(energy not corrected for finite basis set)
 

 ******************************** Symmetrised Forces ********************************
 *                                                                                  *
 *                           Cartesian components (eV/A)                            *
 * -------------------------------------------------------------------------------- *
 *                         x                    y                    z              *
 *                                                                                  *
 * H               1     -0.00164              0.00343              0.00000         *
 * H               2      0.00164              0.00343              0.00000         *
 * H               3     -0.00164             -0.00343              0.00000         *
 * H               4      0.00164             -0.00343              0.00000         *
 * H               5     -0.00288              0.00000              0.00000         *
 * H               6      0.00288              0.00000             -0.00000         *
 * H               7     -0.00288              0.00000             -0.00000         *
 * H               8      0.00288              0.00000             -0.00000         *
 * H               9     -0.00164              0.00343              0.00000         *
 * H              10      0.00164              0.00343              0.00000         *
 * H              11     -0.00164             -0.00343              0.00000         *
 * H              12      0.00164             -0.00343              0.00000         *
 * H              13     -0.00288              0.00000             -0.00000         *
 * H              14      0.00288              0.00000             -0.00000         *
 * H              15     -0.00288              0.00000              0.00000         *
 * H              16      0.00288              0.00000             -0.00000         *
 *                                                                                  *
 ************************************************************************************

 *********** Symmetrised Stress Tensor ***********
 *                                               *
 *          Cartesian components (GPa)           *
 * --------------------------------------------- *
 *             x             y             z     *
 *                                               *
 *  x   -179.960911      0.000000      0.000000  *
 *  y      0.000000   -180.086944      0.000000  *
 *  z      0.000000      0.000000   -179.908032  *
 *                                               *
 *  Pressure:  179.9853                          *
 *                                               *
 *************************************************
  
 +------------+-------------+-------------+-----------------+ <-- min LBFGS
 |    Step    |   lambda    |   F.delta'  |    enthalpy     | <-- min LBFGS
 +------------+-------------+-------------+-----------------+ <-- min LBFGS
 |  previous  |    0.000000 |    0.002578 |     -202.655555 | <-- min LBFGS
 | trial step |    1.000000 |    0.000882 |     -202.655594 | <-- min LBFGS
 |  line step |    1.520501 | -8.772E-006 |     -202.655601 | <-- min LBFGS
 +------------+-------------+-------------+-----------------+ <-- min LBFGS
  
 LBFGS: finished iteration     4 with enthalpy= -2.02655601E+002 eV
  
 +-----------+-----------------+-----------------+------------+-----+ <-- LBFGS
 | Parameter |      value      |    tolerance    |    units   | OK? | <-- LBFGS
 +-----------+-----------------+-----------------+------------+-----+ <-- LBFGS
 |  dE/ion   |   2.887564E-006 |   1.000000E-009 |         eV | No  | <-- LBFGS
 |  |F|max   |   3.799008E-003 |   1.000000E-005 |       eV/A | No  | <-- LBFGS
 |  |dR|max  |   8.314021E-004 |   1.000000E-005 |          A | No  | <-- LBFGS
 |   Smax    |   9.196780E-002 |   1.000000E-005 |        GPa | No  | <-- LBFGS
 +-----------+-----------------+-----------------+------------+-----+ <-- LBFGS
  

================================================================================
 Starting LBFGS iteration          5 ...
================================================================================
  
 +------------+-------------+-------------+-----------------+ <-- min LBFGS
 |    Step    |   lambda    |   F.delta'  |    enthalpy     | <-- min LBFGS
 +------------+-------------+-------------+-----------------+ <-- min LBFGS
 |  previous  |    0.000000 |    0.001086 |     -202.655601 | <-- min LBFGS
 +------------+-------------+-------------+-----------------+ <-- min LBFGS
  

--------------------------------------------------------------------------------
 LBFGS: starting iteration         5 with trial guess (lambda=  1.000000)
--------------------------------------------------------------------------------

                           -------------------------------
                                      Unit Cell
                           -------------------------------
        Real Lattice(A)              Reciprocal Lattice(1/A)
     2.9177365     0.0000000     0.0000000        2.153445073  -0.000000000   0.000000000
     0.0000000     1.7723522     0.0000000       -0.000000000   3.545111026   0.000000000
     0.0000000     0.0000000     5.5068219        0.000000000   0.000000000   1.140982124

                       Lattice parameters(A)       Cell Angles
                    a =      2.917737          alpha =   90.000000
                    b =      1.772352          beta  =   90.000000
                    c =      5.506822          gamma =   90.000000

                Current cell volume =            28.477189 A**3

                           -------------------------------
                                     Cell Contents
                           -------------------------------

            xxxxxxxxxxxxxxxxxxxxxxxxxxxxxxxxxxxxxxxxxxxxxxxxxxxxxxxxxxxxxxxxx
            x  Element         Atom        Fractional coordinates of atoms  x
            x                 Number           u          v          w      x
            x---------------------------------------------------------------x
            x  H                 1         0.407320   0.362446   0.000000   x
            x  H                 2        -0.407320   0.362446   0.500000   x
            x  H                 3         0.407320  -0.362446   0.500000   x
            x  H                 4        -0.407320  -0.362446   0.000000   x
            x  H                 5         0.351680  -0.000000   0.250000   x
            x  H                 6        -0.351680   0.000000   0.750000   x
            x  H                 7         0.351680   0.000000   0.750000   x
            x  H                 8        -0.351680  -0.000000   0.250000   x
            x  H                 9         0.907320   0.862446   0.500000   x
            x  H                10        -0.907320   0.862446   0.000000   x
            x  H                11         0.907320  -0.862446   0.000000   x
            x  H                12        -0.907320  -0.862446   0.500000   x
            x  H                13         0.851680   0.500000   0.750000   x
            x  H                14        -0.851680   0.500000   0.250000   x
            x  H                15         0.851680   0.500000   0.250000   x
            x  H                16        -0.851680   0.500000   0.750000   x
            xxxxxxxxxxxxxxxxxxxxxxxxxxxxxxxxxxxxxxxxxxxxxxxxxxxxxxxxxxxxxxxxx


------------------------------------------------------------------------ <-- SCF
SCF loop      Energy                           Energy gain       Timer   <-- SCF
                                               per atom          (sec)   <-- SCF
------------------------------------------------------------------------ <-- SCF
Initial  -2.34648823E+002                                         64.36  <-- SCF
[...]
            x---------------------------------------------------------------x
            x  H                 1         0.406933   0.363151   0.000000   x
            x  H                 2        -0.406933   0.363151   0.500000   x
            x  H                 3         0.406933  -0.363151   0.500000   x
            x  H                 4        -0.406933  -0.363151   0.000000   x
            x  H                 5         0.351721  -0.000000   0.250000   x
            x  H                 6        -0.351721   0.000000   0.750000   x
            x  H                 7         0.351721   0.000000   0.750000   x
            x  H                 8        -0.351721  -0.000000   0.250000   x
            x  H                 9         0.906933   0.863151   0.500000   x
            x  H                10        -0.906933   0.863151   0.000000   x
            x  H                11         0.906933  -0.863151   0.000000   x
            x  H                12        -0.906933  -0.863151   0.500000   x
            x  H                13         0.851721   0.500000   0.750000   x
            x  H                14        -0.851721   0.500000   0.250000   x
            x  H                15         0.851721   0.500000   0.250000   x
            x  H                16        -0.851721   0.500000   0.750000   x
            xxxxxxxxxxxxxxxxxxxxxxxxxxxxxxxxxxxxxxxxxxxxxxxxxxxxxxxxxxxxxxxxx


------------------------------------------------------------------------ <-- SCF
SCF loop      Energy                           Energy gain       Timer   <-- SCF
                                               per atom          (sec)   <-- SCF
------------------------------------------------------------------------ <-- SCF
Initial  -2.34647651E+002                                        121.63  <-- SCF
      1  -2.34647651E+002                    6.67656631E-013     121.88  <-- SCF
      2  -2.34647651E+002                    5.43792731E-014     122.46  <-- SCF
      3  -2.34647651E+002                    2.02411739E-013     123.03  <-- SCF
      4  -2.34647651E+002                   -1.11779617E-013     123.60  <-- SCF
------------------------------------------------------------------------ <-- SCF
 
Final energy =  -234.6476507562     eV
(energy not corrected for finite basis set)
 

 ******************************** Symmetrised Forces ********************************
 *                                                                                  *
 *                           Cartesian components (eV/A)                            *
 * -------------------------------------------------------------------------------- *
 *                         x                    y                    z              *
 *                                                                                  *
 * H               1      0.00000              0.00000             -0.00000         *
 * H               2     -0.00000              0.00000             -0.00000         *
 * H               3      0.00000             -0.00000             -0.00000         *
 * H               4     -0.00000             -0.00000             -0.00000         *
 * H               5      0.00000              0.00000              0.00000         *
 * H               6     -0.00000              0.00000             -0.00000         *
 * H               7      0.00000              0.00000             -0.00000         *
 * H               8     -0.00000              0.00000              0.00000         *
 * H               9      0.00000              0.00000             -0.00000         *
 * H              10     -0.00000              0.00000             -0.00000         *
 * H              11      0.00000             -0.00000             -0.00000         *
 * H              12     -0.00000             -0.00000             -0.00000         *
 * H              13      0.00000              0.00000              0.00000         *
 * H              14     -0.00000              0.00000             -0.00000         *
 * H              15      0.00000              0.00000              0.00000         *
 * H              16     -0.00000              0.00000              0.00000         *
 *                                                                                  *
 ************************************************************************************

 *********** Symmetrised Stress Tensor ***********
 *                                               *
 *          Cartesian components (GPa)           *
 * --------------------------------------------- *
 *             x             y             z     *
 *                                               *
 *  x   -179.999996      0.000000      0.000000  *
 *  y      0.000000   -180.000007      0.000000  *
 *  z      0.000000      0.000000   -180.000005  *
 *                                               *
 *  Pressure:  180.0000                          *
 *                                               *
 *************************************************
  
 +------------+-------------+-------------+-----------------+ <-- min LBFGS
 |    Step    |   lambda    |   F.delta'  |    enthalpy     | <-- min LBFGS
 +------------+-------------+-------------+-----------------+ <-- min LBFGS
 |  previous  |    0.000000 |  1.664E-007 |     -202.655637 | <-- min LBFGS
 | trial step |    1.000000 |  5.387E-008 |     -202.655637 | <-- min LBFGS
 +------------+-------------+-------------+-----------------+ <-- min LBFGS
  
 LBFGS: finished iteration    11 with enthalpy= -2.02655637E+002 eV
  
 +-----------+-----------------+-----------------+------------+-----+ <-- LBFGS
 | Parameter |      value      |    tolerance    |    units   | OK? | <-- LBFGS
 +-----------+-----------------+-----------------+------------+-----+ <-- LBFGS
 |  dE/ion   |   4.743081E-013 |   1.000000E-009 |         eV | Yes | <-- LBFGS
 |  |F|max   |   3.250757E-007 |   1.000000E-005 |       eV/A | Yes | <-- LBFGS
 |  |dR|max  |   1.045105E-007 |   1.000000E-005 |          A | Yes | <-- LBFGS
 |   Smax    |   7.379776E-006 |   1.000000E-005 |        GPa | Yes | <-- LBFGS
 +-----------+-----------------+-----------------+------------+-----+ <-- LBFGS
  
 LBFGS: Geometry optimization completed successfully.

================================================================================
 LBFGS: Final Configuration:
================================================================================

                           -------------------------------
                                      Unit Cell
                           -------------------------------
        Real Lattice(A)              Reciprocal Lattice(1/A)
     2.9178662    -0.0000000     0.0000000        2.153349326   0.000000000   0.000000000
    -0.0000000     1.7724397     0.0000000        0.000000000   3.544936062   0.000000000
     0.0000000     0.0000000     5.5060796        0.000000000   0.000000000   1.141135932

                       Lattice parameters(A)       Cell Angles
                    a =      2.917866          alpha =   90.000000
                    b =      1.772440          beta  =   90.000000
                    c =      5.506080          gamma =   90.000000

                Current cell volume =            28.476023 A**3

                           -------------------------------
                                     Cell Contents
                           -------------------------------

            xxxxxxxxxxxxxxxxxxxxxxxxxxxxxxxxxxxxxxxxxxxxxxxxxxxxxxxxxxxxxxxxx
            x  Element         Atom        Fractional coordinates of atoms  x
            x                 Number           u          v          w      x
            x---------------------------------------------------------------x
            x  H                 1         0.406933   0.363151   0.000000   x
            x  H                 2        -0.406933   0.363151   0.500000   x
            x  H                 3         0.406933  -0.363151   0.500000   x
            x  H                 4        -0.406933  -0.363151   0.000000   x
            x  H                 5         0.351721  -0.000000   0.250000   x
            x  H                 6        -0.351721   0.000000   0.750000   x
            x  H                 7         0.351721   0.000000   0.750000   x
            x  H                 8        -0.351721  -0.000000   0.250000   x
            x  H                 9         0.906933   0.863151   0.500000   x
            x  H                10        -0.906933   0.863151   0.000000   x
            x  H                11         0.906933  -0.863151   0.000000   x
            x  H                12        -0.906933  -0.863151   0.500000   x
            x  H                13         0.851721   0.500000   0.750000   x
            x  H                14        -0.851721   0.500000   0.250000   x
            x  H                15         0.851721   0.500000   0.250000   x
            x  H                16        -0.851721   0.500000   0.750000   x
            xxxxxxxxxxxxxxxxxxxxxxxxxxxxxxxxxxxxxxxxxxxxxxxxxxxxxxxxxxxxxxxxx


 LBFGS: Final Enthalpy     = -2.02655637E+002 eV
 LBFGS: Final <frequency>  =     643.46065 cm-1
 LBFGS: Final bulk modulus =     459.03602 GPa

 ******************************** Symmetrised Forces ********************************
 *                                                                                  *
 *                           Cartesian components (eV/A)                            *
 * -------------------------------------------------------------------------------- *
 *                         x                    y                    z              *
 *                                                                                  *
 * H               1      0.00000              0.00000             -0.00000         *
 * H               2     -0.00000              0.00000             -0.00000         *
 * H               3      0.00000             -0.00000             -0.00000         *
 * H               4     -0.00000             -0.00000             -0.00000         *
 * H               5      0.00000              0.00000              0.00000         *
 * H               6     -0.00000              0.00000             -0.00000         *
 * H               7      0.00000              0.00000             -0.00000         *
 * H               8     -0.00000              0.00000              0.00000         *
 * H               9      0.00000              0.00000             -0.00000         *
 * H              10     -0.00000              0.00000             -0.00000         *
 * H              11      0.00000             -0.00000             -0.00000         *
 * H              12     -0.00000             -0.00000             -0.00000         *
 * H              13      0.00000              0.00000              0.00000         *
 * H              14     -0.00000              0.00000             -0.00000         *
 * H              15      0.00000              0.00000              0.00000         *
 * H              16     -0.00000              0.00000              0.00000         *
 *                                                                                  *
 ************************************************************************************

 *********** Symmetrised Stress Tensor ***********
 *                                               *
 *          Cartesian components (GPa)           *
 * --------------------------------------------- *
 *             x             y             z     *
 *                                               *
 *  x   -179.999996      0.000000      0.000000  *
 *  y      0.000000   -180.000007      0.000000  *
 *  z      0.000000      0.000000   -180.000005  *
 *                                               *
 *  Pressure:  180.0000                          *
 *                                               *
 *************************************************

 Pseudo atomic calculation performed for H 1s1

 Converged in 24 iterations to a total energy of -12.4843 eV

Charge spilling parameter for spin component 1 = 0.57%

            Orbital Populations       
     Ion    Atom   Orbital             Charge
  -------------------------------------------
      H     1      S                    1.005
      H     2      S                    1.006
      H     3      S                    1.006
      H     4      S                    1.005
      H     5      S                    0.995
      H     6      S                    0.995
      H     7      S                    0.994
      H     8      S                    0.994
      H     9      S                    1.005
      H    10      S                    1.006
      H    11      S                    1.006
      H    12      S                    1.005
      H    13      S                    0.995
      H    14      S                    0.995
      H    15      S                    0.994
      H    16      S                    0.994
  -------------------------------------------
                           Total:      16.000
  -------------------------------------------

     Atomic Populations (Mulliken)
     -----------------------------
Species          Ion     s      p      d      f     Total  Charge (e)
=====================================================================
  H               1     1.01   0.00   0.00   0.00   1.01    -0.01
  H               2     1.01   0.00   0.00   0.00   1.01    -0.01
  H               3     1.01   0.00   0.00   0.00   1.01    -0.01
  H               4     1.01   0.00   0.00   0.00   1.01    -0.01
  H               5     0.99   0.00   0.00   0.00   0.99     0.01
  H               6     0.99   0.00   0.00   0.00   0.99     0.01
  H               7     0.99   0.00   0.00   0.00   0.99     0.01
  H               8     0.99   0.00   0.00   0.00   0.99     0.01
  H               9     1.01   0.00   0.00   0.00   1.01    -0.01
  H              10     1.01   0.00   0.00   0.00   1.01    -0.01
  H              11     1.01   0.00   0.00   0.00   1.01    -0.01
  H              12     1.01   0.00   0.00   0.00   1.01    -0.01
  H              13     0.99   0.00   0.00   0.00   0.99     0.01
  H              14     0.99   0.00   0.00   0.00   0.99     0.01
  H              15     0.99   0.00   0.00   0.00   0.99     0.01
  H              16     0.99   0.00   0.00   0.00   0.99     0.01
=====================================================================

                 Bond                   Population      Length (A)
======================================================================
              H 2  -- H 3                    1.52        0.72822
              H 1  -- H 4                    1.52        0.72822
              H 10 -- H 11                   1.52        0.72822
              H 9  -- H 12                   1.52        0.72822
              H 14 -- H 15                   0.39        0.86532
              H 13 -- H 16                   0.39        0.86532
              H 6  -- H 7                    0.39        0.86532
              H 5  -- H 8                    0.39        0.86532
              H 8  -- H 15                   0.92        1.06666
              H 7  -- H 16                   0.92        1.06666
              H 6  -- H 13                   0.92        1.06666
              H 5  -- H 14                   0.92        1.06666
              H 4  -- H 11                  -0.29        1.27441
              H 3  -- H 12                  -0.29        1.27441
              H 2  -- H 9                   -0.29        1.27441
              H 1  -- H 10                  -0.29        1.27441
              H 4  -- H 10                  -0.61        1.51307
              H 3  -- H 9                   -0.61        1.51307
              H 2  -- H 12                  -0.61        1.51307
              H 1  -- H 11                  -0.61        1.51307
              H 12 -- H 16                  -0.11        1.52809
              H 11 -- H 15                  -0.11        1.52809
              H 10 -- H 14                  -0.11        1.52809
              H 9  -- H 13                  -0.11        1.52809
              H 12 -- H 14                  -0.11        1.52809
              H 11 -- H 13                  -0.11        1.52809
              H 10 -- H 16                  -0.11        1.52809
              H 9  -- H 15                  -0.11        1.52809
              H 4  -- H 8                   -0.11        1.52809
              H 3  -- H 7                   -0.11        1.52809
              H 2  -- H 6                   -0.11        1.52809
              H 1  -- H 5                   -0.11        1.52809
              H 4  -- H 6                   -0.11        1.52809
              H 3  -- H 5                   -0.11        1.52809
              H 2  -- H 8                   -0.11        1.52809
              H 1  -- H 7                   -0.11        1.52809
              H 8  -- H 11                  -0.10        1.58847
              H 8  -- H 9                   -0.10        1.58847
              H 7  -- H 12                  -0.10        1.58847
              H 7  -- H 10                  -0.10        1.58847
              H 6  -- H 11                  -0.10        1.58847
              H 6  -- H 9                   -0.10        1.58847
              H 5  -- H 12                  -0.10        1.58847
              H 5  -- H 10                  -0.10        1.58847
              H 4  -- H 15                  -0.10        1.58847
              H 4  -- H 13                  -0.10        1.58847
              H 3  -- H 16                  -0.10        1.58847
              H 3  -- H 14                  -0.10        1.58847
              H 2  -- H 15                  -0.10        1.58847
              H 2  -- H 13                  -0.10        1.58847
              H 1  -- H 16                  -0.10        1.58847
              H 1  -- H 14                  -0.10        1.58847
              H 4  -- H 5                   -0.21        1.67482
              H 3  -- H 6                   -0.21        1.67482
              H 12 -- H 13                  -0.21        1.67482
              H 11 -- H 14                  -0.21        1.67482
              H 10 -- H 15                  -0.21        1.67482
              H 9  -- H 16                  -0.21        1.67482
              H 2  -- H 7                   -0.21        1.67482
              H 1  -- H 8                   -0.21        1.67482
              H 12 -- H 15                  -0.21        1.67482
              H 11 -- H 16                  -0.21        1.67482
              H 10 -- H 13                  -0.21        1.67482
              H 9  -- H 14                  -0.21        1.67482
              H 4  -- H 7                   -0.21        1.67482
              H 3  -- H 8                   -0.21        1.67482
              H 2  -- H 5                   -0.21        1.67482
              H 1  -- H 6                   -0.21        1.67482
              H 8  -- H 14                  -0.71        1.70701
              H 7  -- H 13                  -0.71        1.70701
              H 6  -- H 16                  -0.71        1.70701
              H 5  -- H 15                  -0.71        1.70701
======================================================================


Writing analysis data to Hibam.castep_bin

Writing model to Hibam.check
 
 A BibTeX formatted list of references used in this run has been written to 
 Hibam.bib
 
Initialisation time =      2.88 s
Calculation time    =    124.53 s
Finalisation time   =      1.26 s
Total time          =    128.67 s
Peak Memory Use     = 552396 kB
  
Overall parallel efficiency rating: Very good (84%)                             
  
Data was distributed by:-
k-point (32-way); efficiency rating: Very good (85%)                            
  
Parallel notes:
1) Calculation only took 127.4 s, so efficiency estimates may be inaccurate.    
