 +-------------------------------------------------+
 |                                                 |
 |      CCC   AA    SSS  TTTTT  EEEEE  PPPP        |
 |     C     A  A  S       T    E      P   P       |
 |     C     AAAA   SS     T    EEE    PPPP        |
 |     C     A  A     S    T    E      P           |
 |      CCC  A  A  SSS     T    EEEEE  P           |
 |                                                 |
 +-------------------------------------------------+
 |                                                 |
 | Welcome to Academic Release CASTEP version 18.1 |          
 | Ab Initio Total Energy Program                  |
 |                                                 |
 | Authors:                                        |
 | M. Segall, M. Probert, C. Pickard, P. Hasnip,   |
 | S. Clark, K. Refson, J. R. Yates, M. Payne      |
 |                                                 |
 | Contributors:                                   |
 | P. Lindan, P. Haynes, J. White, V. Milman,      |
 | N. Govind, M. Gibson, P. Tulip, V. Cocula,      |
 | B. Montanari, D. Quigley, M. Glover,            |
 | L. Bernasconi, A. Perlov, M. Plummer,           |
 | E. McNellis, J. Meyer, J. Gale, D. Jochym       |
 | J. Aarons, B. Walker, R. Gillen, D. Jones       |
 | T. Green, I. J. Bush, C. J. Armstrong,          |
 | E. J. Higgins, E. L. Brown, M. S. McFly,        |
 | J. Wilkins, B-C. Shih, P. J. P. Byrne           |
 |                                                 |
 | Copyright (c) 2000 - 2017                       |
 |                                                 |
 |     Distributed under the terms of an           |
 |     Agreement between the United Kingdom        |
 |     Car-Parrinello (UKCP) Consortium,           |
 |     Daresbury Laboratory and Accelrys, Inc.     |
 |                                                 |
 | Please cite                                     |
 |                                                 |
 |     "First principles methods using CASTEP"     |
 |                                                 |
 |         Zeitschrift fuer Kristallographie       |
 |           220(5-6) pp. 567-570 (2005)           |
 |                                                 |
 | S. J. Clark, M. D. Segall, C. J. Pickard,       |
 | P. J. Hasnip, M. J. Probert, K. Refson,         |
 | M. C. Payne                                     |
 |                                                 |
 |       in all publications arising from          |
 |              your use of CASTEP                 |
 |                                                 |
 +-------------------------------------------------+


 Compiled for linux_x86_64_gfortran4.8 on Thu, 19 Jul 2018 15:42:32 +0100
 from code version 70483bd0ad64+  Sun, 10 Dec 2017 12:18:29 +0000
 Compiler: GNU Fortran 4.8.5; Optimisation: fast
 MATHLIBS: Intel MKL(2018.0.0) (LAPACK version 3.7.0)
 FFT Lib : mkl
 Fundamental constants values: CODATA 2014

 Run started: Wed, 26 Aug 2020 13:26:22 +0100

 Atomic calculation performed for H: 1s1

 Converged in 41 iterations to an ae energy of -12.488 eV

   ============================================================                
   | Pseudopotential Report - Date of generation 26-08-2020   |                
   ------------------------------------------------------------                
   | Element: H Ionic charge:  1.00 Level of theory: PBE      |                
   | Atomic Solver: Koelling-Harmon                           |                
   |                                                          |                
   |               Reference Electronic Structure             |                
   |         Orbital         Occupation         Energy        |                
   |            1s              1.000           -0.239        |                
   |                                                          |                
   |                 Pseudopotential Definition               |                
   |        Beta     l      e      Rc     scheme   norm       |                
   |         loc     0   -0.239   0.702     qc      1         |                
   |                                                          |                
   | No charge augmentation                                   |                
   | No partial core correction                               |                
   ------------------------------------------------------------                
   | "0|0.7|2|6|8|10L(qc=10)"                                 |                
   ------------------------------------------------------------                
   |      Author: Chris J. Pickard, Cambridge University      |                
   ============================================================                

 Pseudo atomic calculation performed for H 1s1

 Converged in 24 iterations to a total energy of -12.4843 eV

 Calculation parallelised over 32 processes.
 Data is distributed by k-point(32-way)

 ************************************ Title ************************************
 

 ***************************** General Parameters ******************************
  
 output verbosity                               : normal  (1)
 write checkpoint data to                       : Hibam.check
 type of calculation                            : geometry optimization
 stress calculation                             : on
 density difference calculation                 : off
 electron localisation func (ELF) calculation   : off
 Hirshfeld analysis                             : off
 unlimited duration calculation
 timing information                             : on
 memory usage estimate                          : on
 write extra output files                       : on
 write final potential to formatted file        : off
 write final density to formatted file          : off
 write structure in CELL formatted file         : on
 write BibTeX reference list                    : on
 write OTFG pseudopotential files               : on
 write electrostatic potential file             : on
 write bands file                               : on
 checkpoint writing                             : both castep_bin and check files
  
 output         length unit                     : A
 output           mass unit                     : amu
 output           time unit                     : ps
 output         charge unit                     : e
 output           spin unit                     : hbar/2
 output         energy unit                     : eV
 output          force unit                     : eV/A
 output       velocity unit                     : A/ps
 output       pressure unit                     : GPa
 output     inv_length unit                     : 1/A
 output      frequency unit                     : cm-1
 output force constant unit                     : eV/A**2
 output         volume unit                     : A**3
 output   IR intensity unit                     : (D/A)**2/amu
 output         dipole unit                     : D
 output         efield unit                     : eV/A/e
 output        entropy unit                     : J/mol/K
  
 wavefunctions paging                           : none
 random number generator seed                   : randomised (132622261)
 data distribution                              : optimal for this architecture
 optimization strategy                          : maximize speed(+++)

 *********************** Exchange-Correlation Parameters ***********************
  
 using functional                               : Perdew Burke Ernzerhof
 relativistic treatment                         : Koelling-Harmon
 DFT+D: Semi-empirical dispersion correction    : off

 ************************* Pseudopotential Parameters **************************
  
 pseudopotential representation                 : reciprocal space
 <beta|phi> representation                      : reciprocal space
 spin-orbit coupling                            : off

 **************************** Basis Set Parameters *****************************
  
 plane wave basis set cut-off                   :  1200.0000   eV
 size of standard grid                          :     2.0000
 size of   fine   gmax                          :    35.4943   1/A
 finite basis set correction                    : automatic
 number of sample energies                      :          3
           sample  spacing                      :     5.0000   eV

 **************************** Electronic Parameters ****************************
  
 number of  electrons                           :  16.00    
 net charge of system                           :  0.000    
 treating system as non-spin-polarized
 number of bands                                :          8

 ********************* Electronic Minimization Parameters **********************
  
 Method: Treating system as non-metallic,
         and number of  SD  steps               :          1
         and number of  CG  steps               :          4
  
 total energy / atom convergence tol.           : 0.1000E-10   eV
 eigen-energy convergence tolerance             : 0.2000E-10   eV
 max force / atom convergence tol.              : ignored
 convergence tolerance window                   :          3   cycles
 max. number of SCF cycles                      :        100
 periodic dipole correction                     : NONE

 ************************** Density Mixing Parameters **************************
  
 density-mixing scheme                          : Broyden
 max. length of mixing history                  :         20
 charge density mixing amplitude                : 0.8000    
 cut-off energy for mixing                      :  1200.       eV

 *********************** Population Analysis Parameters ************************
  
 Population analysis with cutoff                :  3.000       A
 Population analysis output                     : summary and pdos components

 ********************** Geometry Optimization Parameters ***********************
  
 optimization method                            : LBFGS
 max. no. of LBFGS updates                      : unbounded
 variable cell method                           : fixed basis quality
 max. number of steps                           :         60
 estimated bulk modulus                         :  500.0       GPa
 estimated <frequency>                          :  1668.       cm-1
 geom line minimiser                            : on
 with line minimiser tolerance                  :     0.4000
 total energy convergence tolerance             : 0.1000E-08   eV/atom
        max ionic |force| tolerance             : 0.1000E-04   eV/A
 max ionic |displacement| tolerance             : 0.1000E-04   A
   max |stress component| tolerance             : 0.1000E-04   GPa
 convergence tolerance window                   :          2   steps
 backup results every                           :      14400   seconds
 write geom trajectory file                     : on

 *******************************************************************************
  

                           -------------------------------
                                      Unit Cell
                           -------------------------------
        Real Lattice(A)                      Reciprocal Lattice(1/A)
     3.0556777     0.0000000     0.0000000        2.056232998   0.000000000   0.000000000
    -0.0000000     1.8841148     0.0000000       -0.000000000   3.334820894   0.000000000
     0.0000000     0.0000000     5.8419475        0.000000000   0.000000000   1.075529224

                       Lattice parameters(A)       Cell Angles
                    a =      3.055678          alpha =   90.000000
                    b =      1.884115          beta  =   90.000000
                    c =      5.841948          gamma =   90.000000

                       Current cell volume =            33.633538       A**3
                                   density =             0.479493   AMU/A**3
                                           =             0.796217     g/cm^3

                           -------------------------------
                                     Cell Contents
                           -------------------------------
                         Total number of ions in cell =   16
                      Total number of species in cell =    1
                        Max number of any one species =   16

            xxxxxxxxxxxxxxxxxxxxxxxxxxxxxxxxxxxxxxxxxxxxxxxxxxxxxxxxxxxx
            x  Element    Atom        Fractional coordinates of atoms  x
            x            Number           u          v          w      x
            x----------------------------------------------------------x
            x  H            1         0.401095   0.388501   0.000000   x 
            x  H            2        -0.401095   0.388501   0.500000   x 
            x  H            3         0.401095  -0.388501   0.500000   x 
            x  H            4        -0.401095  -0.388501   0.000000   x 
            x  H            5         0.369844  -0.000000   0.250000   x 
            x  H            6        -0.369844   0.000000   0.750000   x 
            x  H            7         0.369844  -0.000000   0.750000   x 
            x  H            8        -0.369844   0.000000   0.250000   x 
            x  H            9         0.901095   0.888501   0.500000   x 
            x  H           10        -0.901095   0.888501   0.000000   x 
            x  H           11         0.901095  -0.888501   0.000000   x 
            x  H           12        -0.901095  -0.888501   0.500000   x 
            x  H           13         0.869844   0.500000   0.750000   x 
            x  H           14        -0.869844   0.500000   0.250000   x 
            x  H           15         0.869844   0.500000   0.250000   x 
            x  H           16        -0.869844   0.500000   0.750000   x 
            xxxxxxxxxxxxxxxxxxxxxxxxxxxxxxxxxxxxxxxxxxxxxxxxxxxxxxxxxxxx


                         No user defined ionic velocities

                           -------------------------------
                                   Details of Species
                           -------------------------------

                               Mass of species in AMU
                                    H    1.0079400

                          Electric Quadrupole Moment (Barn)
                                    H    0.0028600 Isotope  2

                          Files used for pseudopotentials:
                                    H 0|0.7|2|6|8|10L(qc=10)

                           -------------------------------
                              k-Points For BZ Sampling
                           -------------------------------
                       MP grid size for SCF calculation is  8  8  8
                            with an offset of   0.000  0.000  0.000
                       Number of kpoints used =            64

                           -------------------------------
                               Symmetry and Constraints
                           -------------------------------

                      Cell is a supercell containing 2 primitive cells
                      Maximum deviation from symmetry = 0.188261E-14     ANG

                      Number of symmetry operations   =          16
                      Number of ionic constraints     =           3
                      Point group of crystal =     8: D2h, mmm, 2/m 2/m 2/m
                      Space group of crystal =    72: Ibam, -I 2 2c

             Set iprint > 1 for details on symmetry rotations/translations

                         Centre of mass is constrained
             Set iprint > 1 for details of linear ionic constraints

                         Number of cell constraints= 3
                         Cell constraints are:  1 2 3 0 0 0

                         External pressure/stress (GPa)
                        110.00000   0.00000   0.00000
                                  110.00000   0.00000
                                            110.00000
  
+---------------- MEMORY AND SCRATCH DISK ESTIMATES PER PROCESS --------------+
|                                                     Memory          Disk    |
| Baseline code, static data and system overhead      479.0 MB         0.0 MB |
| BLAS internal memory storage                          0.0 MB         0.0 MB |
| Model and support data                               36.7 MB         0.0 MB |
| Electronic energy minimisation requirements          15.0 MB         0.0 MB |
| Force calculation requirements                        7.1 MB         0.0 MB |
| Stress calculation requirements                       9.0 MB         0.0 MB |
|                                               ----------------------------- |
| Approx. total storage required per process          530.7 MB         0.0 MB |
|                                                                             |
| Requirements will fluctuate during execution and may exceed these estimates |
+-----------------------------------------------------------------------------+
Calculating finite basis set correction with  3 cut-off energies.
Calculating total energy with cut-off of 1190.000 eV.
------------------------------------------------------------------------ <-- SCF
SCF loop      Energy                           Energy gain       Timer   <-- SCF
                                               per atom          (sec)   <-- SCF
------------------------------------------------------------------------ <-- SCF
Initial   3.86872169E+002                                          4.03  <-- SCF
      1  -1.95498192E+002                    3.63981476E+001       4.60  <-- SCF
      2  -2.39116786E+002                    2.72616209E+000       5.06  <-- SCF
      3  -2.40080441E+002                    6.02284202E-002       5.44  <-- SCF
      4  -2.39389799E+002                   -4.31651223E-002       6.29  <-- SCF
      5  -2.39366372E+002                   -1.46418890E-003       7.14  <-- SCF
      6  -2.39367004E+002                    3.95458369E-005       7.96  <-- SCF
      7  -2.39367065E+002                    3.80735451E-006       8.82  <-- SCF
      8  -2.39367065E+002                    4.06188398E-009       9.65  <-- SCF
      9  -2.39367065E+002                    4.08768996E-010      10.49  <-- SCF
     10  -2.39367065E+002                    5.91525649E-012      11.15  <-- SCF
     11  -2.39367065E+002                    2.93043861E-013      11.81  <-- SCF
------------------------------------------------------------------------ <-- SCF
 
Final energy =  -239.3670652793     eV
(energy not corrected for finite basis set)
 
Calculating total energy with cut-off of 1195.000 eV.
------------------------------------------------------------------------ <-- SCF
SCF loop      Energy                           Energy gain       Timer   <-- SCF
                                               per atom          (sec)   <-- SCF
------------------------------------------------------------------------ <-- SCF
Initial  -2.39367065E+002                                         12.54  <-- SCF
      1  -2.39368244E+002                    7.36618541E-005      12.98  <-- SCF
      2  -2.39368244E+002                    1.14516707E-010      13.81  <-- SCF
      3  -2.39368244E+002                    2.82936476E-008      14.63  <-- SCF
      4  -2.39368244E+002                    1.56029240E-009      15.47  <-- SCF
      5  -2.39368244E+002                    9.22937108E-012      16.16  <-- SCF
      6  -2.39368244E+002                    7.79436248E-013      16.85  <-- SCF
      7  -2.39368244E+002                   -2.74917436E-013      17.52  <-- SCF
------------------------------------------------------------------------ <-- SCF
 
Final energy =  -239.3682443486     eV
(energy not corrected for finite basis set)
 
Calculating total energy with cut-off of 1200.000 eV.
------------------------------------------------------------------------ <-- SCF
SCF loop      Energy                           Energy gain       Timer   <-- SCF
                                               per atom          (sec)   <-- SCF
------------------------------------------------------------------------ <-- SCF
Initial  -2.39368244E+002                                         18.25  <-- SCF
      1  -2.39369462E+002                    7.61296891E-005      18.70  <-- SCF
      2  -2.39369462E+002                    1.28984615E-010      19.53  <-- SCF
      3  -2.39369463E+002                    3.04591148E-008      20.39  <-- SCF
      4  -2.39369463E+002                    1.66008743E-009      21.25  <-- SCF
      5  -2.39369463E+002                    9.77316381E-012      21.97  <-- SCF
      6  -2.39369463E+002                    1.84285315E-013      22.67  <-- SCF
------------------------------------------------------------------------ <-- SCF
 
Final energy =  -239.3694629398     eV
(energy not corrected for finite basis set)
 
 For future reference: finite basis dEtot/dlog(Ecut) =      -0.287001eV
 Total energy corrected for finite basis set =    -239.369470 eV
 
+---------------- MEMORY AND SCRATCH DISK ESTIMATES PER PROCESS --------------+
|                                                     Memory          Disk    |
| Model and support data                               44.9 MB         0.0 MB |
| Electronic energy minimisation requirements          15.0 MB         0.0 MB |
| Geometry minimisation requirements                   16.9 MB         0.0 MB |
|                                               ----------------------------- |
| Approx. total storage required per process           76.8 MB         0.0 MB |
|                                                                             |
| Requirements will fluctuate during execution and may exceed these estimates |
+-----------------------------------------------------------------------------+
 

 ******************************** Symmetrised Forces ********************************
 *                                                                                  *
 *                           Cartesian components (eV/A)                            *
 * -------------------------------------------------------------------------------- *
 *                         x                    y                    z              *
 *                                                                                  *
 * H               1      0.00000              0.00000              0.00000         *
 * H               2     -0.00000              0.00000              0.00000         *
 * H               3      0.00000             -0.00000              0.00000         *
 * H               4     -0.00000             -0.00000              0.00000         *
 * H               5     -0.00000             -0.00000              0.00000         *
 * H               6      0.00000              0.00000              0.00000         *
 * H               7     -0.00000             -0.00000             -0.00000         *
 * H               8      0.00000             -0.00000              0.00000         *
 * H               9      0.00000              0.00000              0.00000         *
 * H              10     -0.00000              0.00000              0.00000         *
 * H              11      0.00000             -0.00000              0.00000         *
 * H              12     -0.00000             -0.00000              0.00000         *
 * H              13     -0.00000              0.00000             -0.00000         *
 * H              14      0.00000              0.00000              0.00000         *
 * H              15     -0.00000              0.00000             -0.00000         *
 * H              16      0.00000              0.00000              0.00000         *
 *                                                                                  *
 ************************************************************************************

 *********** Symmetrised Stress Tensor ***********
 *                                               *
 *          Cartesian components (GPa)           *
 * --------------------------------------------- *
 *             x             y             z     *
 *                                               *
 *  x   -119.995328      0.000000      0.000000  *
 *  y      0.000000   -119.995320      0.000000  *
 *  z      0.000000      0.000000   -119.995325  *
 *                                               *
 *  Pressure:  119.9953                          *
 *                                               *
 *************************************************
 LBFGS: finished iteration     0 with enthalpy= -2.16277826E+002 eV
  
 +-----------+-----------------+-----------------+------------+-----+ <-- LBFGS
 | Parameter |      value      |    tolerance    |    units   | OK? | <-- LBFGS
 +-----------+-----------------+-----------------+------------+-----+ <-- LBFGS
 |  dE/ion   |   0.000000E+000 |   1.000000E-009 |         eV | No  | <-- LBFGS
 |  |F|max   |   3.410476E-007 |   1.000000E-005 |       eV/A | Yes | <-- LBFGS
 |  |dR|max  |   0.000000E+000 |   1.000000E-005 |          A | No  | <-- LBFGS
 |   Smax    |   9.995328E+000 |   1.000000E-005 |        GPa | No  | <-- LBFGS
 +-----------+-----------------+-----------------+------------+-----+ <-- LBFGS
  

================================================================================
 Starting LBFGS iteration          1 ...
================================================================================
  
 +------------+-------------+-------------+-----------------+ <-- min LBFGS
 |    Step    |   lambda    |   F.delta'  |    enthalpy     | <-- min LBFGS
 +------------+-------------+-------------+-----------------+ <-- min LBFGS
 |  previous  |    0.000000 |    0.133558 |     -216.277826 | <-- min LBFGS
 +------------+-------------+-------------+-----------------+ <-- min LBFGS
  

--------------------------------------------------------------------------------
 LBFGS: starting iteration         1 with trial guess (lambda=  1.000000)
--------------------------------------------------------------------------------
 
+---------------- MEMORY AND SCRATCH DISK ESTIMATES PER PROCESS --------------+
|                                                     Memory          Disk    |
| Model and support data                               44.9 MB         0.0 MB |
| Electronic energy minimisation requirements          15.2 MB         0.0 MB |
| Geometry minimisation requirements                   17.1 MB         0.0 MB |
|                                               ----------------------------- |
| Approx. total storage required per process           77.2 MB         0.0 MB |
|                                                                             |
| Requirements will fluctuate during execution and may exceed these estimates |
+-----------------------------------------------------------------------------+
 

                           -------------------------------
                                      Unit Cell
                           -------------------------------
        Real Lattice(A)              Reciprocal Lattice(1/A)
     3.0760394     0.0000000     0.0000000        2.042621881   0.000000000   0.000000000
    -0.0000000     1.8966697     0.0000000       -0.000000000   3.312746255   0.000000000
     0.0000000     0.0000000     5.8808757        0.000000000   0.000000000   1.068409822

                       Lattice parameters(A)       Cell Angles
                    a =      3.076039          alpha =   90.000000
                    b =      1.896670          beta  =   90.000000
                    c =      5.880876          gamma =   90.000000

                Current cell volume =            34.310384 A**3

                           -------------------------------
                                     Cell Contents
                           -------------------------------

            xxxxxxxxxxxxxxxxxxxxxxxxxxxxxxxxxxxxxxxxxxxxxxxxxxxxxxxxxxxxxxxxx
            x  Element         Atom        Fractional coordinates of atoms  x
            x                 Number           u          v          w      x
            x---------------------------------------------------------------x
            x  H                 1         0.401095   0.388501   0.000000   x
            x  H                 2        -0.401095   0.388501   0.500000   x
            x  H                 3         0.401095  -0.388501   0.500000   x
            x  H                 4        -0.401095  -0.388501   0.000000   x
            x  H                 5         0.369844   0.000000   0.250000   x
            x  H                 6        -0.369844   0.000000   0.750000   x
            x  H                 7         0.369844   0.000000   0.750000   x
            x  H                 8        -0.369844   0.000000   0.250000   x
            x  H                 9         0.901095   0.888501   0.500000   x
            x  H                10        -0.901095   0.888501   0.000000   x
            x  H                11         0.901095  -0.888501   0.000000   x
            x  H                12        -0.901095  -0.888501   0.500000   x
            x  H                13         0.869844   0.500000   0.750000   x
            x  H                14        -0.869844   0.500000   0.250000   x
            x  H                15         0.869844   0.500000   0.250000   x
            x  H                16        -0.869844   0.500000   0.750000   x
            xxxxxxxxxxxxxxxxxxxxxxxxxxxxxxxxxxxxxxxxxxxxxxxxxxxxxxxxxxxxxxxxx


------------------------------------------------------------------------ <-- SCF
SCF loop      Energy                           Energy gain       Timer   <-- SCF
                                               per atom          (sec)   <-- SCF
------------------------------------------------------------------------ <-- SCF
Initial  -2.39851925E+002                                         25.43  <-- SCF
      1  -2.39860784E+002                    5.53671016E-004      25.88  <-- SCF
      2  -2.39860830E+002                    2.89586976E-006      26.73  <-- SCF
      3  -2.39860705E+002                   -7.84969960E-006      27.60  <-- SCF
      4  -2.39860702E+002                   -1.83180219E-007      28.46  <-- SCF
      5  -2.39860702E+002                    8.69986499E-009      29.31  <-- SCF
      6  -2.39860702E+002                    8.12816059E-010      30.16  <-- SCF
      7  -2.39860702E+002                    2.64041582E-012      30.84  <-- SCF
      8  -2.39860702E+002                    1.99390668E-013      31.51  <-- SCF
------------------------------------------------------------------------ <-- SCF
 
Final energy =  -239.8607019693     eV
(energy not corrected for finite basis set)
 

 ******************************** Symmetrised Forces ********************************
 *                                                                                  *
 *                           Cartesian components (eV/A)                            *
 * -------------------------------------------------------------------------------- *
 *                         x                    y                    z              *
 *                                                                                  *
 * H               1      0.10978              0.07814              0.00000         *
 * H               2     -0.10978              0.07814              0.00000         *
 * H               3      0.10978             -0.07814              0.00000         *
 * H               4     -0.10978             -0.07814              0.00000         *
 * H               5      0.10412              0.00000              0.00000         *
 * H               6     -0.10412              0.00000              0.00000         *
 * H               7      0.10412              0.00000             -0.00000         *
 * H               8     -0.10412              0.00000             -0.00000         *
 * H               9      0.10978              0.07814              0.00000         *
 * H              10     -0.10978              0.07814              0.00000         *
 * H              11      0.10978             -0.07814              0.00000         *
 * H              12     -0.10978             -0.07814              0.00000         *
 * H              13      0.10412              0.00000              0.00000         *
 * H              14     -0.10412              0.00000             -0.00000         *
 * H              15      0.10412              0.00000              0.00000         *
 * H              16     -0.10412              0.00000              0.00000         *
 *                                                                                  *
 ************************************************************************************

 *********** Symmetrised Stress Tensor ***********
 *                                               *
 *          Cartesian components (GPa)           *
 * --------------------------------------------- *
 *             x             y             z     *
 *                                               *
 *  x   -110.648042     -0.000000      0.000000  *
 *  y     -0.000000   -113.185700      0.000000  *
 *  z      0.000000      0.000000   -114.332698  *
 *                                               *
 *  Pressure:  112.7221                          *
 *                                               *
 *************************************************
  
 +------------+-------------+-------------+-----------------+ <-- min LBFGS
 |    Step    |   lambda    |   F.delta'  |    enthalpy     | <-- min LBFGS
 +------------+-------------+-------------+-----------------+ <-- min LBFGS
 |  previous  |    0.000000 |    0.133558 |     -216.277826 | <-- min LBFGS
 | trial step |    1.000000 |    0.036860 |     -216.304367 | <-- min LBFGS
 +------------+-------------+-------------+-----------------+ <-- min LBFGS
  
 LBFGS: finished iteration     1 with enthalpy= -2.16304367E+002 eV
  
 +-----------+-----------------+-----------------+------------+-----+ <-- LBFGS
 | Parameter |      value      |    tolerance    |    units   | OK? | <-- LBFGS
 +-----------+-----------------+-----------------+------------+-----+ <-- LBFGS
 |  dE/ion   |   1.658815E-003 |   1.000000E-009 |         eV | No  | <-- LBFGS
 |  |F|max   |   1.347495E-001 |   1.000000E-005 |       eV/A | No  | <-- LBFGS
 |  |dR|max  |   3.329862E-008 |   1.000000E-005 |          A | Yes | <-- LBFGS
 |   Smax    |   4.332698E+000 |   1.000000E-005 |        GPa | No  | <-- LBFGS
 +-----------+-----------------+-----------------+------------+-----+ <-- LBFGS
  

================================================================================
 Starting LBFGS iteration          2 ...
================================================================================
  
 +------------+-------------+-------------+-----------------+ <-- min LBFGS
 |    Step    |   lambda    |   F.delta'  |    enthalpy     | <-- min LBFGS
 +------------+-------------+-------------+-----------------+ <-- min LBFGS
 |  previous  |    0.000000 |    0.061115 |     -216.304367 | <-- min LBFGS
 +------------+-------------+-------------+-----------------+ <-- min LBFGS
  

--------------------------------------------------------------------------------
 LBFGS: starting iteration         2 with trial guess (lambda=  1.000000)
--------------------------------------------------------------------------------
 
+---------------- MEMORY AND SCRATCH DISK ESTIMATES PER PROCESS --------------+
|                                                     Memory          Disk    |
| Model and support data                               45.0 MB         0.0 MB |
| Electronic energy minimisation requirements          15.4 MB         0.0 MB |
| Geometry minimisation requirements                   17.4 MB         0.0 MB |
|                                               ----------------------------- |
| Approx. total storage required per process           77.8 MB         0.0 MB |
|                                                                             |
| Requirements will fluctuate during execution and may exceed these estimates |
+-----------------------------------------------------------------------------+
 

                           -------------------------------
                                      Unit Cell
                           -------------------------------
        Real Lattice(A)              Reciprocal Lattice(1/A)
     3.0999482     0.0000000     0.0000000        2.026867816  -0.000000000   0.000000000
     0.0000000     1.9158731     0.0000000       -0.000000000   3.279541462   0.000000000
     0.0000000     0.0000000     5.9466710        0.000000000   0.000000000   1.056588694

                       Lattice parameters(A)       Cell Angles
                    a =      3.099948          alpha =   90.000000
                    b =      1.915873          beta  =   90.000000
                    c =      5.946671          gamma =   90.000000

                Current cell volume =            35.317918 A**3

                           -------------------------------
                                     Cell Contents
                           -------------------------------

            xxxxxxxxxxxxxxxxxxxxxxxxxxxxxxxxxxxxxxxxxxxxxxxxxxxxxxxxxxxxxxxxx
            x  Element         Atom        Fractional coordinates of atoms  x
            x                 Number           u          v          w      x
            x---------------------------------------------------------------x
            x  H                 1         0.405940   0.394094   0.000000   x
            x  H                 2        -0.405940   0.394094   0.500000   x
            x  H                 3         0.405940  -0.394094   0.500000   x
            x  H                 4        -0.405940  -0.394094   0.000000   x
            x  H                 5         0.374439  -0.000000   0.250000   x
            x  H                 6        -0.374439   0.000000   0.750000   x
            x  H                 7         0.374439   0.000000   0.750000   x
            x  H                 8        -0.374439   0.000000   0.250000   x
            x  H                 9         0.905940   0.894094   0.500000   x
            x  H                10        -0.905940   0.894094   0.000000   x
            x  H                11         0.905940  -0.894094   0.000000   x
            x  H                12        -0.905940  -0.894094   0.500000   x
            x  H                13         0.874439   0.500000   0.750000   x
            x  H                14        -0.874439   0.500000   0.250000   x
            x  H                15         0.874439   0.500000   0.250000   x
            x  H                16        -0.874439   0.500000   0.750000   x
            xxxxxxxxxxxxxxxxxxxxxxxxxxxxxxxxxxxxxxxxxxxxxxxxxxxxxxxxxxxxxxxxx


------------------------------------------------------------------------ <-- SCF
SCF loop      Energy                           Energy gain       Timer   <-- SCF
                                               per atom          (sec)   <-- SCF
------------------------------------------------------------------------ <-- SCF
Initial  -2.40049130E+002                                         34.24  <-- SCF
      1  -2.40549171E+002                    3.12525322E-002      34.73  <-- SCF
      2  -2.40551297E+002                    1.32898969E-004      35.57  <-- SCF
      3  -2.40517035E+002                   -2.14135355E-003      36.42  <-- SCF
      4  -2.40515592E+002                   -9.02304592E-005      37.27  <-- SCF
      5  -2.40515598E+002                    3.77413119E-007      38.20  <-- SCF
      6  -2.40515598E+002                    3.17213756E-008      39.04  <-- SCF
      7  -2.40515598E+002                    2.39057327E-010      39.81  <-- SCF
      8  -2.40515598E+002                    1.76098213E-011      40.48  <-- SCF
      9  -2.40515598E+002                    9.00279077E-013      41.15  <-- SCF
     10  -2.40515598E+002                    4.53160609E-014      41.82  <-- SCF
------------------------------------------------------------------------ <-- SCF
 
Final energy =  -240.5155983450     eV
(energy not corrected for finite basis set)
 

 ******************************** Symmetrised Forces ********************************
 *                                                                                  *
 *                           Cartesian components (eV/A)                            *
 * -------------------------------------------------------------------------------- *
 *                         x                    y                    z              *
 *                                                                                  *
 * H               1     -0.68937             -0.50362             -0.00000         *
 * H               2      0.68937             -0.50362             -0.00000         *
 * H               3     -0.68937              0.50362             -0.00000         *
 * H               4      0.68937              0.50362             -0.00000         *
 * H               5     -0.05003              0.00000              0.00000         *
 * H               6      0.05003              0.00000              0.00000         *
 * H               7     -0.05003             -0.00000             -0.00000         *
 * H               8      0.05003             -0.00000             -0.00000         *
 * H               9     -0.68937             -0.50362             -0.00000         *
 * H              10      0.68937             -0.50362             -0.00000         *
 * H              11     -0.68937              0.50362             -0.00000         *
 * H              12      0.68937              0.50362             -0.00000         *
 * H              13     -0.05003             -0.00000             -0.00000         *
 * H              14      0.05003             -0.00000              0.00000         *
 * H              15     -0.05003              0.00000              0.00000         *
 * H              16      0.05003             -0.00000             -0.00000         *
 *                                                                                  *
 ************************************************************************************

 *********** Symmetrised Stress Tensor ***********
 *                                               *
 *          Cartesian components (GPa)           *
 * --------------------------------------------- *
 *             x             y             z     *
 *                                               *
 *  x   -114.415512      0.000000      0.000000  *
 *  y      0.000000   -111.620651      0.000000  *
 *  z      0.000000      0.000000   -106.576881  *
 *                                               *
 *  Pressure:  110.8710                          *
 *                                               *
 *************************************************
  
 +------------+-------------+-------------+-----------------+ <-- min LBFGS
 |    Step    |   lambda    |   F.delta'  |    enthalpy     | <-- min LBFGS
 +------------+-------------+-------------+-----------------+ <-- min LBFGS
 |  previous  |    0.000000 |    0.061115 |     -216.304367 | <-- min LBFGS
 | trial step |    1.000000 |   -0.158073 |     -216.267520 | <-- min LBFGS
 +------------+-------------+-------------+-----------------+ <-- min LBFGS
  

--------------------------------------------------------------------------------
 LBFGS: improving iteration         2 with line minimization (lambda=  0.278824)
--------------------------------------------------------------------------------

                           -------------------------------
                                      Unit Cell
                           -------------------------------
        Real Lattice(A)              Reciprocal Lattice(1/A)
     3.0827057     0.0000000     0.0000000        2.038204700  -0.000000000   0.000000000
     0.0000000     1.9020240     0.0000000       -0.000000000   3.303420549   0.000000000
     0.0000000     0.0000000     5.8992210        0.000000000   0.000000000   1.065087296

                       Lattice parameters(A)       Cell Angles
                    a =      3.082706          alpha =   90.000000
                    b =      1.902024          beta  =   90.000000
                    c =      5.899221          gamma =   90.000000

                Current cell volume =            34.589377 A**3

                           -------------------------------
                                     Cell Contents
                           -------------------------------

            xxxxxxxxxxxxxxxxxxxxxxxxxxxxxxxxxxxxxxxxxxxxxxxxxxxxxxxxxxxxxxxxx
            x  Element         Atom        Fractional coordinates of atoms  x
            x                 Number           u          v          w      x
            x---------------------------------------------------------------x
            x  H                 1         0.402446   0.390060   0.000000   x
            x  H                 2        -0.402446   0.390060   0.500000   x
            x  H                 3         0.402446  -0.390060   0.500000   x
            x  H                 4        -0.402446  -0.390060   0.000000   x
            x  H                 5         0.371125  -0.000000   0.250000   x
            x  H                 6        -0.371125   0.000000   0.750000   x
            x  H                 7         0.371125   0.000000   0.750000   x
            x  H                 8        -0.371125   0.000000   0.250000   x
            x  H                 9         0.902446   0.890060   0.500000   x
            x  H                10        -0.902446   0.890060   0.000000   x
            x  H                11         0.902446  -0.890060   0.000000   x
            x  H                12        -0.902446  -0.890060   0.500000   x
            x  H                13         0.871125   0.500000   0.750000   x
            x  H                14        -0.871125   0.500000   0.250000   x
            x  H                15         0.871125   0.500000   0.250000   x
            x  H                16        -0.871125   0.500000   0.750000   x
            xxxxxxxxxxxxxxxxxxxxxxxxxxxxxxxxxxxxxxxxxxxxxxxxxxxxxxxxxxxxxxxxx


------------------------------------------------------------------------ <-- SCF
SCF loop      Energy                           Energy gain       Timer   <-- SCF
                                               per atom          (sec)   <-- SCF
------------------------------------------------------------------------ <-- SCF
Initial  -2.39809980E+002                                         44.54  <-- SCF
      1  -2.40077790E+002                    1.67381201E-002      45.01  <-- SCF
      2  -2.40079022E+002                    7.69993612E-005      45.86  <-- SCF
      3  -2.40060471E+002                   -1.15943141E-003      46.73  <-- SCF
      4  -2.40059697E+002                   -4.83676932E-005      47.58  <-- SCF
      5  -2.40059700E+002                    1.62257105E-007      48.43  <-- SCF
      6  -2.40059700E+002                    1.27710811E-008      49.29  <-- SCF
      7  -2.40059700E+002                    8.52938899E-011      50.03  <-- SCF
      8  -2.40059700E+002                    8.30794451E-012      50.71  <-- SCF
      9  -2.40059700E+002                   -6.94846268E-014      51.38  <-- SCF
------------------------------------------------------------------------ <-- SCF
 
Final energy =  -240.0596997929     eV
(energy not corrected for finite basis set)
 

 ******************************** Symmetrised Forces ********************************
 *                                                                                  *
 *                           Cartesian components (eV/A)                            *
 * -------------------------------------------------------------------------------- *
 *                         x                    y                    z              *
 *                                                                                  *
 * H               1     -0.09265             -0.06912              0.00000         *
 * H               2      0.09265             -0.06912              0.00000         *
 * H               3     -0.09265              0.06912              0.00000         *
 * H               4      0.09265              0.06912              0.00000         *
 * H               5      0.06728              0.00000              0.00000         *
 * H               6     -0.06728              0.00000              0.00000         *
 * H               7      0.06728              0.00000             -0.00000         *
 * H               8     -0.06728              0.00000             -0.00000         *
 * H               9     -0.09265             -0.06912              0.00000         *
 * H              10      0.09265             -0.06912              0.00000         *
 * H              11     -0.09265              0.06912              0.00000         *
 * H              12      0.09265              0.06912              0.00000         *
 * H              13      0.06728              0.00000             -0.00000         *
 * H              14     -0.06728              0.00000             -0.00000         *
 * H              15      0.06728              0.00000              0.00000         *
 * H              16     -0.06728              0.00000             -0.00000         *
 *                                                                                  *
 ************************************************************************************

 *********** Symmetrised Stress Tensor ***********
 *                                               *
 *          Cartesian components (GPa)           *
 * --------------------------------------------- *
 *             x             y             z     *
 *                                               *
 *  x   -111.525880     -0.000000      0.000000  *
 *  y     -0.000000   -112.555094      0.000000  *
 *  z      0.000000      0.000000   -112.029678  *
 *                                               *
 *  Pressure:  112.0369                          *
 *                                               *
 *************************************************
  
 +------------+-------------+-------------+-----------------+ <-- min LBFGS
 |    Step    |   lambda    |   F.delta'  |    enthalpy     | <-- min LBFGS
 +------------+-------------+-------------+-----------------+ <-- min LBFGS
 |  previous  |    0.000000 |    0.061115 |     -216.304367 | <-- min LBFGS
 | trial step |    1.000000 |   -0.158073 |     -216.267520 | <-- min LBFGS
 |  line step |    0.278824 |    0.004514 |     -216.311803 | <-- min LBFGS
 +------------+-------------+-------------+-----------------+ <-- min LBFGS
  
 LBFGS: finished iteration     2 with enthalpy= -2.16311803E+002 eV
  
 +-----------+-----------------+-----------------+------------+-----+ <-- LBFGS
 | Parameter |      value      |    tolerance    |    units   | OK? | <-- LBFGS
 +-----------+-----------------+-----------------+------------+-----+ <-- LBFGS
 |  dE/ion   |   4.646951E-004 |   1.000000E-009 |         eV | No  | <-- LBFGS
 |  |F|max   |   1.155941E-001 |   1.000000E-005 |       eV/A | No  | <-- LBFGS
 |  |dR|max  |   5.112583E-003 |   1.000000E-005 |          A | No  | <-- LBFGS
 |   Smax    |   2.555094E+000 |   1.000000E-005 |        GPa | No  | <-- LBFGS
 +-----------+-----------------+-----------------+------------+-----+ <-- LBFGS
  

================================================================================
 Starting LBFGS iteration          3 ...
================================================================================
  
 +------------+-------------+-------------+-----------------+ <-- min LBFGS
 |    Step    |   lambda    |   F.delta'  |    enthalpy     | <-- min LBFGS
 +------------+-------------+-------------+-----------------+ <-- min LBFGS
 |  previous  |    0.000000 |    0.038917 |     -216.311803 | <-- min LBFGS
 +------------+-------------+-------------+-----------------+ <-- min LBFGS
  

--------------------------------------------------------------------------------
 LBFGS: starting iteration         3 with trial guess (lambda=  1.000000)
--------------------------------------------------------------------------------

                           -------------------------------
                                      Unit Cell
                           -------------------------------
        Real Lattice(A)              Reciprocal Lattice(1/A)
     3.0935333    -0.0000000     0.0000000        2.031070851   0.000000000   0.000000000
    -0.0000000     1.9123902     0.0000000        0.000000000   3.285514317   0.000000000
     0.0000000     0.0000000     5.9322893        0.000000000   0.000000000   1.059150177

                       Lattice parameters(A)       Cell Angles
                    a =      3.093533          alpha =   90.000000
                    b =      1.912390          beta  =   90.000000
                    c =      5.932289          gamma =   90.000000

                Current cell volume =            35.095677 A**3

                           -------------------------------
                                     Cell Contents
                           -------------------------------

            xxxxxxxxxxxxxxxxxxxxxxxxxxxxxxxxxxxxxxxxxxxxxxxxxxxxxxxxxxxxxxxxx
            x  Element         Atom        Fractional coordinates of atoms  x
            x                 Number           u          v          w      x
            x---------------------------------------------------------------x
            x  H                 1         0.401706   0.389026   0.000000   x
            x  H                 2        -0.401706   0.389026   0.500000   x
            x  H                 3         0.401706  -0.389026   0.500000   x
            x  H                 4        -0.401706  -0.389026   0.000000   x
            x  H                 5         0.375788   0.000000   0.250000   x
            x  H                 6        -0.375788  -0.000000   0.750000   x
            x  H                 7         0.375788   0.000000   0.750000   x
            x  H                 8        -0.375788   0.000000   0.250000   x
            x  H                 9         0.901706   0.889026   0.500000   x
            x  H                10        -0.901706   0.889026   0.000000   x
            x  H                11         0.901706  -0.889026   0.000000   x
            x  H                12        -0.901706  -0.889026   0.500000   x
            x  H                13         0.875788   0.500000   0.750000   x
            x  H                14        -0.875788   0.500000   0.250000   x
            x  H                15         0.875788   0.500000   0.250000   x
            x  H                16        -0.875788   0.500000   0.750000   x
            xxxxxxxxxxxxxxxxxxxxxxxxxxxxxxxxxxxxxxxxxxxxxxxxxxxxxxxxxxxxxxxxx


------------------------------------------------------------------------ <-- SCF
SCF loop      Energy                           Energy gain       Timer   <-- SCF
                                               per atom          (sec)   <-- SCF
------------------------------------------------------------------------ <-- SCF
Initial  -2.40220783E+002                                         54.12  <-- SCF
      1  -2.40417113E+002                    1.22705873E-002      54.60  <-- SCF
      2  -2.40418066E+002                    5.95789706E-005      55.44  <-- SCF
      3  -2.40403266E+002                   -9.25000867E-004      56.29  <-- SCF
      4  -2.40402877E+002                   -2.42986084E-005      57.16  <-- SCF
      5  -2.40402874E+002                   -2.04734972E-007      57.99  <-- SCF
      6  -2.40402874E+002                   -4.61936820E-010      58.86  <-- SCF
      7  -2.40402874E+002                    2.69823911E-010      59.64  <-- SCF
      8  -2.40402874E+002                    3.07424157E-011      60.34  <-- SCF
      9  -2.40402874E+002                    1.49543001E-012      61.01  <-- SCF
     10  -2.40402874E+002                   -8.15689097E-014      61.68  <-- SCF
------------------------------------------------------------------------ <-- SCF
 
Final energy =  -240.4028737465     eV
(energy not corrected for finite basis set)
 

 ******************************** Symmetrised Forces ********************************
 *                                                                                  *
 *                           Cartesian components (eV/A)                            *
 * -------------------------------------------------------------------------------- *
 *                         x                    y                    z              *
 *                                                                                  *
 * H               1      0.09467              0.09077              0.00000         *
 * H               2     -0.09467              0.09077              0.00000         *
 * H               3      0.09467             -0.09077              0.00000         *
 * H               4     -0.09467             -0.09077              0.00000         *
 * H               5     -0.19976              0.00000              0.00000         *
 * H               6      0.19976              0.00000             -0.00000         *
 * H               7     -0.19976             -0.00000             -0.00000         *
 * H               8      0.19976              0.00000              0.00000         *
 * H               9      0.09467              0.09077              0.00000         *
 * H              10     -0.09467              0.09077              0.00000         *
 * H              11      0.09467             -0.09077              0.00000         *
 * H              12     -0.09467             -0.09077              0.00000         *
 * H              13     -0.19976             -0.00000             -0.00000         *
 * H              14      0.19976             -0.00000             -0.00000         *
 * H              15     -0.19976             -0.00000              0.00000         *
 * H              16      0.19976              0.00000             -0.00000         *
 *                                                                                  *
 ************************************************************************************

 *********** Symmetrised Stress Tensor ***********
 *                                               *
 *          Cartesian components (GPa)           *
 * --------------------------------------------- *
 *             x             y             z     *
 *                                               *
 *  x   -110.433119      0.000000      0.000000  *
 *  y      0.000000   -109.576696      0.000000  *
 *  z      0.000000      0.000000   -108.598733  *
 *                                               *
 *  Pressure:  109.5362                          *
 *                                               *
 *************************************************
  
 +------------+-------------+-------------+-----------------+ <-- min LBFGS
 |    Step    |   lambda    |   F.delta'  |    enthalpy     | <-- min LBFGS
 +------------+-------------+-------------+-----------------+ <-- min LBFGS
 |  previous  |    0.000000 |    0.038917 |     -216.311803 | <-- min LBFGS
 | trial step |    1.000000 |   -0.063835 |     -216.307360 | <-- min LBFGS
 +------------+-------------+-------------+-----------------+ <-- min LBFGS
  

--------------------------------------------------------------------------------
 LBFGS: improving iteration         3 with line minimization (lambda=  0.378744)
--------------------------------------------------------------------------------

                           -------------------------------
                                      Unit Cell
                           -------------------------------
        Real Lattice(A)              Reciprocal Lattice(1/A)
     3.0868066     0.0000000     0.0000000        2.035496910   0.000000000   0.000000000
    -0.0000000     1.9059502     0.0000000       -0.000000000   3.296615757   0.000000000
     0.0000000     0.0000000     5.9117454        0.000000000   0.000000000   1.062830834

                       Lattice parameters(A)       Cell Angles
                    a =      3.086807          alpha =   90.000000
                    b =      1.905950          beta  =   90.000000
                    c =      5.911745          gamma =   90.000000

                Current cell volume =            34.780569 A**3

                           -------------------------------
                                     Cell Contents
                           -------------------------------

            xxxxxxxxxxxxxxxxxxxxxxxxxxxxxxxxxxxxxxxxxxxxxxxxxxxxxxxxxxxxxxxxx
            x  Element         Atom        Fractional coordinates of atoms  x
            x                 Number           u          v          w      x
            x---------------------------------------------------------------x
            x  H                 1         0.402166   0.389669   0.000000   x
            x  H                 2        -0.402166   0.389669   0.500000   x
            x  H                 3         0.402166  -0.389669   0.500000   x
            x  H                 4        -0.402166  -0.389669   0.000000   x
            x  H                 5         0.372891  -0.000000   0.250000   x
            x  H                 6        -0.372891   0.000000   0.750000   x
            x  H                 7         0.372891   0.000000   0.750000   x
            x  H                 8        -0.372891   0.000000   0.250000   x
            x  H                 9         0.902166   0.889669   0.500000   x
            x  H                10        -0.902166   0.889669   0.000000   x
            x  H                11         0.902166  -0.889669   0.000000   x
            x  H                12        -0.902166  -0.889669   0.500000   x
            x  H                13         0.872891   0.500000   0.750000   x
            x  H                14        -0.872891   0.500000   0.250000   x
            x  H                15         0.872891   0.500000   0.250000   x
            x  H                16        -0.872891   0.500000   0.750000   x
            xxxxxxxxxxxxxxxxxxxxxxxxxxxxxxxxxxxxxxxxxxxxxxxxxxxxxxxxxxxxxxxxx


------------------------------------------------------------------------ <-- SCF
SCF loop      Energy                           Energy gain       Timer   <-- SCF
                                               per atom          (sec)   <-- SCF
------------------------------------------------------------------------ <-- SCF
Initial  -2.40123840E+002                                         64.36  <-- SCF
      1  -2.40200212E+002                    4.77322921E-003      64.84  <-- SCF
      2  -2.40200580E+002                    2.29793442E-005      65.69  <-- SCF
      3  -2.40194687E+002                   -3.68289064E-004      66.55  <-- SCF
      4  -2.40194532E+002                   -9.69989860E-006      67.40  <-- SCF
      5  -2.40194530E+002                   -9.46058661E-008      68.25  <-- SCF
      6  -2.40194530E+002                   -4.31925503E-010      69.13  <-- SCF
      7  -2.40194530E+002                    1.01834252E-010      69.87  <-- SCF
      8  -2.40194530E+002                    1.26341178E-011      70.53  <-- SCF
      9  -2.40194530E+002                    1.57095678E-013      71.21  <-- SCF
     10  -2.40194530E+002                    3.32317780E-014      71.88  <-- SCF
------------------------------------------------------------------------ <-- SCF
 
Final energy =  -240.1945304395     eV
(energy not corrected for finite basis set)
 

 ******************************** Symmetrised Forces ********************************
 *                                                                                  *
 *                           Cartesian components (eV/A)                            *
 * -------------------------------------------------------------------------------- *
 *                         x                    y                    z              *
 *                                                                                  *
 * H               1     -0.01968             -0.00761              0.00000         *
 * H               2      0.01968             -0.00761              0.00000         *
 * H               3     -0.01968              0.00761              0.00000         *
 * H               4      0.01968              0.00761              0.00000         *
 * H               5     -0.01781              0.00000              0.00000         *
 * H               6      0.01781              0.00000              0.00000         *
 * H               7     -0.01781              0.00000              0.00000         *
 * H               8      0.01781             -0.00000              0.00000         *
 * H               9     -0.01968             -0.00761              0.00000         *
 * H              10      0.01968             -0.00761              0.00000         *
 * H              11     -0.01968              0.00761              0.00000         *
 * H              12      0.01968              0.00761              0.00000         *
 * H              13     -0.01781              0.00000              0.00000         *
 * H              14      0.01781              0.00000              0.00000         *
 * H              15     -0.01781              0.00000              0.00000         *
 * H              16      0.01781              0.00000              0.00000         *
 *                                                                                  *
 ************************************************************************************

 *********** Symmetrised Stress Tensor ***********
 *                                               *
 *          Cartesian components (GPa)           *
 * --------------------------------------------- *
 *             x             y             z     *
 *                                               *
 *  x   -110.908437      0.000000      0.000000  *
 *  y      0.000000   -111.427801      0.000000  *
 *  z      0.000000      0.000000   -110.714582  *
 *                                               *
 *  Pressure:  111.0169                          *
 *                                               *
 *************************************************
  
 +------------+-------------+-------------+-----------------+ <-- min LBFGS
 |    Step    |   lambda    |   F.delta'  |    enthalpy     | <-- min LBFGS
 +------------+-------------+-------------+-----------------+ <-- min LBFGS
 |  previous  |    0.000000 |    0.038917 |     -216.311803 | <-- min LBFGS
 | trial step |    1.000000 |   -0.063835 |     -216.307360 | <-- min LBFGS
 |  line step |    0.378744 |    0.003801 |     -216.315370 | <-- min LBFGS
 +------------+-------------+-------------+-----------------+ <-- min LBFGS
  
 LBFGS: finished iteration     3 with enthalpy= -2.16315370E+002 eV
  
 +-----------+-----------------+-----------------+------------+-----+ <-- LBFGS
 | Parameter |      value      |    tolerance    |    units   | OK? | <-- LBFGS
 +-----------+-----------------+-----------------+------------+-----+ <-- LBFGS
 |  dE/ion   |   2.229541E-004 |   1.000000E-009 |         eV | No  | <-- LBFGS
 |  |F|max   |   2.109932E-002 |   1.000000E-005 |       eV/A | No  | <-- LBFGS
 |  |dR|max  |   5.452020E-003 |   1.000000E-005 |          A | No  | <-- LBFGS
 |   Smax    |   1.427801E+000 |   1.000000E-005 |        GPa | No  | <-- LBFGS
 +-----------+-----------------+-----------------+------------+-----+ <-- LBFGS
  

================================================================================
 Starting LBFGS iteration          4 ...
================================================================================
  
 +------------+-------------+-------------+-----------------+ <-- min LBFGS
 |    Step    |   lambda    |   F.delta'  |    enthalpy     | <-- min LBFGS
 +------------+-------------+-------------+-----------------+ <-- min LBFGS
 |  previous  |    0.000000 |    0.014328 |     -216.315370 | <-- min LBFGS
 +------------+-------------+-------------+-----------------+ <-- min LBFGS
  

--------------------------------------------------------------------------------
 LBFGS: starting iteration         4 with trial guess (lambda=  1.000000)
--------------------------------------------------------------------------------

                           -------------------------------
                                      Unit Cell
                           -------------------------------
        Real Lattice(A)              Reciprocal Lattice(1/A)
     3.0891253     0.0000000     0.0000000        2.033969056   0.000000000   0.000000000
    -0.0000000     1.9086738     0.0000000       -0.000000000   3.291911507   0.000000000
     0.0000000     0.0000000     5.9177974        0.000000000   0.000000000   1.061743898

                       Lattice parameters(A)       Cell Angles
                    a =      3.089125          alpha =   90.000000
                    b =      1.908674          beta  =   90.000000
                    c =      5.917797          gamma =   90.000000

                Current cell volume =            34.892118 A**3

                           -------------------------------
                                     Cell Contents
                           -------------------------------

            xxxxxxxxxxxxxxxxxxxxxxxxxxxxxxxxxxxxxxxxxxxxxxxxxxxxxxxxxxxxxxxxx
            x  Element         Atom        Fractional coordinates of atoms  x
            x                 Number           u          v          w      x
            x---------------------------------------------------------------x
            x  H                 1         0.402043   0.389894   0.000000   x
            x  H                 2        -0.402043   0.389894   0.500000   x
            x  H                 3         0.402043  -0.389894   0.500000   x
            x  H                 4        -0.402043  -0.389894   0.000000   x
            x  H                 5         0.372837   0.000000   0.250000   x
            x  H                 6        -0.372837   0.000000   0.750000   x
            x  H                 7         0.372837  -0.000000   0.750000   x
            x  H                 8        -0.372837   0.000000   0.250000   x
            x  H                 9         0.902043   0.889894   0.500000   x
            x  H                10        -0.902043   0.889894   0.000000   x
            x  H                11         0.902043  -0.889894   0.000000   x
            x  H                12        -0.902043  -0.889894   0.500000   x
            x  H                13         0.872837   0.500000   0.750000   x
            x  H                14        -0.872837   0.500000   0.250000   x
            x  H                15         0.872837   0.500000   0.250000   x
            x  H                16        -0.872837   0.500000   0.750000   x
            xxxxxxxxxxxxxxxxxxxxxxxxxxxxxxxxxxxxxxxxxxxxxxxxxxxxxxxxxxxxxxxxx


------------------------------------------------------------------------ <-- SCF
SCF loop      Energy                           Energy gain       Timer   <-- SCF
                                               per atom          (sec)   <-- SCF
------------------------------------------------------------------------ <-- SCF
Initial  -2.40270572E+002                                         74.58  <-- SCF
      1  -2.40271496E+002                    5.77761502E-005      75.02  <-- SCF
      2  -2.40271499E+002                    2.00231900E-007      75.86  <-- SCF
      3  -2.40271501E+002                    1.30517896E-007      76.70  <-- SCF
      4  -2.40271502E+002                    1.91509994E-008      77.54  <-- SCF
      5  -2.40271502E+002                    3.86971971E-010      78.33  <-- SCF
      6  -2.40271502E+002                    3.90110863E-011      78.99  <-- SCF
      7  -2.40271502E+002                   -3.02107073E-014      79.65  <-- SCF
      8  -2.40271502E+002                    4.32013114E-013      80.31  <-- SCF
------------------------------------------------------------------------ <-- SCF
 
Final energy =  -240.2715015916     eV
(energy not corrected for finite basis set)
 

 ******************************** Symmetrised Forces ********************************
 *                                                                                  *
 *                           Cartesian components (eV/A)                            *
 * -------------------------------------------------------------------------------- *
 *                         x                    y                    z              *
 *                                                                                  *
 * H               1     -0.00037              0.00531             -0.00000         *
 * H               2      0.00037              0.00531             -0.00000         *
 * H               3     -0.00037             -0.00531             -0.00000         *
 * H               4      0.00037             -0.00531             -0.00000         *
 * H               5      0.00330              0.00000             -0.00000         *
 * H               6     -0.00330              0.00000             -0.00000         *
 * H               7      0.00330              0.00000              0.00000         *
 * H               8     -0.00330              0.00000              0.00000         *
 * H               9     -0.00037              0.00531             -0.00000         *
 * H              10      0.00037              0.00531             -0.00000         *
 * H              11     -0.00037             -0.00531             -0.00000         *
 * H              12      0.00037             -0.00531             -0.00000         *
 * H              13      0.00330              0.00000             -0.00000         *
 * H              14     -0.00330             -0.00000              0.00000         *
 * H              15      0.00330              0.00000              0.00000         *
 * H              16     -0.00330             -0.00000             -0.00000         *
 *                                                                                  *
 ************************************************************************************

 *********** Symmetrised Stress Tensor ***********
 *                                               *
 *          Cartesian components (GPa)           *
 * --------------------------------------------- *
 *             x             y             z     *
 *                                               *
 *  x   -109.553538     -0.000000      0.000000  *
 *  y     -0.000000   -110.279760      0.000000  *
 *  z      0.000000      0.000000   -109.838793  *
 *                                               *
 *  Pressure:  109.8907                          *
 *                                               *
 *************************************************
  
 +------------+-------------+-------------+-----------------+ <-- min LBFGS
 |    Step    |   lambda    |   F.delta'  |    enthalpy     | <-- min LBFGS
 +------------+-------------+-------------+-----------------+ <-- min LBFGS
 |  previous  |    0.000000 |    0.014328 |     -216.315370 | <-- min LBFGS
 | trial step |    1.000000 |   -0.000124 |     -216.315749 | <-- min LBFGS
 +------------+-------------+-------------+-----------------+ <-- min LBFGS
  
 LBFGS: finished iteration     4 with enthalpy= -2.16315749E+002 eV
  
 +-----------+-----------------+-----------------+------------+-----+ <-- LBFGS
 | Parameter |      value      |    tolerance    |    units   | OK? | <-- LBFGS
 +-----------+-----------------+-----------------+------------+-----+ <-- LBFGS
 |  dE/ion   |   2.372795E-005 |   1.000000E-009 |         eV | No  | <-- LBFGS
 |  |F|max   |   5.325240E-003 |   1.000000E-005 |       eV/A | No  | <-- LBFGS
 |  |dR|max  |   5.738503E-004 |   1.000000E-005 |          A | No  | <-- LBFGS
 |   Smax    |   4.464621E-001 |   1.000000E-005 |        GPa | No  | <-- LBFGS
 +-----------+-----------------+-----------------+------------+-----+ <-- LBFGS
  

================================================================================
 Starting LBFGS iteration          5 ...
================================================================================
  
 +------------+-------------+-------------+-----------------+ <-- min LBFGS
 |    Step    |   lambda    |   F.delta'  |    enthalpy     | <-- min LBFGS
 +------------+-------------+-------------+-----------------+ <-- min LBFGS
 |  previous  |    0.000000 |    0.002941 |     -216.315749 | <-- min LBFGS
 +------------+-------------+-------------+-----------------+ <-- min LBFGS
  

--------------------------------------------------------------------------------
 LBFGS: starting iteration         5 with trial guess (lambda=  1.000000)
--------------------------------------------------------------------------------

                           -------------------------------
                                      Unit Cell
                           -------------------------------
        Real Lattice(A)              Reciprocal Lattice(1/A)
     3.0884973     0.0000000     0.0000000        2.034382653  -0.000000000   0.000000000
     0.0000000     1.9092550     0.0000000       -0.000000000   3.290909470   0.000000000
     0.0000000     0.0000000     5.9175719        0.000000000   0.000000000   1.061784360

                       Lattice parameters(A)       Cell Angles
                    a =      3.088497          alpha =   90.000000
                    b =      1.909255          beta  =   90.000000
                    c =      5.917572          gamma =   90.000000

                Current cell volume =            34.894317 A**3

                           -------------------------------
                                     Cell Contents
                           -------------------------------

            xxxxxxxxxxxxxxxxxxxxxxxxxxxxxxxxxxxxxxxxxxxxxxxxxxxxxxxxxxxxxxxxx
            x  Element         Atom        Fractional coordinates of atoms  x
            x                 Number           u          v          w      x
            x---------------------------------------------------------------x
            x  H                 1         0.401949   0.390104   0.000000   x
            x  H                 2        -0.401949   0.390104   0.500000   x
            x  H                 3         0.401949  -0.390104   0.500000   x
            x  H                 4        -0.401949  -0.390104   0.000000   x
            x  H                 5         0.372873   0.000000   0.250000   x
            x  H                 6        -0.372873   0.000000   0.750000   x
            x  H                 7         0.372873  -0.000000   0.750000   x
            x  H                 8        -0.372873   0.000000   0.250000   x
            x  H                 9         0.901949   0.890104   0.500000   x
            x  H                10        -0.901949   0.890104   0.000000   x
            x  H                11         0.901949  -0.890104   0.000000   x
            x  H                12        -0.901949  -0.890104   0.500000   x
            x  H                13         0.872873   0.500000   0.750000   x
            x  H                14        -0.872873   0.500000   0.250000   x
            x  H                15         0.872873   0.500000   0.250000   x
[...]
            x---------------------------------------------------------------x
            x  H                 1         0.400518   0.393269   0.000000   x
            x  H                 2        -0.400518   0.393269   0.500000   x
            x  H                 3         0.400518  -0.393269   0.500000   x
            x  H                 4        -0.400518  -0.393269   0.000000   x
            x  H                 5         0.373001   0.000000   0.250000   x
            x  H                 6        -0.373001   0.000000   0.750000   x
            x  H                 7         0.373001  -0.000000   0.750000   x
            x  H                 8        -0.373001   0.000000   0.250000   x
            x  H                 9         0.900518   0.893269   0.500000   x
            x  H                10        -0.900518   0.893269   0.000000   x
            x  H                11         0.900518  -0.893269   0.000000   x
            x  H                12        -0.900518  -0.893269   0.500000   x
            x  H                13         0.873001   0.500000   0.750000   x
            x  H                14        -0.873001   0.500000   0.250000   x
            x  H                15         0.873001   0.500000   0.250000   x
            x  H                16        -0.873001   0.500000   0.750000   x
            xxxxxxxxxxxxxxxxxxxxxxxxxxxxxxxxxxxxxxxxxxxxxxxxxxxxxxxxxxxxxxxxx


------------------------------------------------------------------------ <-- SCF
SCF loop      Energy                           Energy gain       Timer   <-- SCF
                                               per atom          (sec)   <-- SCF
------------------------------------------------------------------------ <-- SCF
Initial  -2.40270951E+002                                        181.91  <-- SCF
      1  -2.40270951E+002                    1.93348527E-013     182.20  <-- SCF
      2  -2.40270951E+002                    2.11474951E-014     182.87  <-- SCF
      3  -2.40270951E+002                    9.63721563E-013     183.54  <-- SCF
      4  -2.40270951E+002                   -1.60116749E-013     184.21  <-- SCF
------------------------------------------------------------------------ <-- SCF
 
Final energy =  -240.2709511917     eV
(energy not corrected for finite basis set)
 

 ******************************** Symmetrised Forces ********************************
 *                                                                                  *
 *                           Cartesian components (eV/A)                            *
 * -------------------------------------------------------------------------------- *
 *                         x                    y                    z              *
 *                                                                                  *
 * H               1      0.00000              0.00000              0.00000         *
 * H               2     -0.00000              0.00000              0.00000         *
 * H               3      0.00000             -0.00000              0.00000         *
 * H               4     -0.00000             -0.00000              0.00000         *
 * H               5     -0.00000              0.00000             -0.00000         *
 * H               6      0.00000              0.00000             -0.00000         *
 * H               7     -0.00000              0.00000             -0.00000         *
 * H               8      0.00000              0.00000              0.00000         *
 * H               9      0.00000              0.00000              0.00000         *
 * H              10     -0.00000              0.00000              0.00000         *
 * H              11      0.00000             -0.00000              0.00000         *
 * H              12     -0.00000             -0.00000              0.00000         *
 * H              13     -0.00000              0.00000             -0.00000         *
 * H              14      0.00000              0.00000             -0.00000         *
 * H              15     -0.00000              0.00000             -0.00000         *
 * H              16      0.00000              0.00000             -0.00000         *
 *                                                                                  *
 ************************************************************************************

 *********** Symmetrised Stress Tensor ***********
 *                                               *
 *          Cartesian components (GPa)           *
 * --------------------------------------------- *
 *             x             y             z     *
 *                                               *
 *  x   -110.000003     -0.000000      0.000000  *
 *  y     -0.000000   -109.999996      0.000000  *
 *  z      0.000000      0.000000   -110.000000  *
 *                                               *
 *  Pressure:  110.0000                          *
 *                                               *
 *************************************************
  
 +------------+-------------+-------------+-----------------+ <-- min LBFGS
 |    Step    |   lambda    |   F.delta'  |    enthalpy     | <-- min LBFGS
 +------------+-------------+-------------+-----------------+ <-- min LBFGS
 |  previous  |    0.000000 |  8.371E-008 |     -216.315967 | <-- min LBFGS
 | trial step |    1.000000 |  3.759E-008 |     -216.315967 | <-- min LBFGS
 +------------+-------------+-------------+-----------------+ <-- min LBFGS
  
 LBFGS: finished iteration    13 with enthalpy= -2.16315967E+002 eV
  
 +-----------+-----------------+-----------------+------------+-----+ <-- LBFGS
 | Parameter |      value      |    tolerance    |    units   | OK? | <-- LBFGS
 +-----------+-----------------+-----------------+------------+-----+ <-- LBFGS
 |  dE/ion   |   6.449986E-013 |   1.000000E-009 |         eV | Yes | <-- LBFGS
 |  |F|max   |   8.674197E-007 |   1.000000E-005 |       eV/A | Yes | <-- LBFGS
 |  |dR|max  |   1.124531E-007 |   1.000000E-005 |          A | Yes | <-- LBFGS
 |   Smax    |   4.397624E-006 |   1.000000E-005 |        GPa | Yes | <-- LBFGS
 +-----------+-----------------+-----------------+------------+-----+ <-- LBFGS
  
 LBFGS: Geometry optimization completed successfully.

================================================================================
 LBFGS: Final Configuration:
================================================================================

                           -------------------------------
                                      Unit Cell
                           -------------------------------
        Real Lattice(A)              Reciprocal Lattice(1/A)
     3.0872148    -0.0000000     0.0000000        2.035227752   0.000000000   0.000000000
    -0.0000000     1.9110931     0.0000000        0.000000000   3.287744227   0.000000000
     0.0000000     0.0000000     5.9137696        0.000000000   0.000000000   1.062467043

                       Lattice parameters(A)       Cell Angles
                    a =      3.087215          alpha =   90.000000
                    b =      1.911093          beta  =   90.000000
                    c =      5.913770          gamma =   90.000000

                Current cell volume =            34.890974 A**3

                           -------------------------------
                                     Cell Contents
                           -------------------------------

            xxxxxxxxxxxxxxxxxxxxxxxxxxxxxxxxxxxxxxxxxxxxxxxxxxxxxxxxxxxxxxxxx
            x  Element         Atom        Fractional coordinates of atoms  x
            x                 Number           u          v          w      x
            x---------------------------------------------------------------x
            x  H                 1         0.400518   0.393269   0.000000   x
            x  H                 2        -0.400518   0.393269   0.500000   x
            x  H                 3         0.400518  -0.393269   0.500000   x
            x  H                 4        -0.400518  -0.393269   0.000000   x
            x  H                 5         0.373001   0.000000   0.250000   x
            x  H                 6        -0.373001   0.000000   0.750000   x
            x  H                 7         0.373001  -0.000000   0.750000   x
            x  H                 8        -0.373001   0.000000   0.250000   x
            x  H                 9         0.900518   0.893269   0.500000   x
            x  H                10        -0.900518   0.893269   0.000000   x
            x  H                11         0.900518  -0.893269   0.000000   x
            x  H                12        -0.900518  -0.893269   0.500000   x
            x  H                13         0.873001   0.500000   0.750000   x
            x  H                14        -0.873001   0.500000   0.250000   x
            x  H                15         0.873001   0.500000   0.250000   x
            x  H                16        -0.873001   0.500000   0.750000   x
            xxxxxxxxxxxxxxxxxxxxxxxxxxxxxxxxxxxxxxxxxxxxxxxxxxxxxxxxxxxxxxxxx


 LBFGS: Final Enthalpy     = -2.16315967E+002 eV
 LBFGS: Final <frequency>  =     369.82599 cm-1
 LBFGS: Final bulk modulus =     242.10472 GPa

 ******************************** Symmetrised Forces ********************************
 *                                                                                  *
 *                           Cartesian components (eV/A)                            *
 * -------------------------------------------------------------------------------- *
 *                         x                    y                    z              *
 *                                                                                  *
 * H               1      0.00000              0.00000              0.00000         *
 * H               2     -0.00000              0.00000              0.00000         *
 * H               3      0.00000             -0.00000              0.00000         *
 * H               4     -0.00000             -0.00000              0.00000         *
 * H               5     -0.00000              0.00000             -0.00000         *
 * H               6      0.00000              0.00000             -0.00000         *
 * H               7     -0.00000              0.00000             -0.00000         *
 * H               8      0.00000              0.00000              0.00000         *
 * H               9      0.00000              0.00000              0.00000         *
 * H              10     -0.00000              0.00000              0.00000         *
 * H              11      0.00000             -0.00000              0.00000         *
 * H              12     -0.00000             -0.00000              0.00000         *
 * H              13     -0.00000              0.00000             -0.00000         *
 * H              14      0.00000              0.00000             -0.00000         *
 * H              15     -0.00000              0.00000             -0.00000         *
 * H              16      0.00000              0.00000             -0.00000         *
 *                                                                                  *
 ************************************************************************************

 *********** Symmetrised Stress Tensor ***********
 *                                               *
 *          Cartesian components (GPa)           *
 * --------------------------------------------- *
 *             x             y             z     *
 *                                               *
 *  x   -110.000003     -0.000000      0.000000  *
 *  y     -0.000000   -109.999996      0.000000  *
 *  z      0.000000      0.000000   -110.000000  *
 *                                               *
 *  Pressure:  110.0000                          *
 *                                               *
 *************************************************

 Pseudo atomic calculation performed for H 1s1

 Converged in 24 iterations to a total energy of -12.4843 eV

Charge spilling parameter for spin component 1 = 0.54%

            Orbital Populations       
     Ion    Atom   Orbital             Charge
  -------------------------------------------
      H     1      S                    1.003
      H     2      S                    1.003
      H     3      S                    1.003
      H     4      S                    1.003
      H     5      S                    0.997
      H     6      S                    0.997
      H     7      S                    0.997
      H     8      S                    0.997
      H     9      S                    1.003
      H    10      S                    1.003
      H    11      S                    1.003
      H    12      S                    1.003
      H    13      S                    0.997
      H    14      S                    0.997
      H    15      S                    0.997
      H    16      S                    0.997
  -------------------------------------------
                           Total:      16.000
  -------------------------------------------

     Atomic Populations (Mulliken)
     -----------------------------
Species          Ion     s      p      d      f     Total  Charge (e)
=====================================================================
  H               1     1.00   0.00   0.00   0.00   1.00    -0.00
  H               2     1.00   0.00   0.00   0.00   1.00    -0.00
  H               3     1.00   0.00   0.00   0.00   1.00    -0.00
  H               4     1.00   0.00   0.00   0.00   1.00    -0.00
  H               5     1.00   0.00   0.00   0.00   1.00     0.00
  H               6     1.00   0.00   0.00   0.00   1.00     0.00
  H               7     1.00   0.00   0.00   0.00   1.00     0.00
  H               8     1.00   0.00   0.00   0.00   1.00     0.00
  H               9     1.00   0.00   0.00   0.00   1.00    -0.00
  H              10     1.00   0.00   0.00   0.00   1.00    -0.00
  H              11     1.00   0.00   0.00   0.00   1.00    -0.00
  H              12     1.00   0.00   0.00   0.00   1.00    -0.00
  H              13     1.00   0.00   0.00   0.00   1.00     0.00
  H              14     1.00   0.00   0.00   0.00   1.00     0.00
  H              15     1.00   0.00   0.00   0.00   1.00     0.00
  H              16     1.00   0.00   0.00   0.00   1.00     0.00
=====================================================================

                 Bond                   Population      Length (A)
======================================================================
              H 10 -- H 11                   1.36        0.73737
              H 9  -- H 12                   1.36        0.73737
              H 2  -- H 3                    1.36        0.73737
              H 1  -- H 4                    1.36        0.73737
              H 6  -- H 7                    0.94        0.78415
              H 5  -- H 8                    0.94        0.78415
              H 14 -- H 15                   0.94        0.78415
              H 13 -- H 16                   0.94        0.78415
              H 7  -- H 16                   0.27        1.22059
              H 5  -- H 14                   0.27        1.22059
              H 8  -- H 15                   0.27        1.22059
              H 6  -- H 13                   0.27        1.22059
              H 4  -- H 11                  -0.19        1.33296
              H 2  -- H 9                   -0.19        1.33296
              H 3  -- H 12                  -0.19        1.33296
              H 1  -- H 10                  -0.19        1.33296
              H 4  -- H 10                  -0.52        1.63786
              H 3  -- H 9                   -0.52        1.63786
              H 2  -- H 12                  -0.52        1.63786
              H 1  -- H 11                  -0.52        1.63786
              H 4  -- H 6                   -0.12        1.66068
              H 3  -- H 5                   -0.12        1.66068
              H 2  -- H 8                   -0.12        1.66068
              H 1  -- H 7                   -0.12        1.66068
              H 4  -- H 8                   -0.12        1.66068
              H 3  -- H 7                   -0.12        1.66068
              H 2  -- H 6                   -0.12        1.66068
              H 1  -- H 5                   -0.12        1.66068
              H 12 -- H 14                  -0.12        1.66068
              H 11 -- H 13                  -0.12        1.66068
              H 12 -- H 16                  -0.12        1.66068
              H 11 -- H 15                  -0.12        1.66068
              H 10 -- H 16                  -0.12        1.66068
              H 9  -- H 15                  -0.12        1.66068
              H 10 -- H 14                  -0.12        1.66068
              H 9  -- H 13                  -0.12        1.66068
              H 8  -- H 11                  -0.04        1.71477
              H 8  -- H 9                   -0.04        1.71477
              H 7  -- H 12                  -0.04        1.71477
              H 7  -- H 10                  -0.04        1.71477
              H 6  -- H 11                  -0.04        1.71477
              H 6  -- H 9                   -0.04        1.71477
              H 5  -- H 12                  -0.04        1.71477
              H 5  -- H 10                  -0.04        1.71477
              H 4  -- H 13                  -0.04        1.71477
              H 3  -- H 14                  -0.04        1.71477
              H 2  -- H 15                  -0.04        1.71477
              H 1  -- H 16                  -0.04        1.71477
              H 4  -- H 15                  -0.04        1.71477
              H 3  -- H 16                  -0.04        1.71477
              H 2  -- H 13                  -0.04        1.71477
              H 1  -- H 14                  -0.04        1.71477
              H 4  -- H 7                   -0.19        1.79987
              H 3  -- H 8                   -0.19        1.79987
              H 2  -- H 5                   -0.19        1.79987
              H 1  -- H 6                   -0.19        1.79987
              H 4  -- H 5                   -0.19        1.79987
              H 3  -- H 6                   -0.19        1.79987
              H 2  -- H 7                   -0.19        1.79987
              H 1  -- H 8                   -0.19        1.79987
              H 12 -- H 15                  -0.19        1.79987
              H 12 -- H 13                  -0.19        1.79987
              H 11 -- H 16                  -0.19        1.79987
              H 11 -- H 14                  -0.19        1.79987
              H 10 -- H 13                  -0.19        1.79987
              H 9  -- H 14                  -0.19        1.79987
              H 10 -- H 15                  -0.19        1.79987
              H 9  -- H 16                  -0.19        1.79987
              H 8  -- H 14                  -0.58        1.81543
              H 7  -- H 13                  -0.58        1.81543
              H 6  -- H 16                  -0.58        1.81543
              H 5  -- H 15                  -0.58        1.81543
======================================================================


Writing analysis data to Hibam.castep_bin

Writing model to Hibam.check
 
 A BibTeX formatted list of references used in this run has been written to 
 Hibam.bib
 
Initialisation time =      2.99 s
Calculation time    =    184.79 s
Finalisation time   =      0.84 s
Total time          =    188.63 s
Peak Memory Use     = 572556 kB
  
Overall parallel efficiency rating: Very good (82%)                             
  
Data was distributed by:-
k-point (32-way); efficiency rating: Very good (83%)                            
  
Parallel notes:
1) Calculation only took 187.8 s, so efficiency estimates may be inaccurate.    
