 +-------------------------------------------------+
 |                                                 |
 |      CCC   AA    SSS  TTTTT  EEEEE  PPPP        |
 |     C     A  A  S       T    E      P   P       |
 |     C     AAAA   SS     T    EEE    PPPP        |
 |     C     A  A     S    T    E      P           |
 |      CCC  A  A  SSS     T    EEEEE  P           |
 |                                                 |
 +-------------------------------------------------+
 |                                                 |
 | Welcome to Academic Release CASTEP version 18.1 |          
 | Ab Initio Total Energy Program                  |
 |                                                 |
 | Authors:                                        |
 | M. Segall, M. Probert, C. Pickard, P. Hasnip,   |
 | S. Clark, K. Refson, J. R. Yates, M. Payne      |
 |                                                 |
 | Contributors:                                   |
 | P. Lindan, P. Haynes, J. White, V. Milman,      |
 | N. Govind, M. Gibson, P. Tulip, V. Cocula,      |
 | B. Montanari, D. Quigley, M. Glover,            |
 | L. Bernasconi, A. Perlov, M. Plummer,           |
 | E. McNellis, J. Meyer, J. Gale, D. Jochym       |
 | J. Aarons, B. Walker, R. Gillen, D. Jones       |
 | T. Green, I. J. Bush, C. J. Armstrong,          |
 | E. J. Higgins, E. L. Brown, M. S. McFly,        |
 | J. Wilkins, B-C. Shih, P. J. P. Byrne           |
 |                                                 |
 | Copyright (c) 2000 - 2017                       |
 |                                                 |
 |     Distributed under the terms of an           |
 |     Agreement between the United Kingdom        |
 |     Car-Parrinello (UKCP) Consortium,           |
 |     Daresbury Laboratory and Accelrys, Inc.     |
 |                                                 |
 | Please cite                                     |
 |                                                 |
 |     "First principles methods using CASTEP"     |
 |                                                 |
 |         Zeitschrift fuer Kristallographie       |
 |           220(5-6) pp. 567-570 (2005)           |
 |                                                 |
 | S. J. Clark, M. D. Segall, C. J. Pickard,       |
 | P. J. Hasnip, M. J. Probert, K. Refson,         |
 | M. C. Payne                                     |
 |                                                 |
 |       in all publications arising from          |
 |              your use of CASTEP                 |
 |                                                 |
 +-------------------------------------------------+


 Compiled for linux_x86_64_gfortran4.8 on Thu, 19 Jul 2018 15:42:32 +0100
 from code version 70483bd0ad64+  Sun, 10 Dec 2017 12:18:29 +0000
 Compiler: GNU Fortran 4.8.5; Optimisation: fast
 MATHLIBS: Intel MKL(2018.0.0) (LAPACK version 3.7.0)
 FFT Lib : mkl
 Fundamental constants values: CODATA 2014

 Run started: Wed, 26 Aug 2020 13:19:46 +0100

 Atomic calculation performed for H: 1s1

 Converged in 41 iterations to an ae energy of -12.488 eV

   ============================================================                
   | Pseudopotential Report - Date of generation 26-08-2020   |                
   ------------------------------------------------------------                
   | Element: H Ionic charge:  1.00 Level of theory: PBE      |                
   | Atomic Solver: Koelling-Harmon                           |                
   |                                                          |                
   |               Reference Electronic Structure             |                
   |         Orbital         Occupation         Energy        |                
   |            1s              1.000           -0.239        |                
   |                                                          |                
   |                 Pseudopotential Definition               |                
   |        Beta     l      e      Rc     scheme   norm       |                
   |         loc     0   -0.239   0.702     qc      1         |                
   |                                                          |                
   | No charge augmentation                                   |                
   | No partial core correction                               |                
   ------------------------------------------------------------                
   | "0|0.7|2|6|8|10L(qc=10)"                                 |                
   ------------------------------------------------------------                
   |      Author: Chris J. Pickard, Cambridge University      |                
   ============================================================                

 Pseudo atomic calculation performed for H 1s1

 Converged in 24 iterations to a total energy of -12.4843 eV

 Calculation parallelised over 32 processes.
 Data is distributed by k-point(32-way)

 ************************************ Title ************************************
 

 ***************************** General Parameters ******************************
  
 output verbosity                               : normal  (1)
 write checkpoint data to                       : Hibam.check
 type of calculation                            : geometry optimization
 stress calculation                             : on
 density difference calculation                 : off
 electron localisation func (ELF) calculation   : off
 Hirshfeld analysis                             : off
 unlimited duration calculation
 timing information                             : on
 memory usage estimate                          : on
 write extra output files                       : on
 write final potential to formatted file        : off
 write final density to formatted file          : off
 write structure in CELL formatted file         : on
 write BibTeX reference list                    : on
 write OTFG pseudopotential files               : on
 write electrostatic potential file             : on
 write bands file                               : on
 checkpoint writing                             : both castep_bin and check files
  
 output         length unit                     : A
 output           mass unit                     : amu
 output           time unit                     : ps
 output         charge unit                     : e
 output           spin unit                     : hbar/2
 output         energy unit                     : eV
 output          force unit                     : eV/A
 output       velocity unit                     : A/ps
 output       pressure unit                     : GPa
 output     inv_length unit                     : 1/A
 output      frequency unit                     : cm-1
 output force constant unit                     : eV/A**2
 output         volume unit                     : A**3
 output   IR intensity unit                     : (D/A)**2/amu
 output         dipole unit                     : D
 output         efield unit                     : eV/A/e
 output        entropy unit                     : J/mol/K
  
 wavefunctions paging                           : none
 random number generator seed                   : randomised (131946921)
 data distribution                              : optimal for this architecture
 optimization strategy                          : maximize speed(+++)

 *********************** Exchange-Correlation Parameters ***********************
  
 using functional                               : Perdew Burke Ernzerhof
 relativistic treatment                         : Koelling-Harmon
 DFT+D: Semi-empirical dispersion correction    : off

 ************************* Pseudopotential Parameters **************************
  
 pseudopotential representation                 : reciprocal space
 <beta|phi> representation                      : reciprocal space
 spin-orbit coupling                            : off

 **************************** Basis Set Parameters *****************************
  
 plane wave basis set cut-off                   :  1200.0000   eV
 size of standard grid                          :     2.0000
 size of   fine   gmax                          :    35.4943   1/A
 finite basis set correction                    : automatic
 number of sample energies                      :          3
           sample  spacing                      :     5.0000   eV

 **************************** Electronic Parameters ****************************
  
 number of  electrons                           :  16.00    
 net charge of system                           :  0.000    
 treating system as non-spin-polarized
 number of bands                                :          8

 ********************* Electronic Minimization Parameters **********************
  
 Method: Treating system as non-metallic,
         and number of  SD  steps               :          1
         and number of  CG  steps               :          4
  
 total energy / atom convergence tol.           : 0.1000E-10   eV
 eigen-energy convergence tolerance             : 0.2000E-10   eV
 max force / atom convergence tol.              : ignored
 convergence tolerance window                   :          3   cycles
 max. number of SCF cycles                      :        100
 periodic dipole correction                     : NONE

 ************************** Density Mixing Parameters **************************
  
 density-mixing scheme                          : Broyden
 max. length of mixing history                  :         20
 charge density mixing amplitude                : 0.8000    
 cut-off energy for mixing                      :  1200.       eV

 *********************** Population Analysis Parameters ************************
  
 Population analysis with cutoff                :  3.000       A
 Population analysis output                     : summary and pdos components

 ********************** Geometry Optimization Parameters ***********************
  
 optimization method                            : LBFGS
 max. no. of LBFGS updates                      : unbounded
 variable cell method                           : fixed basis quality
 max. number of steps                           :         60
 estimated bulk modulus                         :  500.0       GPa
 estimated <frequency>                          :  1668.       cm-1
 geom line minimiser                            : on
 with line minimiser tolerance                  :     0.4000
 total energy convergence tolerance             : 0.1000E-08   eV/atom
        max ionic |force| tolerance             : 0.1000E-04   eV/A
 max ionic |displacement| tolerance             : 0.1000E-04   A
   max |stress component| tolerance             : 0.1000E-04   GPa
 convergence tolerance window                   :          2   steps
 backup results every                           :      14400   seconds
 write geom trajectory file                     : on

 *******************************************************************************
  

                           -------------------------------
                                      Unit Cell
                           -------------------------------
        Real Lattice(A)                      Reciprocal Lattice(1/A)
     3.0001952     0.0000000     0.0000000        2.094258802  -0.000000000   0.000000000
     0.0000000     1.8383839     0.0000000       -0.000000000   3.417776458   0.000000000
     0.0000000     0.0000000     5.7144202        0.000000000   0.000000000   1.099531559

                       Lattice parameters(A)       Cell Angles
                    a =      3.000195          alpha =   90.000000
                    b =      1.838384          beta  =   90.000000
                    c =      5.714420          gamma =   90.000000

                       Current cell volume =            31.517946       A**3
                                   density =             0.511678   AMU/A**3
                                           =             0.849661     g/cm^3

                           -------------------------------
                                     Cell Contents
                           -------------------------------
                         Total number of ions in cell =   16
                      Total number of species in cell =    1
                        Max number of any one species =   16

            xxxxxxxxxxxxxxxxxxxxxxxxxxxxxxxxxxxxxxxxxxxxxxxxxxxxxxxxxxxx
            x  Element    Atom        Fractional coordinates of atoms  x
            x            Number           u          v          w      x
            x----------------------------------------------------------x
            x  H            1         0.403797   0.377165   0.000000   x 
            x  H            2        -0.403797   0.377165   0.500000   x 
            x  H            3         0.403797  -0.377165   0.500000   x 
            x  H            4        -0.403797  -0.377165   0.000000   x 
            x  H            5         0.362929   0.000000   0.250000   x 
            x  H            6        -0.362929  -0.000000   0.750000   x 
            x  H            7         0.362929   0.000000   0.750000   x 
            x  H            8        -0.362929  -0.000000   0.250000   x 
            x  H            9         0.903797   0.877165   0.500000   x 
            x  H           10        -0.903797   0.877165   0.000000   x 
            x  H           11         0.903797  -0.877165   0.000000   x 
            x  H           12        -0.903797  -0.877165   0.500000   x 
            x  H           13         0.862929   0.500000   0.750000   x 
            x  H           14        -0.862929   0.500000   0.250000   x 
            x  H           15         0.862929   0.500000   0.250000   x 
            x  H           16        -0.862929   0.500000   0.750000   x 
            xxxxxxxxxxxxxxxxxxxxxxxxxxxxxxxxxxxxxxxxxxxxxxxxxxxxxxxxxxxx


                         No user defined ionic velocities

                           -------------------------------
                                   Details of Species
                           -------------------------------

                               Mass of species in AMU
                                    H    1.0079400

                          Electric Quadrupole Moment (Barn)
                                    H    0.0028600 Isotope  2

                          Files used for pseudopotentials:
                                    H 0|0.7|2|6|8|10L(qc=10)

                           -------------------------------
                              k-Points For BZ Sampling
                           -------------------------------
                       MP grid size for SCF calculation is  8  8  8
                            with an offset of   0.000  0.000  0.000
                       Number of kpoints used =            64

                           -------------------------------
                               Symmetry and Constraints
                           -------------------------------

                      Cell is a supercell containing 2 primitive cells
                      Maximum deviation from symmetry = 0.333089E-14     ANG

                      Number of symmetry operations   =          16
                      Number of ionic constraints     =           3
                      Point group of crystal =     8: D2h, mmm, 2/m 2/m 2/m
                      Space group of crystal =    72: Ibam, -I 2 2c

             Set iprint > 1 for details on symmetry rotations/translations

                         Centre of mass is constrained
             Set iprint > 1 for details of linear ionic constraints

                         Number of cell constraints= 3
                         Cell constraints are:  1 2 3 0 0 0

                         External pressure/stress (GPa)
                        130.00000   0.00000   0.00000
                                  130.00000   0.00000
                                            130.00000
  
+---------------- MEMORY AND SCRATCH DISK ESTIMATES PER PROCESS --------------+
|                                                     Memory          Disk    |
| Baseline code, static data and system overhead      479.0 MB         0.0 MB |
| BLAS internal memory storage                          0.0 MB         0.0 MB |
| Model and support data                               36.6 MB         0.0 MB |
| Electronic energy minimisation requirements          14.4 MB         0.0 MB |
| Force calculation requirements                        7.1 MB         0.0 MB |
| Stress calculation requirements                       9.0 MB         0.0 MB |
|                                               ----------------------------- |
| Approx. total storage required per process          530.1 MB         0.0 MB |
|                                                                             |
| Requirements will fluctuate during execution and may exceed these estimates |
+-----------------------------------------------------------------------------+
Calculating finite basis set correction with  3 cut-off energies.
Calculating total energy with cut-off of 1190.000 eV.
------------------------------------------------------------------------ <-- SCF
SCF loop      Energy                           Energy gain       Timer   <-- SCF
                                               per atom          (sec)   <-- SCF
------------------------------------------------------------------------ <-- SCF
Initial   3.80226294E+002                                          3.96  <-- SCF
      1  -1.98483044E+002                    3.61693336E+001       4.51  <-- SCF
      2  -2.37465429E+002                    2.43639908E+000       4.92  <-- SCF
      3  -2.37666913E+002                    1.25927283E-002       5.74  <-- SCF
      4  -2.37655505E+002                   -7.13005881E-004       6.71  <-- SCF
      5  -2.37655987E+002                    3.01773428E-005       7.55  <-- SCF
      6  -2.37656029E+002                    2.58238706E-006       8.38  <-- SCF
      7  -2.37656029E+002                    2.95847868E-008       9.22  <-- SCF
      8  -2.37656029E+002                    1.02470792E-009      10.06  <-- SCF
      9  -2.37656029E+002                    9.44688817E-012      10.74  <-- SCF
     10  -2.37656029E+002                    9.81847987E-013      11.41  <-- SCF
     11  -2.37656029E+002                    8.45899804E-013      12.08  <-- SCF
------------------------------------------------------------------------ <-- SCF
 
Final energy =  -237.6560291702     eV
(energy not corrected for finite basis set)
 
Calculating total energy with cut-off of 1195.000 eV.
------------------------------------------------------------------------ <-- SCF
SCF loop      Energy                           Energy gain       Timer   <-- SCF
                                               per atom          (sec)   <-- SCF
------------------------------------------------------------------------ <-- SCF
Initial  -2.37656029E+002                                         12.81  <-- SCF
      1  -2.37657241E+002                    7.57449358E-005      13.26  <-- SCF
      2  -2.37657241E+002                    1.22631303E-010      14.07  <-- SCF
      3  -2.37657242E+002                    2.83024570E-008      14.88  <-- SCF
      4  -2.37657242E+002                    1.38907624E-009      15.71  <-- SCF
      5  -2.37657242E+002                    7.20525369E-012      16.38  <-- SCF
      6  -2.37657242E+002                    2.65854224E-013      17.04  <-- SCF
------------------------------------------------------------------------ <-- SCF
 
Final energy =  -237.6572415663     eV
(energy not corrected for finite basis set)
 
Calculating total energy with cut-off of 1200.000 eV.
------------------------------------------------------------------------ <-- SCF
SCF loop      Energy                           Energy gain       Timer   <-- SCF
                                               per atom          (sec)   <-- SCF
------------------------------------------------------------------------ <-- SCF
Initial  -2.37657242E+002                                         17.76  <-- SCF
      1  -2.37658437E+002                    7.47267718E-005      18.21  <-- SCF
      2  -2.37658437E+002                    1.22008962E-010      19.04  <-- SCF
      3  -2.37658438E+002                    2.82332655E-008      19.86  <-- SCF
      4  -2.37658438E+002                    1.39623013E-009      20.68  <-- SCF
      5  -2.37658438E+002                    7.03003159E-012      21.35  <-- SCF
      6  -2.37658438E+002                   -1.45011395E-013      22.02  <-- SCF
------------------------------------------------------------------------ <-- SCF
 
Final energy =  -237.6584376708     eV
(energy not corrected for finite basis set)
 
 For future reference: finite basis dEtot/dlog(Ecut) =      -0.287687eV
 Total energy corrected for finite basis set =    -237.658455 eV
 
+---------------- MEMORY AND SCRATCH DISK ESTIMATES PER PROCESS --------------+
|                                                     Memory          Disk    |
| Model and support data                               44.8 MB         0.0 MB |
| Electronic energy minimisation requirements          14.4 MB         0.0 MB |
| Geometry minimisation requirements                   16.2 MB         0.0 MB |
|                                               ----------------------------- |
| Approx. total storage required per process           75.4 MB         0.0 MB |
|                                                                             |
| Requirements will fluctuate during execution and may exceed these estimates |
+-----------------------------------------------------------------------------+
 

 ******************************** Symmetrised Forces ********************************
 *                                                                                  *
 *                           Cartesian components (eV/A)                            *
 * -------------------------------------------------------------------------------- *
 *                         x                    y                    z              *
 *                                                                                  *
 * H               1     -0.00000             -0.00000             -0.00000         *
 * H               2      0.00000             -0.00000             -0.00000         *
 * H               3     -0.00000              0.00000             -0.00000         *
 * H               4      0.00000              0.00000             -0.00000         *
 * H               5     -0.00000             -0.00000              0.00000         *
 * H               6      0.00000             -0.00000             -0.00000         *
 * H               7     -0.00000              0.00000             -0.00000         *
 * H               8      0.00000             -0.00000              0.00000         *
 * H               9     -0.00000             -0.00000             -0.00000         *
 * H              10      0.00000             -0.00000             -0.00000         *
 * H              11     -0.00000              0.00000             -0.00000         *
 * H              12      0.00000              0.00000             -0.00000         *
 * H              13     -0.00000             -0.00000             -0.00000         *
 * H              14      0.00000              0.00000             -0.00000         *
 * H              15     -0.00000             -0.00000              0.00000         *
 * H              16      0.00000             -0.00000              0.00000         *
 *                                                                                  *
 ************************************************************************************

 *********** Symmetrised Stress Tensor ***********
 *                                               *
 *          Cartesian components (GPa)           *
 * --------------------------------------------- *
 *             x             y             z     *
 *                                               *
 *  x   -139.998264      0.000000      0.000000  *
 *  y      0.000000   -139.998243      0.000000  *
 *  z      0.000000      0.000000   -139.998245  *
 *                                               *
 *  Pressure:  139.9983                          *
 *                                               *
 *************************************************
 LBFGS: finished iteration     0 with enthalpy= -2.12084914E+002 eV
  
 +-----------+-----------------+-----------------+------------+-----+ <-- LBFGS
 | Parameter |      value      |    tolerance    |    units   | OK? | <-- LBFGS
 +-----------+-----------------+-----------------+------------+-----+ <-- LBFGS
 |  dE/ion   |   0.000000E+000 |   1.000000E-009 |         eV | No  | <-- LBFGS
 |  |F|max   |   5.936142E-007 |   1.000000E-005 |       eV/A | Yes | <-- LBFGS
 |  |dR|max  |   0.000000E+000 |   1.000000E-005 |          A | No  | <-- LBFGS
 |   Smax    |   9.998264E+000 |   1.000000E-005 |        GPa | No  | <-- LBFGS
 +-----------+-----------------+-----------------+------------+-----+ <-- LBFGS
  

================================================================================
 Starting LBFGS iteration          1 ...
================================================================================
  
 +------------+-------------+-------------+-----------------+ <-- min LBFGS
 |    Step    |   lambda    |   F.delta'  |    enthalpy     | <-- min LBFGS
 +------------+-------------+-------------+-----------------+ <-- min LBFGS
 |  previous  |    0.000000 |    0.125193 |     -212.084914 | <-- min LBFGS
 +------------+-------------+-------------+-----------------+ <-- min LBFGS
  

--------------------------------------------------------------------------------
 LBFGS: starting iteration         1 with trial guess (lambda=  1.000000)
--------------------------------------------------------------------------------
 
+---------------- MEMORY AND SCRATCH DISK ESTIMATES PER PROCESS --------------+
|                                                     Memory          Disk    |
| Model and support data                               44.8 MB         0.0 MB |
| Electronic energy minimisation requirements          14.6 MB         0.0 MB |
| Geometry minimisation requirements                   16.4 MB         0.0 MB |
|                                               ----------------------------- |
| Approx. total storage required per process           75.8 MB         0.0 MB |
|                                                                             |
| Requirements will fluctuate during execution and may exceed these estimates |
+-----------------------------------------------------------------------------+
 

                           -------------------------------
                                      Unit Cell
                           -------------------------------
        Real Lattice(A)              Reciprocal Lattice(1/A)
     3.0201931     0.0000000     0.0000000        2.080391930  -0.000000000   0.000000000
     0.0000000     1.8506377     0.0000000       -0.000000000   3.395146127   0.000000000
     0.0000000     0.0000000     5.7525096        0.000000000   0.000000000   1.092251163

                       Lattice parameters(A)       Cell Angles
                    a =      3.020193          alpha =   90.000000
                    b =      1.850638          beta  =   90.000000
                    c =      5.752510          gamma =   90.000000

                Current cell volume =            32.152405 A**3

                           -------------------------------
                                     Cell Contents
                           -------------------------------

            xxxxxxxxxxxxxxxxxxxxxxxxxxxxxxxxxxxxxxxxxxxxxxxxxxxxxxxxxxxxxxxxx
            x  Element         Atom        Fractional coordinates of atoms  x
            x                 Number           u          v          w      x
            x---------------------------------------------------------------x
            x  H                 1         0.403797   0.377165   0.000000   x
            x  H                 2        -0.403797   0.377165   0.500000   x
            x  H                 3         0.403797  -0.377165   0.500000   x
            x  H                 4        -0.403797  -0.377165   0.000000   x
            x  H                 5         0.362929  -0.000000   0.250000   x
            x  H                 6        -0.362929   0.000000   0.750000   x
            x  H                 7         0.362929  -0.000000   0.750000   x
            x  H                 8        -0.362929   0.000000   0.250000   x
            x  H                 9         0.903797   0.877165   0.500000   x
            x  H                10        -0.903797   0.877165   0.000000   x
            x  H                11         0.903797  -0.877165   0.000000   x
            x  H                12        -0.903797  -0.877165   0.500000   x
            x  H                13         0.862929   0.500000   0.750000   x
            x  H                14        -0.862929   0.500000   0.250000   x
            x  H                15         0.862929   0.500000   0.250000   x
            x  H                16        -0.862929   0.500000   0.750000   x
            xxxxxxxxxxxxxxxxxxxxxxxxxxxxxxxxxxxxxxxxxxxxxxxxxxxxxxxxxxxxxxxxx


------------------------------------------------------------------------ <-- SCF
SCF loop      Energy                           Energy gain       Timer   <-- SCF
                                               per atom          (sec)   <-- SCF
------------------------------------------------------------------------ <-- SCF
Initial  -2.38187487E+002                                         24.73  <-- SCF
      1  -2.38196139E+002                    5.40721871E-004      25.16  <-- SCF
      2  -2.38196176E+002                    2.31252482E-006      26.00  <-- SCF
      3  -2.38196095E+002                   -5.01393124E-006      26.83  <-- SCF
      4  -2.38196094E+002                   -7.88934646E-008      27.67  <-- SCF
      5  -2.38196094E+002                    6.46446600E-009      28.50  <-- SCF
      6  -2.38196094E+002                    5.98957483E-010      29.33  <-- SCF
      7  -2.38196094E+002                    4.98476670E-013      29.99  <-- SCF
      8  -2.38196094E+002                    2.38664588E-013      30.65  <-- SCF
------------------------------------------------------------------------ <-- SCF
 
Final energy =  -238.1960942657     eV
(energy not corrected for finite basis set)
 

 ******************************** Symmetrised Forces ********************************
 *                                                                                  *
 *                           Cartesian components (eV/A)                            *
 * -------------------------------------------------------------------------------- *
 *                         x                    y                    z              *
 *                                                                                  *
 * H               1      0.10288              0.08286              0.00000         *
 * H               2     -0.10288              0.08286              0.00000         *
 * H               3      0.10288             -0.08286              0.00000         *
 * H               4     -0.10288             -0.08286              0.00000         *
 * H               5      0.08153             -0.00000             -0.00000         *
 * H               6     -0.08153             -0.00000              0.00000         *
 * H               7      0.08153             -0.00000              0.00000         *
 * H               8     -0.08153             -0.00000             -0.00000         *
 * H               9      0.10288              0.08286              0.00000         *
 * H              10     -0.10288              0.08286              0.00000         *
 * H              11      0.10288             -0.08286              0.00000         *
 * H              12     -0.10288             -0.08286              0.00000         *
 * H              13      0.08153             -0.00000              0.00000         *
 * H              14     -0.08153              0.00000             -0.00000         *
 * H              15      0.08153              0.00000             -0.00000         *
 * H              16     -0.08153              0.00000              0.00000         *
 *                                                                                  *
 ************************************************************************************

 *********** Symmetrised Stress Tensor ***********
 *                                               *
 *          Cartesian components (GPa)           *
 * --------------------------------------------- *
 *             x             y             z     *
 *                                               *
 *  x   -129.792780      0.000000      0.000000  *
 *  y      0.000000   -131.888877      0.000000  *
 *  z      0.000000      0.000000   -133.413081  *
 *                                               *
 *  Pressure:  131.6982                          *
 *                                               *
 *************************************************
  
 +------------+-------------+-------------+-----------------+ <-- min LBFGS
 |    Step    |   lambda    |   F.delta'  |    enthalpy     | <-- min LBFGS
 +------------+-------------+-------------+-----------------+ <-- min LBFGS
 |  previous  |    0.000000 |    0.125193 |     -212.084914 | <-- min LBFGS
 | trial step |    1.000000 |    0.021549 |     -212.107755 | <-- min LBFGS
 +------------+-------------+-------------+-----------------+ <-- min LBFGS
  
 LBFGS: finished iteration     1 with enthalpy= -2.12107755E+002 eV
  
 +-----------+-----------------+-----------------+------------+-----+ <-- LBFGS
 | Parameter |      value      |    tolerance    |    units   | OK? | <-- LBFGS
 +-----------+-----------------+-----------------+------------+-----+ <-- LBFGS
 |  dE/ion   |   1.427531E-003 |   1.000000E-009 |         eV | No  | <-- LBFGS
 |  |F|max   |   1.321000E-001 |   1.000000E-005 |       eV/A | No  | <-- LBFGS
 |  |dR|max  |   5.795840E-008 |   1.000000E-005 |          A | Yes | <-- LBFGS
 |   Smax    |   3.413081E+000 |   1.000000E-005 |        GPa | No  | <-- LBFGS
 +-----------+-----------------+-----------------+------------+-----+ <-- LBFGS
  

================================================================================
 Starting LBFGS iteration          2 ...
================================================================================
  
 +------------+-------------+-------------+-----------------+ <-- min LBFGS
 |    Step    |   lambda    |   F.delta'  |    enthalpy     | <-- min LBFGS
 +------------+-------------+-------------+-----------------+ <-- min LBFGS
 |  previous  |    0.000000 |    0.047041 |     -212.107755 | <-- min LBFGS
 +------------+-------------+-------------+-----------------+ <-- min LBFGS
  

--------------------------------------------------------------------------------
 LBFGS: starting iteration         2 with trial guess (lambda=  1.000000)
--------------------------------------------------------------------------------
 
+---------------- MEMORY AND SCRATCH DISK ESTIMATES PER PROCESS --------------+
|                                                     Memory          Disk    |
| Model and support data                               44.9 MB         0.0 MB |
| Electronic energy minimisation requirements          14.7 MB         0.0 MB |
| Geometry minimisation requirements                   16.6 MB         0.0 MB |
|                                               ----------------------------- |
| Approx. total storage required per process           76.2 MB         0.0 MB |
|                                                                             |
| Requirements will fluctuate during execution and may exceed these estimates |
+-----------------------------------------------------------------------------+
 

                           -------------------------------
                                      Unit Cell
                           -------------------------------
        Real Lattice(A)              Reciprocal Lattice(1/A)
     3.0344026     0.0000000     0.0000000        2.070649858  -0.000000000   0.000000000
     0.0000000     1.8624892     0.0000000       -0.000000000   3.373541926   0.000000000
     0.0000000     0.0000000     5.7964565        0.000000000   0.000000000   1.083970069

                       Lattice parameters(A)       Cell Angles
                    a =      3.034403          alpha =   90.000000
                    b =      1.862489          beta  =   90.000000
                    c =      5.796456          gamma =   90.000000

                Current cell volume =            32.758917 A**3

                           -------------------------------
                                     Cell Contents
                           -------------------------------

            xxxxxxxxxxxxxxxxxxxxxxxxxxxxxxxxxxxxxxxxxxxxxxxxxxxxxxxxxxxxxxxxx
            x  Element         Atom        Fractional coordinates of atoms  x
            x                 Number           u          v          w      x
            x---------------------------------------------------------------x
            x  H                 1         0.407841   0.382481   0.000000   x
            x  H                 2        -0.407841   0.382481   0.500000   x
            x  H                 3         0.407841  -0.382481   0.500000   x
            x  H                 4        -0.407841  -0.382481   0.000000   x
            x  H                 5         0.366133  -0.000000   0.250000   x
            x  H                 6        -0.366133   0.000000   0.750000   x
            x  H                 7         0.366133  -0.000000   0.750000   x
            x  H                 8        -0.366133   0.000000   0.250000   x
            x  H                 9         0.907841   0.882481   0.500000   x
            x  H                10        -0.907841   0.882481   0.000000   x
            x  H                11         0.907841  -0.882481   0.000000   x
            x  H                12        -0.907841  -0.882481   0.500000   x
            x  H                13         0.866133   0.500000   0.750000   x
            x  H                14        -0.866133   0.500000   0.250000   x
            x  H                15         0.866133   0.500000   0.250000   x
            x  H                16        -0.866133   0.500000   0.750000   x
            xxxxxxxxxxxxxxxxxxxxxxxxxxxxxxxxxxxxxxxxxxxxxxxxxxxxxxxxxxxxxxxxx


------------------------------------------------------------------------ <-- SCF
SCF loop      Energy                           Energy gain       Timer   <-- SCF
                                               per atom          (sec)   <-- SCF
------------------------------------------------------------------------ <-- SCF
Initial  -2.38375856E+002                                         33.35  <-- SCF
      1  -2.38674801E+002                    1.86841062E-002      33.83  <-- SCF
      2  -2.38676250E+002                    9.05791240E-005      34.66  <-- SCF
      3  -2.38657563E+002                   -1.16799177E-003      35.52  <-- SCF
      4  -2.38656804E+002                   -4.74116970E-005      36.36  <-- SCF
      5  -2.38656805E+002                    5.77307916E-008      37.20  <-- SCF
      6  -2.38656805E+002                    8.68712514E-009      38.07  <-- SCF
      7  -2.38656805E+002                    1.53153181E-010      38.85  <-- SCF
      8  -2.38656805E+002                    1.64346248E-011      39.53  <-- SCF
      9  -2.38656805E+002                    7.09951621E-013      40.20  <-- SCF
     10  -2.38656805E+002                   -4.56181680E-013      40.87  <-- SCF
------------------------------------------------------------------------ <-- SCF
 
Final energy =  -238.6568051018     eV
(energy not corrected for finite basis set)
 

 ******************************** Symmetrised Forces ********************************
 *                                                                                  *
 *                           Cartesian components (eV/A)                            *
 * -------------------------------------------------------------------------------- *
 *                         x                    y                    z              *
 *                                                                                  *
 * H               1     -0.61398             -0.49476              0.00000         *
 * H               2      0.61398             -0.49476              0.00000         *
 * H               3     -0.61398              0.49476              0.00000         *
 * H               4      0.61398              0.49476              0.00000         *
 * H               5      0.02448              0.00000              0.00000         *
 * H               6     -0.02448              0.00000             -0.00000         *
 * H               7      0.02448              0.00000             -0.00000         *
 * H               8     -0.02448              0.00000              0.00000         *
 * H               9     -0.61398             -0.49476              0.00000         *
 * H              10      0.61398             -0.49476              0.00000         *
 * H              11     -0.61398              0.49476              0.00000         *
 * H              12      0.61398              0.49476              0.00000         *
 * H              13      0.02448              0.00000             -0.00000         *
 * H              14     -0.02448              0.00000              0.00000         *
 * H              15      0.02448              0.00000              0.00000         *
 * H              16     -0.02448              0.00000             -0.00000         *
 *                                                                                  *
 ************************************************************************************

 *********** Symmetrised Stress Tensor ***********
 *                                               *
 *          Cartesian components (GPa)           *
 * --------------------------------------------- *
 *             x             y             z     *
 *                                               *
 *  x   -133.240620      0.000000      0.000000  *
 *  y      0.000000   -131.500422      0.000000  *
 *  z      0.000000      0.000000   -126.869671  *
 *                                               *
 *  Pressure:  130.5369                          *
 *                                               *
 *************************************************
  
 +------------+-------------+-------------+-----------------+ <-- min LBFGS
 |    Step    |   lambda    |   F.delta'  |    enthalpy     | <-- min LBFGS
 +------------+-------------+-------------+-----------------+ <-- min LBFGS
 |  previous  |    0.000000 |    0.047041 |     -212.107755 | <-- min LBFGS
 | trial step |    1.000000 |   -0.150891 |     -212.076364 | <-- min LBFGS
 +------------+-------------+-------------+-----------------+ <-- min LBFGS
  

--------------------------------------------------------------------------------
 LBFGS: improving iteration         2 with line minimization (lambda=  0.237663)
--------------------------------------------------------------------------------

                           -------------------------------
                                      Unit Cell
                           -------------------------------
        Real Lattice(A)              Reciprocal Lattice(1/A)
     3.0235702     0.0000000     0.0000000        2.078068305  -0.000000000   0.000000000
     0.0000000     1.8534543     0.0000000       -0.000000000   3.389986581   0.000000000
     0.0000000     0.0000000     5.7629541        0.000000000   0.000000000   1.090271612

                       Lattice parameters(A)       Cell Angles
                    a =      3.023570          alpha =   90.000000
                    b =      1.853454          beta  =   90.000000
                    c =      5.762954          gamma =   90.000000

                Current cell volume =            32.295879 A**3

                           -------------------------------
                                     Cell Contents
                           -------------------------------

            xxxxxxxxxxxxxxxxxxxxxxxxxxxxxxxxxxxxxxxxxxxxxxxxxxxxxxxxxxxxxxxxx
            x  Element         Atom        Fractional coordinates of atoms  x
            x                 Number           u          v          w      x
            x---------------------------------------------------------------x
            x  H                 1         0.404758   0.378428   0.000000   x
            x  H                 2        -0.404758   0.378428   0.500000   x
            x  H                 3         0.404758  -0.378428   0.500000   x
            x  H                 4        -0.404758  -0.378428   0.000000   x
            x  H                 5         0.363690  -0.000000   0.250000   x
            x  H                 6        -0.363690   0.000000   0.750000   x
            x  H                 7         0.363690  -0.000000   0.750000   x
            x  H                 8        -0.363690   0.000000   0.250000   x
            x  H                 9         0.904758   0.878428   0.500000   x
            x  H                10        -0.904758   0.878428   0.000000   x
            x  H                11         0.904758  -0.878428   0.000000   x
            x  H                12        -0.904758  -0.878428   0.500000   x
            x  H                13         0.863690   0.500000   0.750000   x
            x  H                14        -0.863690   0.500000   0.250000   x
            x  H                15         0.863690   0.500000   0.250000   x
            x  H                16        -0.863690   0.500000   0.750000   x
            xxxxxxxxxxxxxxxxxxxxxxxxxxxxxxxxxxxxxxxxxxxxxxxxxxxxxxxxxxxxxxxxx


------------------------------------------------------------------------ <-- SCF
SCF loop      Energy                           Energy gain       Timer   <-- SCF
                                               per atom          (sec)   <-- SCF
------------------------------------------------------------------------ <-- SCF
Initial  -2.38150735E+002                                         43.54  <-- SCF
      1  -2.38327201E+002                    1.10291286E-002      44.01  <-- SCF
      2  -2.38328059E+002                    5.36344062E-005      44.83  <-- SCF
      3  -2.38316841E+002                   -7.01124959E-004      45.69  <-- SCF
      4  -2.38316398E+002                   -2.76429020E-005      46.53  <-- SCF
      5  -2.38316399E+002                    2.67988339E-008      47.39  <-- SCF
      6  -2.38316399E+002                    4.03299952E-009      48.25  <-- SCF
      7  -2.38316399E+002                    9.28103139E-011      49.00  <-- SCF
      8  -2.38316399E+002                    1.11507721E-011      49.66  <-- SCF
      9  -2.38316399E+002                    7.91520531E-013      50.33  <-- SCF
     10  -2.38316399E+002                   -3.02107073E-013      51.00  <-- SCF
------------------------------------------------------------------------ <-- SCF
 
Final energy =  -238.3163989496     eV
(energy not corrected for finite basis set)
 

 ******************************** Symmetrised Forces ********************************
 *                                                                                  *
 *                           Cartesian components (eV/A)                            *
 * -------------------------------------------------------------------------------- *
 *                         x                    y                    z              *
 *                                                                                  *
 * H               1     -0.05165             -0.04206             -0.00000         *
 * H               2      0.05165             -0.04206             -0.00000         *
 * H               3     -0.05165              0.04206             -0.00000         *
 * H               4      0.05165              0.04206             -0.00000         *
 * H               5      0.06895              0.00000              0.00000         *
 * H               6     -0.06895              0.00000              0.00000         *
 * H               7      0.06895              0.00000             -0.00000         *
 * H               8     -0.06895              0.00000              0.00000         *
 * H               9     -0.05165             -0.04206             -0.00000         *
 * H              10      0.05165             -0.04206             -0.00000         *
 * H              11     -0.05165              0.04206             -0.00000         *
 * H              12      0.05165              0.04206             -0.00000         *
 * H              13      0.06895              0.00000             -0.00000         *
 * H              14     -0.06895              0.00000             -0.00000         *
 * H              15      0.06895              0.00000              0.00000         *
 * H              16     -0.06895              0.00000             -0.00000         *
 *                                                                                  *
 ************************************************************************************

 *********** Symmetrised Stress Tensor ***********
 *                                               *
 *          Cartesian components (GPa)           *
 * --------------------------------------------- *
 *             x             y             z     *
 *                                               *
 *  x   -130.489223      0.000000      0.000000  *
 *  y      0.000000   -131.689451      0.000000  *
 *  z      0.000000      0.000000   -131.814750  *
 *                                               *
 *  Pressure:  131.3311                          *
 *                                               *
 *************************************************
  
 +------------+-------------+-------------+-----------------+ <-- min LBFGS
 |    Step    |   lambda    |   F.delta'  |    enthalpy     | <-- min LBFGS
 +------------+-------------+-------------+-----------------+ <-- min LBFGS
 |  previous  |    0.000000 |    0.047041 |     -212.107755 | <-- min LBFGS
 | trial step |    1.000000 |   -0.150891 |     -212.076364 | <-- min LBFGS
 |  line step |    0.237663 |    0.003732 |     -212.111646 | <-- min LBFGS
 +------------+-------------+-------------+-----------------+ <-- min LBFGS
  
 LBFGS: finished iteration     2 with enthalpy= -2.12111646E+002 eV
  
 +-----------+-----------------+-----------------+------------+-----+ <-- LBFGS
 | Parameter |      value      |    tolerance    |    units   | OK? | <-- LBFGS
 +-----------+-----------------+-----------------+------------+-----+ <-- LBFGS
 |  dE/ion   |   2.431951E-004 |   1.000000E-009 |         eV | No  | <-- LBFGS
 |  |F|max   |   6.895299E-002 |   1.000000E-005 |       eV/A | No  | <-- LBFGS
 |  |dR|max  |   3.732076E-003 |   1.000000E-005 |          A | No  | <-- LBFGS
 |   Smax    |   1.814750E+000 |   1.000000E-005 |        GPa | No  | <-- LBFGS
 +-----------+-----------------+-----------------+------------+-----+ <-- LBFGS
  

================================================================================
 Starting LBFGS iteration          3 ...
================================================================================
  
 +------------+-------------+-------------+-----------------+ <-- min LBFGS
 |    Step    |   lambda    |   F.delta'  |    enthalpy     | <-- min LBFGS
 +------------+-------------+-------------+-----------------+ <-- min LBFGS
 |  previous  |    0.000000 |    0.029225 |     -212.111646 | <-- min LBFGS
 +------------+-------------+-------------+-----------------+ <-- min LBFGS
  

--------------------------------------------------------------------------------
 LBFGS: starting iteration         3 with trial guess (lambda=  1.000000)
--------------------------------------------------------------------------------

                           -------------------------------
                                      Unit Cell
                           -------------------------------
        Real Lattice(A)              Reciprocal Lattice(1/A)
     3.0287197     0.0000000     0.0000000        2.074535082  -0.000000000   0.000000000
     0.0000000     1.8594534     0.0000000       -0.000000000   3.379049663   0.000000000
     0.0000000     0.0000000     5.7848839        0.000000000   0.000000000   1.086138524

                       Lattice parameters(A)       Cell Angles
                    a =      3.028720          alpha =   90.000000
                    b =      1.859453          beta  =   90.000000
                    c =      5.784884          gamma =   90.000000

                Current cell volume =            32.579096 A**3

                           -------------------------------
                                     Cell Contents
                           -------------------------------

            xxxxxxxxxxxxxxxxxxxxxxxxxxxxxxxxxxxxxxxxxxxxxxxxxxxxxxxxxxxxxxxxx
            x  Element         Atom        Fractional coordinates of atoms  x
            x                 Number           u          v          w      x
            x---------------------------------------------------------------x
            x  H                 1         0.404500   0.378060   0.000000   x
            x  H                 2        -0.404500   0.378060   0.500000   x
            x  H                 3         0.404500  -0.378060   0.500000   x
            x  H                 4        -0.404500  -0.378060   0.000000   x
            x  H                 5         0.367374  -0.000000   0.250000   x
            x  H                 6        -0.367374   0.000000   0.750000   x
            x  H                 7         0.367374  -0.000000   0.750000   x
            x  H                 8        -0.367374   0.000000   0.250000   x
            x  H                 9         0.904500   0.878060   0.500000   x
            x  H                10        -0.904500   0.878060   0.000000   x
            x  H                11         0.904500  -0.878060   0.000000   x
            x  H                12        -0.904500  -0.878060   0.500000   x
            x  H                13         0.867374   0.500000   0.750000   x
            x  H                14        -0.867374   0.500000   0.250000   x
            x  H                15         0.867374   0.500000   0.250000   x
            x  H                16        -0.867374   0.500000   0.750000   x
            xxxxxxxxxxxxxxxxxxxxxxxxxxxxxxxxxxxxxxxxxxxxxxxxxxxxxxxxxxxxxxxxx


------------------------------------------------------------------------ <-- SCF
SCF loop      Energy                           Energy gain       Timer   <-- SCF
                                               per atom          (sec)   <-- SCF
------------------------------------------------------------------------ <-- SCF
Initial  -2.38446095E+002                                         53.70  <-- SCF
      1  -2.38554760E+002                    6.79157284E-003      54.17  <-- SCF
      2  -2.38555299E+002                    3.36590187E-005      55.01  <-- SCF
      3  -2.38548606E+002                   -4.18302167E-004      55.87  <-- SCF
      4  -2.38548361E+002                   -1.53213952E-005      56.73  <-- SCF
      5  -2.38548360E+002                   -5.54674084E-008      57.56  <-- SCF
      6  -2.38548360E+002                    1.22682359E-009      58.43  <-- SCF
      7  -2.38548360E+002                    7.51128816E-011      59.18  <-- SCF
      8  -2.38548360E+002                    1.12323410E-011      59.84  <-- SCF
      9  -2.38548360E+002                   -9.96953341E-014      60.51  <-- SCF
     10  -2.38548360E+002                   -1.05737476E-013      61.17  <-- SCF
------------------------------------------------------------------------ <-- SCF
 
Final energy =  -238.5483600383     eV
(energy not corrected for finite basis set)
 

 ******************************** Symmetrised Forces ********************************
 *                                                                                  *
 *                           Cartesian components (eV/A)                            *
 * -------------------------------------------------------------------------------- *
 *                         x                    y                    z              *
 *                                                                                  *
 * H               1      0.01602              0.03195              0.00000         *
 * H               2     -0.01602              0.03195              0.00000         *
 * H               3      0.01602             -0.03195              0.00000         *
 * H               4     -0.01602             -0.03195              0.00000         *
 * H               5     -0.05269              0.00000              0.00000         *
 * H               6      0.05269              0.00000             -0.00000         *
 * H               7     -0.05269              0.00000             -0.00000         *
 * H               8      0.05269              0.00000              0.00000         *
 * H               9      0.01602              0.03195              0.00000         *
 * H              10     -0.01602              0.03195              0.00000         *
 * H              11      0.01602             -0.03195              0.00000         *
 * H              12     -0.01602             -0.03195              0.00000         *
 * H              13     -0.05269              0.00000             -0.00000         *
 * H              14      0.05269              0.00000             -0.00000         *
 * H              15     -0.05269              0.00000              0.00000         *
 * H              16      0.05269             -0.00000              0.00000         *
 *                                                                                  *
 ************************************************************************************

 *********** Symmetrised Stress Tensor ***********
 *                                               *
 *          Cartesian components (GPa)           *
 * --------------------------------------------- *
 *             x             y             z     *
 *                                               *
 *  x   -129.941982      0.000000      0.000000  *
 *  y      0.000000   -130.053814      0.000000  *
 *  z      0.000000      0.000000   -129.219944  *
 *                                               *
 *  Pressure:  129.7386                          *
 *                                               *
 *************************************************
  
 +------------+-------------+-------------+-----------------+ <-- min LBFGS
 |    Step    |   lambda    |   F.delta'  |    enthalpy     | <-- min LBFGS
 +------------+-------------+-------------+-----------------+ <-- min LBFGS
 |  previous  |    0.000000 |    0.029225 |     -212.111646 | <-- min LBFGS
 | trial step |    1.000000 |   -0.017376 |     -212.113781 | <-- min LBFGS
 +------------+-------------+-------------+-----------------+ <-- min LBFGS
  
 LBFGS: finished iteration     3 with enthalpy= -2.12113781E+002 eV
  
 +-----------+-----------------+-----------------+------------+-----+ <-- LBFGS
 | Parameter |      value      |    tolerance    |    units   | OK? | <-- LBFGS
 +-----------+-----------------+-----------------+------------+-----+ <-- LBFGS
 |  dE/ion   |   1.334454E-004 |   1.000000E-009 |         eV | No  | <-- LBFGS
 |  |F|max   |   5.269223E-002 |   1.000000E-005 |       eV/A | No  | <-- LBFGS
 |  |dR|max  |   1.115613E-002 |   1.000000E-005 |          A | No  | <-- LBFGS
 |   Smax    |   7.800564E-001 |   1.000000E-005 |        GPa | No  | <-- LBFGS
 +-----------+-----------------+-----------------+------------+-----+ <-- LBFGS
  

================================================================================
 Starting LBFGS iteration          4 ...
================================================================================
  
 +------------+-------------+-------------+-----------------+ <-- min LBFGS
 |    Step    |   lambda    |   F.delta'  |    enthalpy     | <-- min LBFGS
 +------------+-------------+-------------+-----------------+ <-- min LBFGS
 |  previous  |    0.000000 |    0.017900 |     -212.113781 | <-- min LBFGS
 +------------+-------------+-------------+-----------------+ <-- min LBFGS
  

--------------------------------------------------------------------------------
 LBFGS: starting iteration         4 with trial guess (lambda=  1.000000)
--------------------------------------------------------------------------------

                           -------------------------------
                                      Unit Cell
                           -------------------------------
        Real Lattice(A)              Reciprocal Lattice(1/A)
     3.0270526     0.0000000     0.0000000        2.075677644  -0.000000000   0.000000000
     0.0000000     1.8581684     0.0000000       -0.000000000   3.381386463   0.000000000
     0.0000000     0.0000000     5.7780844        0.000000000   0.000000000   1.087416672

                       Lattice parameters(A)       Cell Angles
                    a =      3.027053          alpha =   90.000000
                    b =      1.858168          beta  =   90.000000
                    c =      5.778084          gamma =   90.000000

                Current cell volume =            32.500415 A**3

                           -------------------------------
                                     Cell Contents
                           -------------------------------

            xxxxxxxxxxxxxxxxxxxxxxxxxxxxxxxxxxxxxxxxxxxxxxxxxxxxxxxxxxxxxxxxx
            x  Element         Atom        Fractional coordinates of atoms  x
            x                 Number           u          v          w      x
            x---------------------------------------------------------------x
            x  H                 1         0.404405   0.378574   0.000000   x
            x  H                 2        -0.404405   0.378574   0.500000   x
            x  H                 3         0.404405  -0.378574   0.500000   x
            x  H                 4        -0.404405  -0.378574   0.000000   x
            x  H                 5         0.365931  -0.000000   0.250000   x
            x  H                 6        -0.365931   0.000000   0.750000   x
            x  H                 7         0.365931  -0.000000   0.750000   x
            x  H                 8        -0.365931   0.000000   0.250000   x
            x  H                 9         0.904405   0.878574   0.500000   x
            x  H                10        -0.904405   0.878574   0.000000   x
            x  H                11         0.904405  -0.878574   0.000000   x
            x  H                12        -0.904405  -0.878574   0.500000   x
            x  H                13         0.865931   0.500000   0.750000   x
            x  H                14        -0.865931   0.500000   0.250000   x
            x  H                15         0.865931   0.500000   0.250000   x
            x  H                16        -0.865931   0.500000   0.750000   x
            xxxxxxxxxxxxxxxxxxxxxxxxxxxxxxxxxxxxxxxxxxxxxxxxxxxxxxxxxxxxxxxxx


------------------------------------------------------------------------ <-- SCF
SCF loop      Energy                           Energy gain       Timer   <-- SCF
                                               per atom          (sec)   <-- SCF
------------------------------------------------------------------------ <-- SCF
Initial  -2.38470132E+002                                         63.89  <-- SCF
      1  -2.38486577E+002                    1.02780853E-003      64.36  <-- SCF
      2  -2.38486659E+002                    5.13318559E-006      65.21  <-- SCF
      3  -2.38485621E+002                   -6.48711263E-005      66.06  <-- SCF
      4  -2.38485583E+002                   -2.35878161E-006      66.92  <-- SCF
      5  -2.38485583E+002                   -8.62069783E-009      67.76  <-- SCF
      6  -2.38485583E+002                    1.27226352E-010      68.62  <-- SCF
      7  -2.38485583E+002                    1.38667146E-011      69.31  <-- SCF
      8  -2.38485583E+002                    1.21447043E-012      69.97  <-- SCF
      9  -2.38485583E+002                    6.73698773E-013      70.64  <-- SCF
------------------------------------------------------------------------ <-- SCF
 
Final energy =  -238.4855831817     eV
(energy not corrected for finite basis set)
 

 ******************************** Symmetrised Forces ********************************
 *                                                                                  *
 *                           Cartesian components (eV/A)                            *
 * -------------------------------------------------------------------------------- *
 *                         x                    y                    z              *
 *                                                                                  *
 * H               1     -0.00416              0.00661             -0.00000         *
 * H               2      0.00416              0.00661             -0.00000         *
 * H               3     -0.00416             -0.00661             -0.00000         *
 * H               4      0.00416             -0.00661             -0.00000         *
 * H               5      0.00584             -0.00000             -0.00000         *
 * H               6     -0.00584              0.00000             -0.00000         *
 * H               7      0.00584              0.00000             -0.00000         *
 * H               8     -0.00584             -0.00000              0.00000         *
 * H               9     -0.00416              0.00661             -0.00000         *
 * H              10      0.00416              0.00661             -0.00000         *
 * H              11     -0.00416             -0.00661             -0.00000         *
 * H              12      0.00416             -0.00661             -0.00000         *
 * H              13      0.00584             -0.00000              0.00000         *
 * H              14     -0.00584              0.00000              0.00000         *
 * H              15      0.00584              0.00000              0.00000         *
 * H              16     -0.00584             -0.00000              0.00000         *
 *                                                                                  *
 ************************************************************************************

 *********** Symmetrised Stress Tensor ***********
 *                                               *
 *          Cartesian components (GPa)           *
 * --------------------------------------------- *
 *             x             y             z     *
 *                                               *
 *  x   -129.691366      0.000000      0.000000  *
 *  y      0.000000   -130.216484      0.000000  *
 *  z      0.000000      0.000000   -129.892940  *
 *                                               *
 *  Pressure:  129.9336                          *
 *                                               *
 *************************************************
  
 +------------+-------------+-------------+-----------------+ <-- min LBFGS
 |    Step    |   lambda    |   F.delta'  |    enthalpy     | <-- min LBFGS
 +------------+-------------+-------------+-----------------+ <-- min LBFGS
 |  previous  |    0.000000 |    0.017900 |     -212.113781 | <-- min LBFGS
 | trial step |    1.000000 |   -0.000915 |     -212.114850 | <-- min LBFGS
 +------------+-------------+-------------+-----------------+ <-- min LBFGS
  
 LBFGS: finished iteration     4 with enthalpy= -2.12114850E+002 eV
  
 +-----------+-----------------+-----------------+------------+-----+ <-- LBFGS
 | Parameter |      value      |    tolerance    |    units   | OK? | <-- LBFGS
 +-----------+-----------------+-----------------+------------+-----+ <-- LBFGS
 |  dE/ion   |   6.684290E-005 |   1.000000E-009 |         eV | No  | <-- LBFGS
 |  |F|max   |   7.814327E-003 |   1.000000E-005 |       eV/A | No  | <-- LBFGS
 |  |dR|max  |   4.366268E-003 |   1.000000E-005 |          A | No  | <-- LBFGS
 |   Smax    |   3.086336E-001 |   1.000000E-005 |        GPa | No  | <-- LBFGS
 +-----------+-----------------+-----------------+------------+-----+ <-- LBFGS
  

================================================================================
 Starting LBFGS iteration          5 ...
================================================================================
  
 +------------+-------------+-------------+-----------------+ <-- min LBFGS
 |    Step    |   lambda    |   F.delta'  |    enthalpy     | <-- min LBFGS
 +------------+-------------+-------------+-----------------+ <-- min LBFGS
 |  previous  |    0.000000 |    0.002693 |     -212.114850 | <-- min LBFGS
 +------------+-------------+-------------+-----------------+ <-- min LBFGS
  

--------------------------------------------------------------------------------
 LBFGS: starting iteration         5 with trial guess (lambda=  1.000000)
--------------------------------------------------------------------------------

                           -------------------------------
                                      Unit Cell
                           -------------------------------
        Real Lattice(A)              Reciprocal Lattice(1/A)
     3.0266406     0.0000000     0.0000000        2.075960153  -0.000000000   0.000000000
     0.0000000     1.8585525     0.0000000       -0.000000000   3.380687591   0.000000000
     0.0000000     0.0000000     5.7778713        0.000000000   0.000000000   1.087456778

                       Lattice parameters(A)       Cell Angles
                    a =      3.026641          alpha =   90.000000
                    b =      1.858552          beta  =   90.000000
                    c =      5.777871          gamma =   90.000000

                Current cell volume =            32.501511 A**3

                           -------------------------------
                                     Cell Contents
                           -------------------------------

            xxxxxxxxxxxxxxxxxxxxxxxxxxxxxxxxxxxxxxxxxxxxxxxxxxxxxxxxxxxxxxxxx
            x  Element         Atom        Fractional coordinates of atoms  x
            x                 Number           u          v          w      x
            x---------------------------------------------------------------x
            x  H                 1         0.404242   0.378918   0.000000   x
            x  H                 2        -0.404242   0.378918   0.500000   x
            x  H                 3         0.404242  -0.378918   0.500000   x
            x  H                 4        -0.404242  -0.378918   0.000000   x
            x  H                 5         0.366041  -0.000000   0.250000   x
            x  H                 6        -0.366041   0.000000   0.750000   x
            x  H                 7         0.366041  -0.000000   0.750000   x
            x  H                 8        -0.366041   0.000000   0.250000   x
            x  H                 9         0.904242   0.878918   0.500000   x
            x  H                10        -0.904242   0.878918   0.000000   x
            x  H                11         0.904242  -0.878918   0.000000   x
            x  H                12        -0.904242  -0.878918   0.500000   x
            x  H                13         0.866041   0.500000   0.750000   x
            x  H                14        -0.866041   0.500000   0.250000   x
            x  H                15         0.866041   0.500000   0.250000   x
            x  H                16        -0.866041   0.500000   0.750000   x
            xxxxxxxxxxxxxxxxxxxxxxxxxxxxxxxxxxxxxxxxxxxxxxxxxxxxxxxxxxxxxxxxx


------------------------------------------------------------------------ <-- SCF
SCF loop      Energy                           Energy gain       Timer   <-- SCF
                                               per atom          (sec)   <-- SCF
------------------------------------------------------------------------ <-- SCF
Initial  -2.38486154E+002                                         73.32  <-- SCF
      1  -2.38486541E+002                    2.42107004E-005      73.78  <-- SCF
      2  -2.38486543E+002                    1.08375263E-007      74.64  <-- SCF
      3  -2.38486543E+002                    1.37989128E-008      75.49  <-- SCF
      4  -2.38486543E+002                    1.50519049E-008      76.34  <-- SCF
      5  -2.38486543E+002                    1.19305104E-010      77.13  <-- SCF
      6  -2.38486543E+002                    1.66581840E-011      77.80  <-- SCF
      7  -2.38486543E+002                    8.03604814E-013      78.47  <-- SCF
      8  -2.38486543E+002                    1.20842829E-013      79.13  <-- SCF
------------------------------------------------------------------------ <-- SCF
 
Final energy =  -238.4865431027     eV
(energy not corrected for finite basis set)
 

 ******************************** Symmetrised Forces ********************************
 *                                                                                  *
 *                           Cartesian components (eV/A)                            *
 * -------------------------------------------------------------------------------- *
 *                         x                    y                    z              *
 *                                                                                  *
 * H               1     -0.00565              0.00490             -0.00000         *
 * H               2      0.00565              0.00490             -0.00000         *
 * H               3     -0.00565             -0.00490             -0.00000         *
 * H               4      0.00565             -0.00490             -0.00000         *
 * H               5      0.00195              0.00000              0.00000         *
 * H               6     -0.00195              0.00000             -0.00000         *
 * H               7      0.00195              0.00000              0.00000         *
 * H               8     -0.00195              0.00000             -0.00000         *
 * H               9     -0.00565              0.00490             -0.00000         *
 * H              10      0.00565              0.00490             -0.00000         *
 * H              11     -0.00565             -0.00490             -0.00000         *
 * H              12      0.00565             -0.00490             -0.00000         *
 * H              13      0.00195              0.00000              0.00000         *
 * H              14     -0.00195              0.00000             -0.00000         *
 * H              15      0.00195              0.00000              0.00000         *
 * H              16     -0.00195              0.00000             -0.00000         *
 *                                                                                  *
 ************************************************************************************

 *********** Symmetrised Stress Tensor ***********
 *                                               *
 *          Cartesian components (GPa)           *
 * --------------------------------------------- *
 *             x             y             z     *
 *                                               *
 *  x   -129.878333      0.000000      0.000000  *
 *  y      0.000000   -130.206289      0.000000  *
 *  z      0.000000      0.000000   -129.905745  *
 *                                               *
 *  Pressure:  129.9968                          *
 *                                               *
 *************************************************
  
 +------------+-------------+-------------+-----------------+ <-- min LBFGS
 |    Step    |   lambda    |   F.delta'  |    enthalpy     | <-- min LBFGS
 +------------+-------------+-------------+-----------------+ <-- min LBFGS
 |  previous  |    0.000000 |    0.002693 |     -212.114850 | <-- min LBFGS
 | trial step |    1.000000 |    0.002088 |     -212.114926 | <-- min LBFGS
 +------------+-------------+-------------+-----------------+ <-- min LBFGS
  

--------------------------------------------------------------------------------
 LBFGS: improving iteration         5 with line minimization (lambda=  4.448361)
--------------------------------------------------------------------------------

                           -------------------------------
                                      Unit Cell
                           -------------------------------
        Real Lattice(A)              Reciprocal Lattice(1/A)
     3.0252201     0.0000000     0.0000000        2.076934938  -0.000000000   0.000000000
     0.0000000     1.8598771     0.0000000       -0.000000000   3.378279840   0.000000000
     0.0000000     0.0000000     5.7771365        0.000000000   0.000000000   1.087595100

                       Lattice parameters(A)       Cell Angles
                    a =      3.025220          alpha =   90.000000
                    b =      1.859877          beta  =   90.000000
                    c =      5.777136          gamma =   90.000000

                Current cell volume =            32.505275 A**3

                           -------------------------------
                                     Cell Contents
                           -------------------------------

            xxxxxxxxxxxxxxxxxxxxxxxxxxxxxxxxxxxxxxxxxxxxxxxxxxxxxxxxxxxxxxxxx
            x  Element         Atom        Fractional coordinates of atoms  x
            x                 Number           u          v          w      x
            x---------------------------------------------------------------x
            x  H                 1         0.403682   0.380103   0.000000   x
            x  H                 2        -0.403682   0.380103   0.500000   x
            x  H                 3         0.403682  -0.380103   0.500000   x
            x  H                 4        -0.403682  -0.380103   0.000000   x
            x  H                 5         0.366419   0.000000   0.250000   x
            x  H                 6        -0.366419   0.000000   0.750000   x
            x  H                 7         0.366419  -0.000000   0.750000   x
            x  H                 8        -0.366419   0.000000   0.250000   x
            x  H                 9         0.903682   0.880103   0.500000   x
            x  H                10        -0.903682   0.880103   0.000000   x
            x  H                11         0.903682  -0.880103   0.000000   x
            x  H                12        -0.903682  -0.880103   0.500000   x
            x  H                13         0.866419   0.500000   0.750000   x
            x  H                14        -0.866419   0.500000   0.250000   x
            x  H                15         0.866419   0.500000   0.250000   x
            x  H                16        -0.866419   0.500000   0.750000   x
            xxxxxxxxxxxxxxxxxxxxxxxxxxxxxxxxxxxxxxxxxxxxxxxxxxxxxxxxxxxxxxxxx


[...]
            x---------------------------------------------------------------x
            x  H                 1         0.402343   0.382791   0.000000   x
            x  H                 2        -0.402343   0.382791   0.500000   x
            x  H                 3         0.402343  -0.382791   0.500000   x
            x  H                 4        -0.402343  -0.382791   0.000000   x
            x  H                 5         0.366430  -0.000000   0.250000   x
            x  H                 6        -0.366430   0.000000   0.750000   x
            x  H                 7         0.366430  -0.000000   0.750000   x
            x  H                 8        -0.366430   0.000000   0.250000   x
            x  H                 9         0.902343   0.882791   0.500000   x
            x  H                10        -0.902343   0.882791   0.000000   x
            x  H                11         0.902343  -0.882791   0.000000   x
            x  H                12        -0.902343  -0.882791   0.500000   x
            x  H                13         0.866430   0.500000   0.750000   x
            x  H                14        -0.866430   0.500000   0.250000   x
            x  H                15         0.866430   0.500000   0.250000   x
            x  H                16        -0.866430   0.500000   0.750000   x
            xxxxxxxxxxxxxxxxxxxxxxxxxxxxxxxxxxxxxxxxxxxxxxxxxxxxxxxxxxxxxxxxx


------------------------------------------------------------------------ <-- SCF
SCF loop      Energy                           Energy gain       Timer   <-- SCF
                                               per atom          (sec)   <-- SCF
------------------------------------------------------------------------ <-- SCF
Initial  -2.38497226E+002                                        170.39  <-- SCF
      1  -2.38497226E+002                    5.34729519E-013     170.68  <-- SCF
      2  -2.38497226E+002                    3.32317780E-014     171.35  <-- SCF
      3  -2.38497226E+002                    3.95760266E-013     172.01  <-- SCF
      4  -2.38497226E+002                   -9.39552997E-013     172.68  <-- SCF
------------------------------------------------------------------------ <-- SCF
 
Final energy =  -238.4972262090     eV
(energy not corrected for finite basis set)
 

 ******************************** Symmetrised Forces ********************************
 *                                                                                  *
 *                           Cartesian components (eV/A)                            *
 * -------------------------------------------------------------------------------- *
 *                         x                    y                    z              *
 *                                                                                  *
 * H               1      0.00000             -0.00000              0.00000         *
 * H               2     -0.00000             -0.00000              0.00000         *
 * H               3      0.00000              0.00000              0.00000         *
 * H               4     -0.00000              0.00000              0.00000         *
 * H               5     -0.00000              0.00000              0.00000         *
 * H               6      0.00000              0.00000             -0.00000         *
 * H               7     -0.00000             -0.00000             -0.00000         *
 * H               8      0.00000             -0.00000              0.00000         *
 * H               9      0.00000             -0.00000              0.00000         *
 * H              10     -0.00000             -0.00000              0.00000         *
 * H              11      0.00000              0.00000              0.00000         *
 * H              12     -0.00000              0.00000              0.00000         *
 * H              13     -0.00000             -0.00000             -0.00000         *
 * H              14      0.00000             -0.00000              0.00000         *
 * H              15     -0.00000              0.00000             -0.00000         *
 * H              16      0.00000             -0.00000             -0.00000         *
 *                                                                                  *
 ************************************************************************************

 *********** Symmetrised Stress Tensor ***********
 *                                               *
 *          Cartesian components (GPa)           *
 * --------------------------------------------- *
 *             x             y             z     *
 *                                               *
 *  x   -130.000007      0.000000      0.000000  *
 *  y      0.000000   -129.999993      0.000000  *
 *  z      0.000000      0.000000   -130.000000  *
 *                                               *
 *  Pressure:  130.0000                          *
 *                                               *
 *************************************************
  
 +------------+-------------+-------------+-----------------+ <-- min LBFGS
 |    Step    |   lambda    |   F.delta'  |    enthalpy     | <-- min LBFGS
 +------------+-------------+-------------+-----------------+ <-- min LBFGS
 |  previous  |    0.000000 |  1.628E-007 |     -212.115215 | <-- min LBFGS
 | trial step |    1.000000 | -8.229E-008 |     -212.115215 | <-- min LBFGS
 +------------+-------------+-------------+-----------------+ <-- min LBFGS
  
 LBFGS: finished iteration    13 with enthalpy= -2.12115215E+002 eV
  
 +-----------+-----------------+-----------------+------------+-----+ <-- LBFGS
 | Parameter |      value      |    tolerance    |    units   | OK? | <-- LBFGS
 +-----------+-----------------+-----------------+------------+-----+ <-- LBFGS
 |  dE/ion   |   1.013569E-012 |   1.000000E-009 |         eV | Yes | <-- LBFGS
 |  |F|max   |   6.125751E-007 |   1.000000E-005 |       eV/A | Yes | <-- LBFGS
 |  |dR|max  |   1.198507E-007 |   1.000000E-005 |          A | Yes | <-- LBFGS
 |   Smax    |   7.467100E-006 |   1.000000E-005 |        GPa | Yes | <-- LBFGS
 +-----------+-----------------+-----------------+------------+-----+ <-- LBFGS
  
 LBFGS: Geometry optimization completed successfully.

================================================================================
 LBFGS: Final Configuration:
================================================================================

                           -------------------------------
                                      Unit Cell
                           -------------------------------
        Real Lattice(A)              Reciprocal Lattice(1/A)
     3.0265973     0.0000000     0.0000000        2.075989857  -0.000000000   0.000000000
     0.0000000     1.8600196     0.0000000       -0.000000000   3.378021052   0.000000000
     0.0000000     0.0000000     5.7756698        0.000000000   0.000000000   1.087871282

                       Lattice parameters(A)       Cell Angles
                    a =      3.026597          alpha =   90.000000
                    b =      1.860020          beta  =   90.000000
                    c =      5.775670          gamma =   90.000000

                Current cell volume =            32.514308 A**3

                           -------------------------------
                                     Cell Contents
                           -------------------------------

            xxxxxxxxxxxxxxxxxxxxxxxxxxxxxxxxxxxxxxxxxxxxxxxxxxxxxxxxxxxxxxxxx
            x  Element         Atom        Fractional coordinates of atoms  x
            x                 Number           u          v          w      x
            x---------------------------------------------------------------x
            x  H                 1         0.402343   0.382791   0.000000   x
            x  H                 2        -0.402343   0.382791   0.500000   x
            x  H                 3         0.402343  -0.382791   0.500000   x
            x  H                 4        -0.402343  -0.382791   0.000000   x
            x  H                 5         0.366430  -0.000000   0.250000   x
            x  H                 6        -0.366430   0.000000   0.750000   x
            x  H                 7         0.366430  -0.000000   0.750000   x
            x  H                 8        -0.366430   0.000000   0.250000   x
            x  H                 9         0.902343   0.882791   0.500000   x
            x  H                10        -0.902343   0.882791   0.000000   x
            x  H                11         0.902343  -0.882791   0.000000   x
            x  H                12        -0.902343  -0.882791   0.500000   x
            x  H                13         0.866430   0.500000   0.750000   x
            x  H                14        -0.866430   0.500000   0.250000   x
            x  H                15         0.866430   0.500000   0.250000   x
            x  H                16        -0.866430   0.500000   0.750000   x
            xxxxxxxxxxxxxxxxxxxxxxxxxxxxxxxxxxxxxxxxxxxxxxxxxxxxxxxxxxxxxxxxx


 LBFGS: Final Enthalpy     = -2.12115215E+002 eV
 LBFGS: Final <frequency>  =     478.44893 cm-1
 LBFGS: Final bulk modulus =     330.49600 GPa

 ******************************** Symmetrised Forces ********************************
 *                                                                                  *
 *                           Cartesian components (eV/A)                            *
 * -------------------------------------------------------------------------------- *
 *                         x                    y                    z              *
 *                                                                                  *
 * H               1      0.00000             -0.00000              0.00000         *
 * H               2     -0.00000             -0.00000              0.00000         *
 * H               3      0.00000              0.00000              0.00000         *
 * H               4     -0.00000              0.00000              0.00000         *
 * H               5     -0.00000              0.00000              0.00000         *
 * H               6      0.00000              0.00000             -0.00000         *
 * H               7     -0.00000             -0.00000             -0.00000         *
 * H               8      0.00000             -0.00000              0.00000         *
 * H               9      0.00000             -0.00000              0.00000         *
 * H              10     -0.00000             -0.00000              0.00000         *
 * H              11      0.00000              0.00000              0.00000         *
 * H              12     -0.00000              0.00000              0.00000         *
 * H              13     -0.00000             -0.00000             -0.00000         *
 * H              14      0.00000             -0.00000              0.00000         *
 * H              15     -0.00000              0.00000             -0.00000         *
 * H              16      0.00000             -0.00000             -0.00000         *
 *                                                                                  *
 ************************************************************************************

 *********** Symmetrised Stress Tensor ***********
 *                                               *
 *          Cartesian components (GPa)           *
 * --------------------------------------------- *
 *             x             y             z     *
 *                                               *
 *  x   -130.000007      0.000000      0.000000  *
 *  y      0.000000   -129.999993      0.000000  *
 *  z      0.000000      0.000000   -130.000000  *
 *                                               *
 *  Pressure:  130.0000                          *
 *                                               *
 *************************************************

 Pseudo atomic calculation performed for H 1s1

 Converged in 24 iterations to a total energy of -12.4843 eV

Charge spilling parameter for spin component 1 = 0.55%

            Orbital Populations       
     Ion    Atom   Orbital             Charge
  -------------------------------------------
      H     1      S                    1.005
      H     2      S                    1.003
      H     3      S                    1.003
      H     4      S                    1.005
      H     5      S                    0.996
      H     6      S                    0.996
      H     7      S                    0.996
      H     8      S                    0.996
      H     9      S                    1.005
      H    10      S                    1.003
      H    11      S                    1.003
      H    12      S                    1.005
      H    13      S                    0.996
      H    14      S                    0.996
      H    15      S                    0.996
      H    16      S                    0.996
  -------------------------------------------
                           Total:      16.000
  -------------------------------------------

     Atomic Populations (Mulliken)
     -----------------------------
Species          Ion     s      p      d      f     Total  Charge (e)
=====================================================================
  H               1     1.00   0.00   0.00   0.00   1.00    -0.00
  H               2     1.00   0.00   0.00   0.00   1.00    -0.00
  H               3     1.00   0.00   0.00   0.00   1.00    -0.00
  H               4     1.00   0.00   0.00   0.00   1.00    -0.00
  H               5     1.00   0.00   0.00   0.00   1.00     0.00
  H               6     1.00   0.00   0.00   0.00   1.00     0.00
  H               7     1.00   0.00   0.00   0.00   1.00     0.00
  H               8     1.00   0.00   0.00   0.00   1.00     0.00
  H               9     1.00   0.00   0.00   0.00   1.00    -0.00
  H              10     1.00   0.00   0.00   0.00   1.00    -0.00
  H              11     1.00   0.00   0.00   0.00   1.00    -0.00
  H              12     1.00   0.00   0.00   0.00   1.00    -0.00
  H              13     1.00   0.00   0.00   0.00   1.00     0.00
  H              14     1.00   0.00   0.00   0.00   1.00     0.00
  H              15     1.00   0.00   0.00   0.00   1.00     0.00
  H              16     1.00   0.00   0.00   0.00   1.00     0.00
=====================================================================

                 Bond                   Population      Length (A)
======================================================================
              H 10 -- H 11                   1.40        0.73455
              H 9  -- H 12                   1.40        0.73455
              H 2  -- H 3                    1.40        0.73455
              H 1  -- H 4                    1.40        0.73455
              H 14 -- H 15                   0.76        0.80853
              H 13 -- H 16                   0.76        0.80853
              H 6  -- H 7                    0.76        0.80853
              H 5  -- H 8                    0.76        0.80853
              H 8  -- H 15                   0.48        1.16689
              H 7  -- H 16                   0.48        1.16689
              H 6  -- H 13                   0.48        1.16689
              H 5  -- H 14                   0.48        1.16689
              H 4  -- H 11                  -0.21        1.30970
              H 3  -- H 12                  -0.21        1.30970
              H 2  -- H 9                   -0.21        1.30970
              H 1  -- H 10                  -0.21        1.30970
              H 4  -- H 10                  -0.55        1.59188
              H 3  -- H 9                   -0.55        1.59188
              H 2  -- H 12                  -0.55        1.59188
              H 1  -- H 11                  -0.55        1.59188
              H 4  -- H 8                   -0.12        1.61358
              H 3  -- H 7                   -0.12        1.61358
              H 2  -- H 6                   -0.12        1.61358
              H 1  -- H 5                   -0.12        1.61358
              H 2  -- H 8                   -0.12        1.61358
              H 1  -- H 7                   -0.12        1.61358
              H 4  -- H 6                   -0.12        1.61358
              H 3  -- H 5                   -0.12        1.61358
              H 12 -- H 16                  -0.12        1.61358
              H 12 -- H 14                  -0.12        1.61358
              H 11 -- H 15                  -0.12        1.61358
              H 11 -- H 13                  -0.12        1.61358
              H 10 -- H 14                  -0.12        1.61358
              H 9  -- H 13                  -0.12        1.61358
              H 10 -- H 16                  -0.12        1.61358
              H 9  -- H 15                  -0.12        1.61358
              H 4  -- H 15                  -0.06        1.67157
              H 4  -- H 13                  -0.06        1.67157
              H 3  -- H 16                  -0.06        1.67157
              H 3  -- H 14                  -0.06        1.67157
              H 2  -- H 15                  -0.06        1.67157
              H 2  -- H 13                  -0.06        1.67157
              H 1  -- H 16                  -0.06        1.67157
              H 1  -- H 14                  -0.06        1.67157
              H 8  -- H 9                   -0.06        1.67157
              H 7  -- H 10                  -0.06        1.67157
              H 6  -- H 11                  -0.06        1.67157
              H 5  -- H 12                  -0.06        1.67157
              H 8  -- H 11                  -0.06        1.67157
              H 7  -- H 12                  -0.06        1.67157
              H 6  -- H 9                   -0.06        1.67157
              H 5  -- H 10                  -0.06        1.67157
              H 12 -- H 13                  -0.20        1.75545
              H 11 -- H 14                  -0.20        1.75545
              H 12 -- H 15                  -0.20        1.75545
              H 11 -- H 16                  -0.20        1.75545
              H 10 -- H 15                  -0.20        1.75545
              H 9  -- H 16                  -0.20        1.75545
              H 10 -- H 13                  -0.20        1.75545
              H 9  -- H 14                  -0.20        1.75545
              H 4  -- H 5                   -0.20        1.75545
              H 3  -- H 6                   -0.20        1.75545
              H 2  -- H 7                   -0.20        1.75545
              H 1  -- H 8                   -0.20        1.75545
              H 4  -- H 7                   -0.20        1.75545
              H 3  -- H 8                   -0.20        1.75545
              H 2  -- H 5                   -0.20        1.75545
              H 1  -- H 6                   -0.20        1.75545
              H 8  -- H 14                  -0.63        1.77623
              H 7  -- H 13                  -0.63        1.77623
              H 6  -- H 16                  -0.63        1.77623
              H 5  -- H 15                  -0.63        1.77623
======================================================================


Writing analysis data to Hibam.castep_bin

Writing model to Hibam.check
 
 A BibTeX formatted list of references used in this run has been written to 
 Hibam.bib
 
Initialisation time =      2.88 s
Calculation time    =    173.80 s
Finalisation time   =      2.04 s
Total time          =    178.72 s
Peak Memory Use     = 555084 kB
  
Overall parallel efficiency rating: Very good (83%)                             
  
Data was distributed by:-
k-point (32-way); efficiency rating: Very good (84%)                            
  
Parallel notes:
1) Calculation only took 176.7 s, so efficiency estimates may be inaccurate.    
