 +-------------------------------------------------+
 |                                                 |
 |      CCC   AA    SSS  TTTTT  EEEEE  PPPP        |
 |     C     A  A  S       T    E      P   P       |
 |     C     AAAA   SS     T    EEE    PPPP        |
 |     C     A  A     S    T    E      P           |
 |      CCC  A  A  SSS     T    EEEEE  P           |
 |                                                 |
 +-------------------------------------------------+
 |                                                 |
 | Welcome to Academic Release CASTEP version 18.1 |          
 | Ab Initio Total Energy Program                  |
 |                                                 |
 | Authors:                                        |
 | M. Segall, M. Probert, C. Pickard, P. Hasnip,   |
 | S. Clark, K. Refson, J. R. Yates, M. Payne      |
 |                                                 |
 | Contributors:                                   |
 | P. Lindan, P. Haynes, J. White, V. Milman,      |
 | N. Govind, M. Gibson, P. Tulip, V. Cocula,      |
 | B. Montanari, D. Quigley, M. Glover,            |
 | L. Bernasconi, A. Perlov, M. Plummer,           |
 | E. McNellis, J. Meyer, J. Gale, D. Jochym       |
 | J. Aarons, B. Walker, R. Gillen, D. Jones       |
 | T. Green, I. J. Bush, C. J. Armstrong,          |
 | E. J. Higgins, E. L. Brown, M. S. McFly,        |
 | J. Wilkins, B-C. Shih, P. J. P. Byrne           |
 |                                                 |
 | Copyright (c) 2000 - 2017                       |
 |                                                 |
 |     Distributed under the terms of an           |
 |     Agreement between the United Kingdom        |
 |     Car-Parrinello (UKCP) Consortium,           |
 |     Daresbury Laboratory and Accelrys, Inc.     |
 |                                                 |
 | Please cite                                     |
 |                                                 |
 |     "First principles methods using CASTEP"     |
 |                                                 |
 |         Zeitschrift fuer Kristallographie       |
 |           220(5-6) pp. 567-570 (2005)           |
 |                                                 |
 | S. J. Clark, M. D. Segall, C. J. Pickard,       |
 | P. J. Hasnip, M. J. Probert, K. Refson,         |
 | M. C. Payne                                     |
 |                                                 |
 |       in all publications arising from          |
 |              your use of CASTEP                 |
 |                                                 |
 +-------------------------------------------------+


 Compiled for linux_x86_64_gfortran4.8 on Thu, 19 Jul 2018 15:42:32 +0100
 from code version 70483bd0ad64+  Sun, 10 Dec 2017 12:18:29 +0000
 Compiler: GNU Fortran 4.8.5; Optimisation: fast
 MATHLIBS: Intel MKL(2018.0.0) (LAPACK version 3.7.0)
 FFT Lib : mkl
 Fundamental constants values: CODATA 2014

 Run started: Wed, 26 Aug 2020 13:29:31 +0100

 Atomic calculation performed for H: 1s1

 Converged in 41 iterations to an ae energy of -12.488 eV

   ============================================================                
   | Pseudopotential Report - Date of generation 26-08-2020   |                
   ------------------------------------------------------------                
   | Element: H Ionic charge:  1.00 Level of theory: PBE      |                
   | Atomic Solver: Koelling-Harmon                           |                
   |                                                          |                
   |               Reference Electronic Structure             |                
   |         Orbital         Occupation         Energy        |                
   |            1s              1.000           -0.239        |                
   |                                                          |                
   |                 Pseudopotential Definition               |                
   |        Beta     l      e      Rc     scheme   norm       |                
   |         loc     0   -0.239   0.702     qc      1         |                
   |                                                          |                
   | No charge augmentation                                   |                
   | No partial core correction                               |                
   ------------------------------------------------------------                
   | "0|0.7|2|6|8|10L(qc=10)"                                 |                
   ------------------------------------------------------------                
   |      Author: Chris J. Pickard, Cambridge University      |                
   ============================================================                

 Pseudo atomic calculation performed for H 1s1

 Converged in 24 iterations to a total energy of -12.4843 eV

 Calculation parallelised over 32 processes.
 Data is distributed by k-point(32-way)

 ************************************ Title ************************************
 

 ***************************** General Parameters ******************************
  
 output verbosity                               : normal  (1)
 write checkpoint data to                       : Hibam.check
 type of calculation                            : geometry optimization
 stress calculation                             : on
 density difference calculation                 : off
 electron localisation func (ELF) calculation   : off
 Hirshfeld analysis                             : off
 unlimited duration calculation
 timing information                             : on
 memory usage estimate                          : on
 write extra output files                       : on
 write final potential to formatted file        : off
 write final density to formatted file          : off
 write structure in CELL formatted file         : on
 write BibTeX reference list                    : on
 write OTFG pseudopotential files               : on
 write electrostatic potential file             : on
 write bands file                               : on
 checkpoint writing                             : both castep_bin and check files
  
 output         length unit                     : A
 output           mass unit                     : amu
 output           time unit                     : ps
 output         charge unit                     : e
 output           spin unit                     : hbar/2
 output         energy unit                     : eV
 output          force unit                     : eV/A
 output       velocity unit                     : A/ps
 output       pressure unit                     : GPa
 output     inv_length unit                     : 1/A
 output      frequency unit                     : cm-1
 output force constant unit                     : eV/A**2
 output         volume unit                     : A**3
 output   IR intensity unit                     : (D/A)**2/amu
 output         dipole unit                     : D
 output         efield unit                     : eV/A/e
 output        entropy unit                     : J/mol/K
  
 wavefunctions paging                           : none
 random number generator seed                   : randomised (132931989)
 data distribution                              : optimal for this architecture
 optimization strategy                          : maximize speed(+++)

 *********************** Exchange-Correlation Parameters ***********************
  
 using functional                               : Perdew Burke Ernzerhof
 relativistic treatment                         : Koelling-Harmon
 DFT+D: Semi-empirical dispersion correction    : off

 ************************* Pseudopotential Parameters **************************
  
 pseudopotential representation                 : reciprocal space
 <beta|phi> representation                      : reciprocal space
 spin-orbit coupling                            : off

 **************************** Basis Set Parameters *****************************
  
 plane wave basis set cut-off                   :  1200.0000   eV
 size of standard grid                          :     2.0000
 size of   fine   gmax                          :    35.4943   1/A
 finite basis set correction                    : automatic
 number of sample energies                      :          3
           sample  spacing                      :     5.0000   eV

 **************************** Electronic Parameters ****************************
  
 number of  electrons                           :  16.00    
 net charge of system                           :  0.000    
 treating system as non-spin-polarized
 number of bands                                :          8

 ********************* Electronic Minimization Parameters **********************
  
 Method: Treating system as non-metallic,
         and number of  SD  steps               :          1
         and number of  CG  steps               :          4
  
 total energy / atom convergence tol.           : 0.1000E-10   eV
 eigen-energy convergence tolerance             : 0.2000E-10   eV
 max force / atom convergence tol.              : ignored
 convergence tolerance window                   :          3   cycles
 max. number of SCF cycles                      :        100
 periodic dipole correction                     : NONE

 ************************** Density Mixing Parameters **************************
  
 density-mixing scheme                          : Broyden
 max. length of mixing history                  :         20
 charge density mixing amplitude                : 0.8000    
 cut-off energy for mixing                      :  1200.       eV

 *********************** Population Analysis Parameters ************************
  
 Population analysis with cutoff                :  3.000       A
 Population analysis output                     : summary and pdos components

 ********************** Geometry Optimization Parameters ***********************
  
 optimization method                            : LBFGS
 max. no. of LBFGS updates                      : unbounded
 variable cell method                           : fixed basis quality
 max. number of steps                           :         60
 estimated bulk modulus                         :  500.0       GPa
 estimated <frequency>                          :  1668.       cm-1
 geom line minimiser                            : on
 with line minimiser tolerance                  :     0.4000
 total energy convergence tolerance             : 0.1000E-08   eV/atom
        max ionic |force| tolerance             : 0.1000E-04   eV/A
 max ionic |displacement| tolerance             : 0.1000E-04   A
   max |stress component| tolerance             : 0.1000E-04   GPa
 convergence tolerance window                   :          2   steps
 backup results every                           :      14400   seconds
 write geom trajectory file                     : on

 *******************************************************************************
  

                           -------------------------------
                                      Unit Cell
                           -------------------------------
        Real Lattice(A)                      Reciprocal Lattice(1/A)
     3.0872148    -0.0000000     0.0000000        2.035227752   0.000000000   0.000000000
    -0.0000000     1.9110931     0.0000000        0.000000000   3.287744227   0.000000000
     0.0000000     0.0000000     5.9137696        0.000000000   0.000000000   1.062467043

                       Lattice parameters(A)       Cell Angles
                    a =      3.087215          alpha =   90.000000
                    b =      1.911093          beta  =   90.000000
                    c =      5.913770          gamma =   90.000000

                       Current cell volume =            34.890974       A**3
                                   density =             0.462212   AMU/A**3
                                           =             0.767522     g/cm^3

                           -------------------------------
                                     Cell Contents
                           -------------------------------
                         Total number of ions in cell =   16
                      Total number of species in cell =    1
                        Max number of any one species =   16

            xxxxxxxxxxxxxxxxxxxxxxxxxxxxxxxxxxxxxxxxxxxxxxxxxxxxxxxxxxxx
            x  Element    Atom        Fractional coordinates of atoms  x
            x            Number           u          v          w      x
            x----------------------------------------------------------x
            x  H            1         0.400518   0.393269   0.000000   x 
            x  H            2        -0.400518   0.393269   0.500000   x 
            x  H            3         0.400518  -0.393269   0.500000   x 
            x  H            4        -0.400518  -0.393269   0.000000   x 
            x  H            5         0.373001   0.000000   0.250000   x 
            x  H            6        -0.373001   0.000000   0.750000   x 
            x  H            7         0.373001  -0.000000   0.750000   x 
            x  H            8        -0.373001   0.000000   0.250000   x 
            x  H            9         0.900518   0.893269   0.500000   x 
            x  H           10        -0.900518   0.893269   0.000000   x 
            x  H           11         0.900518  -0.893269   0.000000   x 
            x  H           12        -0.900518  -0.893269   0.500000   x 
            x  H           13         0.873001   0.500000   0.750000   x 
            x  H           14        -0.873001   0.500000   0.250000   x 
            x  H           15         0.873001   0.500000   0.250000   x 
            x  H           16        -0.873001   0.500000   0.750000   x 
            xxxxxxxxxxxxxxxxxxxxxxxxxxxxxxxxxxxxxxxxxxxxxxxxxxxxxxxxxxxx


                         No user defined ionic velocities

                           -------------------------------
                                   Details of Species
                           -------------------------------

                               Mass of species in AMU
                                    H    1.0079400

                          Electric Quadrupole Moment (Barn)
                                    H    0.0028600 Isotope  2

                          Files used for pseudopotentials:
                                    H 0|0.7|2|6|8|10L(qc=10)

                           -------------------------------
                              k-Points For BZ Sampling
                           -------------------------------
                       MP grid size for SCF calculation is  8  8  8
                            with an offset of   0.000  0.000  0.000
                       Number of kpoints used =            64

                           -------------------------------
                               Symmetry and Constraints
                           -------------------------------

                      Cell is a supercell containing 2 primitive cells
                      Maximum deviation from symmetry = 0.212174E-15     ANG

                      Number of symmetry operations   =          16
                      Number of ionic constraints     =           3
                      Point group of crystal =     8: D2h, mmm, 2/m 2/m 2/m
                      Space group of crystal =    72: Ibam, -I 2 2c

             Set iprint > 1 for details on symmetry rotations/translations

                         Centre of mass is constrained
             Set iprint > 1 for details of linear ionic constraints

                         Number of cell constraints= 3
                         Cell constraints are:  1 2 3 0 0 0

                         External pressure/stress (GPa)
                        100.00000   0.00000   0.00000
                                  100.00000   0.00000
                                            100.00000
  
+---------------- MEMORY AND SCRATCH DISK ESTIMATES PER PROCESS --------------+
|                                                     Memory          Disk    |
| Baseline code, static data and system overhead      479.0 MB         0.0 MB |
| BLAS internal memory storage                          0.0 MB         0.0 MB |
| Model and support data                               36.8 MB         0.0 MB |
| Electronic energy minimisation requirements          15.3 MB         0.0 MB |
| Force calculation requirements                        7.1 MB         0.0 MB |
| Stress calculation requirements                       9.0 MB         0.0 MB |
|                                               ----------------------------- |
| Approx. total storage required per process          531.1 MB         0.0 MB |
|                                                                             |
| Requirements will fluctuate during execution and may exceed these estimates |
+-----------------------------------------------------------------------------+
Calculating finite basis set correction with  3 cut-off energies.
Calculating total energy with cut-off of 1190.000 eV.
------------------------------------------------------------------------ <-- SCF
SCF loop      Energy                           Energy gain       Timer   <-- SCF
                                               per atom          (sec)   <-- SCF
------------------------------------------------------------------------ <-- SCF
Initial   3.88053653E+002                                          4.00  <-- SCF
      1  -1.95732897E+002                    3.64866594E+001       4.56  <-- SCF
      2  -2.40062629E+002                    2.77060821E+000       4.97  <-- SCF
      3  -2.41061873E+002                    6.24527558E-002       5.34  <-- SCF
      4  -2.40293905E+002                   -4.79979915E-002       6.17  <-- SCF
      5  -2.40267760E+002                   -1.63403088E-003       7.00  <-- SCF
      6  -2.40268501E+002                    4.62943614E-005       7.82  <-- SCF
      7  -2.40268574E+002                    4.52507441E-006       8.87  <-- SCF
      8  -2.40268574E+002                    6.01158031E-009       9.70  <-- SCF
      9  -2.40268574E+002                    4.00403651E-010      10.55  <-- SCF
     10  -2.40268574E+002                    6.68260845E-012      11.22  <-- SCF
     11  -2.40268574E+002                    5.31708448E-013      11.91  <-- SCF
------------------------------------------------------------------------ <-- SCF
 
Final energy =  -240.2685736463     eV
(energy not corrected for finite basis set)
 
Calculating total energy with cut-off of 1195.000 eV.
------------------------------------------------------------------------ <-- SCF
SCF loop      Energy                           Energy gain       Timer   <-- SCF
                                               per atom          (sec)   <-- SCF
------------------------------------------------------------------------ <-- SCF
Initial  -2.40268574E+002                                         12.62  <-- SCF
      1  -2.40269761E+002                    7.42232941E-005      13.07  <-- SCF
      2  -2.40269761E+002                    1.20567912E-010      13.89  <-- SCF
      3  -2.40269762E+002                    2.91758365E-008      14.70  <-- SCF
      4  -2.40269762E+002                    1.56413822E-009      15.52  <-- SCF
      5  -2.40269762E+002                    1.02686194E-011      16.20  <-- SCF
      6  -2.40269762E+002                    4.22949902E-013      16.87  <-- SCF
      7  -2.40269762E+002                    3.89718124E-013      17.53  <-- SCF
------------------------------------------------------------------------ <-- SCF
 
Final energy =  -240.2697617129     eV
(energy not corrected for finite basis set)
 
Calculating total energy with cut-off of 1200.000 eV.
------------------------------------------------------------------------ <-- SCF
SCF loop      Energy                           Energy gain       Timer   <-- SCF
                                               per atom          (sec)   <-- SCF
------------------------------------------------------------------------ <-- SCF
Initial  -2.40269762E+002                                         18.24  <-- SCF
      1  -2.40270951E+002                    7.43104503E-005      18.71  <-- SCF
      2  -2.40270951E+002                    1.07634708E-010      19.53  <-- SCF
      3  -2.40270951E+002                    3.02652437E-008      20.37  <-- SCF
      4  -2.40270951E+002                    1.58759986E-009      21.21  <-- SCF
      5  -2.40270951E+002                    1.08396018E-011      21.90  <-- SCF
      6  -2.40270951E+002                    2.74917436E-013      22.59  <-- SCF
      7  -2.40270951E+002                   -1.20842829E-014      23.27  <-- SCF
------------------------------------------------------------------------ <-- SCF
 
Final energy =  -240.2709511917     eV
(energy not corrected for finite basis set)
 
 For future reference: finite basis dEtot/dlog(Ecut) =      -0.281067eV
 Total energy corrected for finite basis set =    -240.270925 eV
 
+---------------- MEMORY AND SCRATCH DISK ESTIMATES PER PROCESS --------------+
|                                                     Memory          Disk    |
| Model and support data                               45.0 MB         0.0 MB |
| Electronic energy minimisation requirements          15.3 MB         0.0 MB |
| Geometry minimisation requirements                   17.2 MB         0.0 MB |
|                                               ----------------------------- |
| Approx. total storage required per process           77.5 MB         0.0 MB |
|                                                                             |
| Requirements will fluctuate during execution and may exceed these estimates |
+-----------------------------------------------------------------------------+
 

 ******************************** Symmetrised Forces ********************************
 *                                                                                  *
 *                           Cartesian components (eV/A)                            *
 * -------------------------------------------------------------------------------- *
 *                         x                    y                    z              *
 *                                                                                  *
 * H               1      0.00000              0.00000             -0.00000         *
 * H               2     -0.00000              0.00000             -0.00000         *
 * H               3      0.00000             -0.00000             -0.00000         *
 * H               4     -0.00000             -0.00000             -0.00000         *
 * H               5     -0.00000              0.00000              0.00000         *
 * H               6      0.00000              0.00000             -0.00000         *
 * H               7     -0.00000              0.00000              0.00000         *
 * H               8      0.00000              0.00000              0.00000         *
 * H               9      0.00000              0.00000             -0.00000         *
 * H              10     -0.00000              0.00000             -0.00000         *
 * H              11      0.00000             -0.00000             -0.00000         *
 * H              12     -0.00000             -0.00000             -0.00000         *
 * H              13     -0.00000              0.00000             -0.00000         *
 * H              14      0.00000              0.00000              0.00000         *
 * H              15     -0.00000              0.00000              0.00000         *
 * H              16      0.00000              0.00000             -0.00000         *
 *                                                                                  *
 ************************************************************************************

 *********** Symmetrised Stress Tensor ***********
 *                                               *
 *          Cartesian components (GPa)           *
 * --------------------------------------------- *
 *             x             y             z     *
 *                                               *
 *  x   -109.981844      0.000000      0.000000  *
 *  y      0.000000   -109.981824      0.000000  *
 *  z      0.000000      0.000000   -109.981829  *
 *                                               *
 *  Pressure:  109.9818                          *
 *                                               *
 *************************************************
 LBFGS: finished iteration     0 with enthalpy= -2.18493691E+002 eV
  
 +-----------+-----------------+-----------------+------------+-----+ <-- LBFGS
 | Parameter |      value      |    tolerance    |    units   | OK? | <-- LBFGS
 +-----------+-----------------+-----------------+------------+-----+ <-- LBFGS
 |  dE/ion   |   0.000000E+000 |   1.000000E-009 |         eV | No  | <-- LBFGS
 |  |F|max   |   8.196751E-007 |   1.000000E-005 |       eV/A | Yes | <-- LBFGS
 |  |dR|max  |   0.000000E+000 |   1.000000E-005 |          A | No  | <-- LBFGS
 |   Smax    |   9.981844E+000 |   1.000000E-005 |        GPa | No  | <-- LBFGS
 +-----------+-----------------+-----------------+------------+-----+ <-- LBFGS
  

================================================================================
 Starting LBFGS iteration          1 ...
================================================================================
  
 +------------+-------------+-------------+-----------------+ <-- min LBFGS
 |    Step    |   lambda    |   F.delta'  |    enthalpy     | <-- min LBFGS
 +------------+-------------+-------------+-----------------+ <-- min LBFGS
 |  previous  |    0.000000 |    0.138364 |     -218.493691 | <-- min LBFGS
 +------------+-------------+-------------+-----------------+ <-- min LBFGS
  

--------------------------------------------------------------------------------
 LBFGS: starting iteration         1 with trial guess (lambda=  1.000000)
--------------------------------------------------------------------------------
 
+---------------- MEMORY AND SCRATCH DISK ESTIMATES PER PROCESS --------------+
|                                                     Memory          Disk    |
| Model and support data                               45.0 MB         0.0 MB |
| Electronic energy minimisation requirements          15.5 MB         0.0 MB |
| Geometry minimisation requirements                   17.5 MB         0.0 MB |
|                                               ----------------------------- |
| Approx. total storage required per process           78.0 MB         0.0 MB |
|                                                                             |
| Requirements will fluctuate during execution and may exceed these estimates |
+-----------------------------------------------------------------------------+
 

                           -------------------------------
                                      Unit Cell
                           -------------------------------
        Real Lattice(A)              Reciprocal Lattice(1/A)
     3.1077589    -0.0000000     0.0000000        2.021773732   0.000000000   0.000000000
    -0.0000000     1.9238106     0.0000000        0.000000000   3.266010400   0.000000000
     0.0000000     0.0000000     5.9531231        0.000000000   0.000000000   1.055443539

                       Lattice parameters(A)       Cell Angles
                    a =      3.107759          alpha =   90.000000
                    b =      1.923811          beta  =   90.000000
                    c =      5.953123          gamma =   90.000000

                Current cell volume =            35.592172 A**3

                           -------------------------------
                                     Cell Contents
                           -------------------------------

            xxxxxxxxxxxxxxxxxxxxxxxxxxxxxxxxxxxxxxxxxxxxxxxxxxxxxxxxxxxxxxxxx
            x  Element         Atom        Fractional coordinates of atoms  x
            x                 Number           u          v          w      x
            x---------------------------------------------------------------x
            x  H                 1         0.400518   0.393269   0.000000   x
            x  H                 2        -0.400518   0.393269   0.500000   x
            x  H                 3         0.400518  -0.393269   0.500000   x
            x  H                 4        -0.400518  -0.393269   0.000000   x
            x  H                 5         0.373001   0.000000   0.250000   x
            x  H                 6        -0.373001   0.000000   0.750000   x
            x  H                 7         0.373001   0.000000   0.750000   x
            x  H                 8        -0.373001  -0.000000   0.250000   x
            x  H                 9         0.900518   0.893269   0.500000   x
            x  H                10        -0.900518   0.893269   0.000000   x
            x  H                11         0.900518  -0.893269   0.000000   x
            x  H                12        -0.900518  -0.893269   0.500000   x
            x  H                13         0.873001   0.500000   0.750000   x
            x  H                14        -0.873001   0.500000   0.250000   x
            x  H                15         0.873001   0.500000   0.250000   x
            x  H                16        -0.873001   0.500000   0.750000   x
            xxxxxxxxxxxxxxxxxxxxxxxxxxxxxxxxxxxxxxxxxxxxxxxxxxxxxxxxxxxxxxxxx


------------------------------------------------------------------------ <-- SCF
SCF loop      Energy                           Energy gain       Timer   <-- SCF
                                               per atom          (sec)   <-- SCF
------------------------------------------------------------------------ <-- SCF
Initial  -2.40728414E+002                                         26.00  <-- SCF
      1  -2.40737316E+002                    5.56378506E-004      26.46  <-- SCF
      2  -2.40737362E+002                    2.87192582E-006      27.30  <-- SCF
      3  -2.40737208E+002                   -9.63384697E-006      28.13  <-- SCF
      4  -2.40737204E+002                   -2.39745234E-007      28.97  <-- SCF
      5  -2.40737205E+002                    1.02784258E-008      29.80  <-- SCF
      6  -2.40737205E+002                    9.65730575E-010      30.63  <-- SCF
      7  -2.40737205E+002                    2.72500580E-012      31.30  <-- SCF
      8  -2.40737205E+002                    5.70982368E-013      31.97  <-- SCF
------------------------------------------------------------------------ <-- SCF
 
Final energy =  -240.7372045175     eV
(energy not corrected for finite basis set)
 

 ******************************** Symmetrised Forces ********************************
 *                                                                                  *
 *                           Cartesian components (eV/A)                            *
 * -------------------------------------------------------------------------------- *
 *                         x                    y                    z              *
 *                                                                                  *
 * H               1      0.11378              0.07671             -0.00000         *
 * H               2     -0.11378              0.07671             -0.00000         *
 * H               3      0.11378             -0.07671             -0.00000         *
 * H               4     -0.11378             -0.07671             -0.00000         *
 * H               5      0.11396              0.00000             -0.00000         *
 * H               6     -0.11396              0.00000             -0.00000         *
 * H               7      0.11396              0.00000             -0.00000         *
 * H               8     -0.11396              0.00000             -0.00000         *
 * H               9      0.11378              0.07671             -0.00000         *
 * H              10     -0.11378              0.07671             -0.00000         *
 * H              11      0.11378             -0.07671             -0.00000         *
 * H              12     -0.11378             -0.07671             -0.00000         *
 * H              13      0.11396              0.00000              0.00000         *
 * H              14     -0.11396              0.00000              0.00000         *
 * H              15      0.11396              0.00000              0.00000         *
 * H              16     -0.11396              0.00000             -0.00000         *
 *                                                                                  *
 ************************************************************************************

 *********** Symmetrised Stress Tensor ***********
 *                                               *
 *          Cartesian components (GPa)           *
 * --------------------------------------------- *
 *             x             y             z     *
 *                                               *
 *  x   -101.113770     -0.000000      0.000000  *
 *  y     -0.000000   -103.804519      0.000000  *
 *  z      0.000000      0.000000   -104.797848  *
 *                                               *
 *  Pressure:  103.2387                          *
 *                                               *
 *************************************************
  
 +------------+-------------+-------------+-----------------+ <-- min LBFGS
 |    Step    |   lambda    |   F.delta'  |    enthalpy     | <-- min LBFGS
 +------------+-------------+-------------+-----------------+ <-- min LBFGS
 |  previous  |    0.000000 |    0.138364 |     -218.493691 | <-- min LBFGS
 | trial step |    1.000000 |    0.045493 |     -218.522323 | <-- min LBFGS
 +------------+-------------+-------------+-----------------+ <-- min LBFGS
  

--------------------------------------------------------------------------------
 LBFGS: improving iteration         1 with line minimization (lambda=  1.489853)
--------------------------------------------------------------------------------
 
+---------------- MEMORY AND SCRATCH DISK ESTIMATES PER PROCESS --------------+
|                                                     Memory          Disk    |
| Model and support data                               45.0 MB         0.0 MB |
| Electronic energy minimisation requirements          15.6 MB         0.0 MB |
| Geometry minimisation requirements                   17.6 MB         0.0 MB |
|                                               ----------------------------- |
| Approx. total storage required per process           78.2 MB         0.0 MB |
|                                                                             |
| Requirements will fluctuate during execution and may exceed these estimates |
+-----------------------------------------------------------------------------+
 

                           -------------------------------
                                      Unit Cell
                           -------------------------------
        Real Lattice(A)              Reciprocal Lattice(1/A)
     3.1178225    -0.0000000     0.0000000        2.015247932   0.000000000   0.000000000
    -0.0000000     1.9300403     0.0000000        0.000000000   3.255468524   0.000000000
     0.0000000     0.0000000     5.9724005        0.000000000   0.000000000   1.052036826

                       Lattice parameters(A)       Cell Angles
                    a =      3.117822          alpha =   90.000000
                    b =      1.930040          beta  =   90.000000
                    c =      5.972401          gamma =   90.000000

                Current cell volume =            35.939057 A**3

                           -------------------------------
                                     Cell Contents
                           -------------------------------

            xxxxxxxxxxxxxxxxxxxxxxxxxxxxxxxxxxxxxxxxxxxxxxxxxxxxxxxxxxxxxxxxx
            x  Element         Atom        Fractional coordinates of atoms  x
            x                 Number           u          v          w      x
            x---------------------------------------------------------------x
            x  H                 1         0.400518   0.393269   0.000000   x
            x  H                 2        -0.400518   0.393269   0.500000   x
            x  H                 3         0.400518  -0.393269   0.500000   x
            x  H                 4        -0.400518  -0.393269   0.000000   x
            x  H                 5         0.373001   0.000000   0.250000   x
            x  H                 6        -0.373001   0.000000   0.750000   x
            x  H                 7         0.373001   0.000000   0.750000   x
            x  H                 8        -0.373001  -0.000000   0.250000   x
            x  H                 9         0.900518   0.893269   0.500000   x
            x  H                10        -0.900518   0.893269   0.000000   x
            x  H                11         0.900518  -0.893269   0.000000   x
            x  H                12        -0.900518  -0.893269   0.500000   x
            x  H                13         0.873001   0.500000   0.750000   x
            x  H                14        -0.873001   0.500000   0.250000   x
            x  H                15         0.873001   0.500000   0.250000   x
            x  H                16        -0.873001   0.500000   0.750000   x
            xxxxxxxxxxxxxxxxxxxxxxxxxxxxxxxxxxxxxxxxxxxxxxxxxxxxxxxxxxxxxxxxx


------------------------------------------------------------------------ <-- SCF
SCF loop      Energy                           Energy gain       Timer   <-- SCF
                                               per atom          (sec)   <-- SCF
------------------------------------------------------------------------ <-- SCF
Initial  -2.40954204E+002                                         34.66  <-- SCF
      1  -2.40957199E+002                    1.87194866E-004      35.13  <-- SCF
      2  -2.40957213E+002                    8.32794016E-007      36.00  <-- SCF
      3  -2.40957175E+002                   -2.33511659E-006      36.85  <-- SCF
      4  -2.40957174E+002                   -5.71965062E-008      37.70  <-- SCF
      5  -2.40957175E+002                    2.51917723E-009      38.53  <-- SCF
      6  -2.40957175E+002                    2.36619323E-010      39.29  <-- SCF
      7  -2.40957175E+002                    1.23561793E-012      39.95  <-- SCF
      8  -2.40957175E+002                    3.95760266E-013      40.62  <-- SCF
------------------------------------------------------------------------ <-- SCF
 
Final energy =  -240.9571745338     eV
(energy not corrected for finite basis set)
 

 ******************************** Symmetrised Forces ********************************
 *                                                                                  *
 *                           Cartesian components (eV/A)                            *
 * -------------------------------------------------------------------------------- *
 *                         x                    y                    z              *
 *                                                                                  *
 * H               1      0.16855              0.11359              0.00000         *
 * H               2     -0.16855              0.11359              0.00000         *
 * H               3      0.16855             -0.11359              0.00000         *
 * H               4     -0.16855             -0.11359              0.00000         *
 * H               5      0.16883              0.00000              0.00000         *
 * H               6     -0.16883              0.00000             -0.00000         *
 * H               7      0.16883              0.00000             -0.00000         *
 * H               8     -0.16883              0.00000             -0.00000         *
 * H               9      0.16855              0.11359              0.00000         *
 * H              10     -0.16855              0.11359              0.00000         *
 * H              11      0.16855             -0.11359              0.00000         *
 * H              12     -0.16855             -0.11359              0.00000         *
 * H              13      0.16883              0.00000             -0.00000         *
 * H              14     -0.16883              0.00000             -0.00000         *
 * H              15      0.16883              0.00000              0.00000         *
 * H              16     -0.16883              0.00000              0.00000         *
 *                                                                                  *
 ************************************************************************************

 *********** Symmetrised Stress Tensor ***********
 *                                               *
 *          Cartesian components (GPa)           *
 * --------------------------------------------- *
 *             x             y             z     *
 *                                               *
 *  x    -96.935853     -0.000000      0.000000  *
 *  y     -0.000000   -100.901892      0.000000  *
 *  z      0.000000      0.000000   -102.356720  *
 *                                               *
 *  Pressure:  100.0648                          *
 *                                               *
 *************************************************
  
 +------------+-------------+-------------+-----------------+ <-- min LBFGS
 |    Step    |   lambda    |   F.delta'  |    enthalpy     | <-- min LBFGS
 +------------+-------------+-------------+-----------------+ <-- min LBFGS
 |  previous  |    0.000000 |    0.138364 |     -218.493691 | <-- min LBFGS
 | trial step |    1.000000 |    0.045493 |     -218.522323 | <-- min LBFGS
 |  line step |    1.489853 |    0.000916 |     -218.525805 | <-- min LBFGS
 +------------+-------------+-------------+-----------------+ <-- min LBFGS
  
 LBFGS: finished iteration     1 with enthalpy= -2.18525805E+002 eV
  
 +-----------+-----------------+-----------------+------------+-----+ <-- LBFGS
 | Parameter |      value      |    tolerance    |    units   | OK? | <-- LBFGS
 +-----------+-----------------+-----------------+------------+-----+ <-- LBFGS
 |  dE/ion   |   2.007098E-003 |   1.000000E-009 |         eV | No  | <-- LBFGS
 |  |F|max   |   2.032558E-001 |   1.000000E-005 |       eV/A | No  | <-- LBFGS
 |  |dR|max  |   1.196180E-007 |   1.000000E-005 |          A | Yes | <-- LBFGS
 |   Smax    |   3.064147E+000 |   1.000000E-005 |        GPa | No  | <-- LBFGS
 +-----------+-----------------+-----------------+------------+-----+ <-- LBFGS
  

================================================================================
 Starting LBFGS iteration          2 ...
================================================================================
  
 +------------+-------------+-------------+-----------------+ <-- min LBFGS
 |    Step    |   lambda    |   F.delta'  |    enthalpy     | <-- min LBFGS
 +------------+-------------+-------------+-----------------+ <-- min LBFGS
 |  previous  |    0.000000 |    0.068185 |     -218.525805 | <-- min LBFGS
 +------------+-------------+-------------+-----------------+ <-- min LBFGS
  

--------------------------------------------------------------------------------
 LBFGS: starting iteration         2 with trial guess (lambda=  1.000000)
--------------------------------------------------------------------------------
 
+---------------- MEMORY AND SCRATCH DISK ESTIMATES PER PROCESS --------------+
|                                                     Memory          Disk    |
| Model and support data                               45.1 MB         0.0 MB |
| Electronic energy minimisation requirements          15.9 MB         0.0 MB |
| Geometry minimisation requirements                   17.8 MB         0.0 MB |
|                                               ----------------------------- |
| Approx. total storage required per process           78.8 MB         0.0 MB |
|                                                                             |
| Requirements will fluctuate during execution and may exceed these estimates |
+-----------------------------------------------------------------------------+
 

                           -------------------------------
                                      Unit Cell
                           -------------------------------
        Real Lattice(A)              Reciprocal Lattice(1/A)
     3.1390616    -0.0000000     0.0000000        2.001612606   0.000000000   0.000000000
    -0.0000000     1.9483760     0.0000000        0.000000000   3.224831990   0.000000000
     0.0000000     0.0000000     6.0350285        0.000000000   0.000000000   1.041119407

                       Lattice parameters(A)       Cell Angles
                    a =      3.139062          alpha =   90.000000
                    b =      1.948376          beta  =   90.000000
                    c =      6.035029          gamma =   90.000000

                Current cell volume =            36.910671 A**3

                           -------------------------------
                                     Cell Contents
                           -------------------------------

            xxxxxxxxxxxxxxxxxxxxxxxxxxxxxxxxxxxxxxxxxxxxxxxxxxxxxxxxxxxxxxxxx
            x  Element         Atom        Fractional coordinates of atoms  x
            x                 Number           u          v          w      x
            x---------------------------------------------------------------x
            x  H                 1         0.405902   0.399130   0.000000   x
            x  H                 2        -0.405902   0.399130   0.500000   x
            x  H                 3         0.405902  -0.399130   0.500000   x
            x  H                 4        -0.405902  -0.399130   0.000000   x
            x  H                 5         0.378393   0.000000   0.250000   x
            x  H                 6        -0.378393   0.000000   0.750000   x
            x  H                 7         0.378393   0.000000   0.750000   x
            x  H                 8        -0.378393  -0.000000   0.250000   x
            x  H                 9         0.905902   0.899130   0.500000   x
            x  H                10        -0.905902   0.899130   0.000000   x
            x  H                11         0.905902  -0.899130   0.000000   x
            x  H                12        -0.905902  -0.899130   0.500000   x
            x  H                13         0.878393   0.500000   0.750000   x
            x  H                14        -0.878393   0.500000   0.250000   x
            x  H                15         0.878393   0.500000   0.250000   x
            x  H                16        -0.878393   0.500000   0.750000   x
            xxxxxxxxxxxxxxxxxxxxxxxxxxxxxxxxxxxxxxxxxxxxxxxxxxxxxxxxxxxxxxxxx


------------------------------------------------------------------------ <-- SCF
SCF loop      Energy                           Energy gain       Timer   <-- SCF
                                               per atom          (sec)   <-- SCF
------------------------------------------------------------------------ <-- SCF
Initial  -2.40926594E+002                                         43.31  <-- SCF
      1  -2.41564633E+002                    3.98774407E-002      43.77  <-- SCF
      2  -2.41567305E+002                    1.67010676E-004      44.61  <-- SCF
      3  -2.41521354E+002                   -2.87197152E-003      45.45  <-- SCF
      4  -2.41519489E+002                   -1.16568869E-004      46.30  <-- SCF
      5  -2.41519499E+002                    6.12967451E-007      47.14  <-- SCF
      6  -2.41519499E+002                    5.15313400E-008      47.98  <-- SCF
      7  -2.41519499E+002                    3.51332399E-010      48.82  <-- SCF
      8  -2.41519499E+002                    2.40960601E-011      49.49  <-- SCF
      9  -2.41519499E+002                    6.01193075E-013      50.17  <-- SCF
     10  -2.41519499E+002                    2.14496022E-013      50.86  <-- SCF
------------------------------------------------------------------------ <-- SCF
 
Final energy =  -241.5194994444     eV
(energy not corrected for finite basis set)
 

 ******************************** Symmetrised Forces ********************************
 *                                                                                  *
 *                           Cartesian components (eV/A)                            *
 * -------------------------------------------------------------------------------- *
 *                         x                    y                    z              *
 *                                                                                  *
 * H               1     -0.71952             -0.51505              0.00000         *
 * H               2      0.71952             -0.51505              0.00000         *
 * H               3     -0.71952              0.51505              0.00000         *
 * H               4      0.71952              0.51505              0.00000         *
 * H               5     -0.10255             -0.00000             -0.00000         *
 * H               6      0.10255              0.00000             -0.00000         *
 * H               7     -0.10255             -0.00000             -0.00000         *
 * H               8      0.10255              0.00000             -0.00000         *
 * H               9     -0.71952             -0.51505              0.00000         *
 * H              10      0.71952             -0.51505              0.00000         *
 * H              11     -0.71952              0.51505              0.00000         *
 * H              12      0.71952              0.51505              0.00000         *
 * H              13     -0.10255              0.00000              0.00000         *
 * H              14      0.10255              0.00000             -0.00000         *
 * H              15     -0.10255              0.00000              0.00000         *
 * H              16      0.10255              0.00000              0.00000         *
 *                                                                                  *
 ************************************************************************************

 *********** Symmetrised Stress Tensor ***********
 *                                               *
 *          Cartesian components (GPa)           *
 * --------------------------------------------- *
 *             x             y             z     *
 *                                               *
 *  x   -104.287464      0.000000      0.000000  *
 *  y      0.000000   -102.249306      0.000000  *
 *  z      0.000000      0.000000    -96.797162  *
 *                                               *
 *  Pressure:  101.1113                          *
 *                                               *
 *************************************************
  
 +------------+-------------+-------------+-----------------+ <-- min LBFGS
 |    Step    |   lambda    |   F.delta'  |    enthalpy     | <-- min LBFGS
 +------------+-------------+-------------+-----------------+ <-- min LBFGS
 |  previous  |    0.000000 |    0.068185 |     -218.525805 | <-- min LBFGS
 | trial step |    1.000000 |   -0.180157 |     -218.481649 | <-- min LBFGS
 +------------+-------------+-------------+-----------------+ <-- min LBFGS
  

--------------------------------------------------------------------------------
 LBFGS: improving iteration         2 with line minimization (lambda=  0.274562)
--------------------------------------------------------------------------------
 
+---------------- MEMORY AND SCRATCH DISK ESTIMATES PER PROCESS --------------+
|                                                     Memory          Disk    |
| Model and support data                               46.2 MB         0.0 MB |
| Electronic energy minimisation requirements          15.7 MB         0.0 MB |
| Geometry minimisation requirements                   17.6 MB         0.0 MB |
|                                               ----------------------------- |
| Approx. total storage required per process           79.5 MB         0.0 MB |
|                                                                             |
| Requirements will fluctuate during execution and may exceed these estimates |
+-----------------------------------------------------------------------------+
 

                           -------------------------------
                                      Unit Cell
                           -------------------------------
        Real Lattice(A)              Reciprocal Lattice(1/A)
     3.1236539    -0.0000000     0.0000000        2.011485721   0.000000000   0.000000000
    -0.0000000     1.9350746     0.0000000        0.000000000   3.246999071   0.000000000
     0.0000000     0.0000000     5.9895958        0.000000000   0.000000000   1.049016579

                       Lattice parameters(A)       Cell Angles
                    a =      3.123654          alpha =   90.000000
                    b =      1.935075          beta  =   90.000000
                    c =      5.989596          gamma =   90.000000

                Current cell volume =            36.204132 A**3

                           -------------------------------
                                     Cell Contents
                           -------------------------------

            xxxxxxxxxxxxxxxxxxxxxxxxxxxxxxxxxxxxxxxxxxxxxxxxxxxxxxxxxxxxxxxxx
            x  Element         Atom        Fractional coordinates of atoms  x
            x                 Number           u          v          w      x
            x---------------------------------------------------------------x
            x  H                 1         0.401996   0.394878   0.000000   x
            x  H                 2        -0.401996   0.394878   0.500000   x
            x  H                 3         0.401996  -0.394878   0.500000   x
            x  H                 4        -0.401996  -0.394878   0.000000   x
            x  H                 5         0.374481   0.000000   0.250000   x
            x  H                 6        -0.374481   0.000000   0.750000   x
            x  H                 7         0.374481   0.000000   0.750000   x
            x  H                 8        -0.374481  -0.000000   0.250000   x
            x  H                 9         0.901996   0.894878   0.500000   x
            x  H                10        -0.901996   0.894878   0.000000   x
            x  H                11         0.901996  -0.894878   0.000000   x
            x  H                12        -0.901996  -0.894878   0.500000   x
            x  H                13         0.874481   0.500000   0.750000   x
            x  H                14        -0.874481   0.500000   0.250000   x
            x  H                15         0.874481   0.500000   0.250000   x
            x  H                16        -0.874481   0.500000   0.750000   x
            xxxxxxxxxxxxxxxxxxxxxxxxxxxxxxxxxxxxxxxxxxxxxxxxxxxxxxxxxxxxxxxxx


------------------------------------------------------------------------ <-- SCF
SCF loop      Energy                           Energy gain       Timer   <-- SCF
                                               per atom          (sec)   <-- SCF
------------------------------------------------------------------------ <-- SCF
Initial  -2.40807466E+002                                         53.59  <-- SCF
      1  -2.41155705E+002                    2.17648946E-002      54.05  <-- SCF
      2  -2.41157553E+002                    1.15525505E-004      54.88  <-- SCF
      3  -2.41132369E+002                   -1.57397207E-003      55.73  <-- SCF
      4  -2.41131330E+002                   -6.49939076E-005      56.56  <-- SCF
      5  -2.41131334E+002                    2.69305637E-007      57.43  <-- SCF
      6  -2.41131334E+002                    2.13046754E-008      58.27  <-- SCF
      7  -2.41131334E+002                    1.13486522E-010      59.01  <-- SCF
      8  -2.41131334E+002                    9.54960458E-012      59.69  <-- SCF
      9  -2.41131334E+002                    2.93043861E-013      60.36  <-- SCF
------------------------------------------------------------------------ <-- SCF
 
Final energy =  -241.1313342039     eV
(energy not corrected for finite basis set)
 

 ******************************** Symmetrised Forces ********************************
 *                                                                                  *
 *                           Cartesian components (eV/A)                            *
 * -------------------------------------------------------------------------------- *
 *                         x                    y                    z              *
 *                                                                                  *
 * H               1     -0.05134             -0.04177              0.00000         *
 * H               2      0.05134             -0.04177              0.00000         *
 * H               3     -0.05134              0.04177              0.00000         *
 * H               4      0.05134              0.04177              0.00000         *
 * H               5      0.10221              0.00000              0.00000         *
 * H               6     -0.10221              0.00000              0.00000         *
 * H               7      0.10221              0.00000             -0.00000         *
 * H               8     -0.10221              0.00000             -0.00000         *
 * H               9     -0.05134             -0.04177              0.00000         *
 * H              10      0.05134             -0.04177              0.00000         *
 * H              11     -0.05134              0.04177              0.00000         *
 * H              12      0.05134              0.04177              0.00000         *
 * H              13      0.10221              0.00000              0.00000         *
 * H              14     -0.10221             -0.00000              0.00000         *
 * H              15      0.10221              0.00000             -0.00000         *
 * H              16     -0.10221              0.00000             -0.00000         *
 *                                                                                  *
 ************************************************************************************

 *********** Symmetrised Stress Tensor ***********
 *                                               *
 *          Cartesian components (GPa)           *
 * --------------------------------------------- *
 *             x             y             z     *
 *                                               *
 *  x    -98.835391      0.000000      0.000000  *
 *  y      0.000000   -100.995556      0.000000  *
 *  z      0.000000      0.000000   -100.624300  *
 *                                               *
 *  Pressure:  100.1517                          *
 *                                               *
 *************************************************
  
 +------------+-------------+-------------+-----------------+ <-- min LBFGS
 |    Step    |   lambda    |   F.delta'  |    enthalpy     | <-- min LBFGS
 +------------+-------------+-------------+-----------------+ <-- min LBFGS
 |  previous  |    0.000000 |    0.068185 |     -218.525805 | <-- min LBFGS
 | trial step |    1.000000 |   -0.180157 |     -218.481649 | <-- min LBFGS
 |  line step |    0.274562 |    0.005713 |     -218.534512 | <-- min LBFGS
 +------------+-------------+-------------+-----------------+ <-- min LBFGS
  
 LBFGS: finished iteration     2 with enthalpy= -2.18534512E+002 eV
  
 +-----------+-----------------+-----------------+------------+-----+ <-- LBFGS
 | Parameter |      value      |    tolerance    |    units   | OK? | <-- LBFGS
 +-----------+-----------------+-----------------+------------+-----+ <-- LBFGS
 |  dE/ion   |   5.442054E-004 |   1.000000E-009 |         eV | No  | <-- LBFGS
 |  |F|max   |   1.022107E-001 |   1.000000E-005 |       eV/A | No  | <-- LBFGS
 |  |dR|max  |   5.569018E-003 |   1.000000E-005 |          A | No  | <-- LBFGS
 |   Smax    |   1.164609E+000 |   1.000000E-005 |        GPa | No  | <-- LBFGS
 +-----------+-----------------+-----------------+------------+-----+ <-- LBFGS
  

================================================================================
 Starting LBFGS iteration          3 ...
================================================================================
  
 +------------+-------------+-------------+-----------------+ <-- min LBFGS
 |    Step    |   lambda    |   F.delta'  |    enthalpy     | <-- min LBFGS
 +------------+-------------+-------------+-----------------+ <-- min LBFGS
 |  previous  |    0.000000 |    0.036560 |     -218.534512 | <-- min LBFGS
 +------------+-------------+-------------+-----------------+ <-- min LBFGS
  

--------------------------------------------------------------------------------
 LBFGS: starting iteration         3 with trial guess (lambda=  1.000000)
--------------------------------------------------------------------------------
 
+---------------- MEMORY AND SCRATCH DISK ESTIMATES PER PROCESS --------------+
|                                                     Memory          Disk    |
| Model and support data                               46.2 MB         0.0 MB |
| Electronic energy minimisation requirements          15.7 MB         0.0 MB |
| Geometry minimisation requirements                   17.7 MB         0.0 MB |
|                                               ----------------------------- |
| Approx. total storage required per process           79.6 MB         0.0 MB |
|                                                                             |
| Requirements will fluctuate during execution and may exceed these estimates |
+-----------------------------------------------------------------------------+
 

                           -------------------------------
                                      Unit Cell
                           -------------------------------
        Real Lattice(A)              Reciprocal Lattice(1/A)
     3.1273177    -0.0000000     0.0000000        2.009129172   0.000000000   0.000000000
    -0.0000000     1.9414285     0.0000000        0.000000000   3.236372292   0.000000000
     0.0000000     0.0000000     6.0087621        0.000000000   0.000000000   1.045670504

                       Lattice parameters(A)       Cell Angles
                    a =      3.127318          alpha =   90.000000
                    b =      1.941428          beta  =   90.000000
                    c =      6.008762          gamma =   90.000000

                Current cell volume =            36.481981 A**3

                           -------------------------------
                                     Cell Contents
                           -------------------------------

            xxxxxxxxxxxxxxxxxxxxxxxxxxxxxxxxxxxxxxxxxxxxxxxxxxxxxxxxxxxxxxxxx
            x  Element         Atom        Fractional coordinates of atoms  x
            x                 Number           u          v          w      x
            x---------------------------------------------------------------x
            x  H                 1         0.401259   0.393672   0.000000   x
            x  H                 2        -0.401259   0.393672   0.500000   x
            x  H                 3         0.401259  -0.393672   0.500000   x
            x  H                 4        -0.401259  -0.393672   0.000000   x
            x  H                 5         0.379073   0.000000   0.250000   x
            x  H                 6        -0.379073  -0.000000   0.750000   x
            x  H                 7         0.379073   0.000000   0.750000   x
            x  H                 8        -0.379073  -0.000000   0.250000   x
            x  H                 9         0.901259   0.893672   0.500000   x
            x  H                10        -0.901259   0.893672   0.000000   x
            x  H                11         0.901259  -0.893672   0.000000   x
            x  H                12        -0.901259  -0.893672   0.500000   x
            x  H                13         0.879073   0.500000   0.750000   x
            x  H                14        -0.879073   0.500000   0.250000   x
            x  H                15         0.879073   0.500000   0.250000   x
            x  H                16        -0.879073   0.500000   0.750000   x
            xxxxxxxxxxxxxxxxxxxxxxxxxxxxxxxxxxxxxxxxxxxxxxxxxxxxxxxxxxxxxxxxx


------------------------------------------------------------------------ <-- SCF
SCF loop      Energy                           Energy gain       Timer   <-- SCF
                                               per atom          (sec)   <-- SCF
------------------------------------------------------------------------ <-- SCF
Initial  -2.41119382E+002                                         63.14  <-- SCF
      1  -2.41310687E+002                    1.19565715E-002      63.61  <-- SCF
      2  -2.41311713E+002                    6.41585628E-005      64.46  <-- SCF
      3  -2.41296220E+002                   -9.68339191E-004      65.32  <-- SCF
      4  -2.41295873E+002                   -2.17057728E-005      66.18  <-- SCF
      5  -2.41295868E+002                   -2.91018725E-007      67.02  <-- SCF
      6  -2.41295868E+002                   -1.56657321E-009      67.89  <-- SCF
      7  -2.41295868E+002                    3.75371059E-010      68.73  <-- SCF
      8  -2.41295868E+002                    4.46816361E-011      69.42  <-- SCF
      9  -2.41295868E+002                   -2.14496022E-013      70.10  <-- SCF
     10  -2.41295868E+002                    1.07550118E-012      70.77  <-- SCF
------------------------------------------------------------------------ <-- SCF
 
Final energy =  -241.2958680831     eV
(energy not corrected for finite basis set)
 

 ******************************** Symmetrised Forces ********************************
 *                                                                                  *
 *                           Cartesian components (eV/A)                            *
 * -------------------------------------------------------------------------------- *
 *                         x                    y                    z              *
 *                                                                                  *
 * H               1      0.11916              0.09635             -0.00000         *
 * H               2     -0.11916              0.09635             -0.00000         *
 * H               3      0.11916             -0.09635              0.00000         *
 * H               4     -0.11916             -0.09635             -0.00000         *
 * H               5     -0.27278              0.00000             -0.00000         *
 * H               6      0.27278             -0.00000              0.00000         *
 * H               7     -0.27278              0.00000              0.00000         *
 * H               8      0.27278             -0.00000             -0.00000         *
 * H               9      0.11916              0.09635             -0.00000         *
 * H              10     -0.11916              0.09635             -0.00000         *
 * H              11      0.11916             -0.09635              0.00000         *
 * H              12     -0.11916             -0.09635             -0.00000         *
 * H              13     -0.27278             -0.00000             -0.00000         *
 * H              14      0.27278              0.00000             -0.00000         *
 * H              15     -0.27278             -0.00000              0.00000         *
 * H              16      0.27278             -0.00000              0.00000         *
 *                                                                                  *
 ************************************************************************************

 *********** Symmetrised Stress Tensor ***********
 *                                               *
 *          Cartesian components (GPa)           *
 * --------------------------------------------- *
 *             x             y             z     *
 *                                               *
 *  x   -101.376824     -0.000000      0.000000  *
 *  y     -0.000000   -100.481077      0.000000  *
 *  z      0.000000      0.000000    -99.372301  *
 *                                               *
 *  Pressure:  100.4101                          *
 *                                               *
 *************************************************
  
 +------------+-------------+-------------+-----------------+ <-- min LBFGS
 |    Step    |   lambda    |   F.delta'  |    enthalpy     | <-- min LBFGS
 +------------+-------------+-------------+-----------------+ <-- min LBFGS
 |  previous  |    0.000000 |    0.036560 |     -218.534512 | <-- min LBFGS
 | trial step |    1.000000 |   -0.089441 |     -218.525607 | <-- min LBFGS
 +------------+-------------+-------------+-----------------+ <-- min LBFGS
  

--------------------------------------------------------------------------------
 LBFGS: improving iteration         3 with line minimization (lambda=  0.290157)
--------------------------------------------------------------------------------

                           -------------------------------
                                      Unit Cell
                           -------------------------------
        Real Lattice(A)              Reciprocal Lattice(1/A)
     3.1247170    -0.0000000     0.0000000        2.010801382   0.000000000   0.000000000
    -0.0000000     1.9369182     0.0000000        0.000000000   3.243908453   0.000000000
     0.0000000     0.0000000     5.9951571        0.000000000   0.000000000   1.048043488

                       Lattice parameters(A)       Cell Angles
                    a =      3.124717          alpha =   90.000000
                    b =      1.936918          beta  =   90.000000
                    c =      5.995157          gamma =   90.000000

                Current cell volume =            36.284616 A**3

                           -------------------------------
                                     Cell Contents
                           -------------------------------

            xxxxxxxxxxxxxxxxxxxxxxxxxxxxxxxxxxxxxxxxxxxxxxxxxxxxxxxxxxxxxxxxx
            x  Element         Atom        Fractional coordinates of atoms  x
            x                 Number           u          v          w      x
            x---------------------------------------------------------------x
            x  H                 1         0.401783   0.394528   0.000000   x
            x  H                 2        -0.401783   0.394528   0.500000   x
            x  H                 3         0.401783  -0.394528   0.500000   x
            x  H                 4        -0.401783  -0.394528   0.000000   x
            x  H                 5         0.375814   0.000000   0.250000   x
            x  H                 6        -0.375814  -0.000000   0.750000   x
            x  H                 7         0.375814   0.000000   0.750000   x
            x  H                 8        -0.375814  -0.000000   0.250000   x
            x  H                 9         0.901783   0.894528   0.500000   x
            x  H                10        -0.901783   0.894528   0.000000   x
            x  H                11         0.901783  -0.894528   0.000000   x
            x  H                12        -0.901783  -0.894528   0.500000   x
            x  H                13         0.875814   0.500000   0.750000   x
            x  H                14        -0.875814   0.500000   0.250000   x
            x  H                15         0.875814   0.500000   0.250000   x
            x  H                16        -0.875814   0.500000   0.750000   x
            xxxxxxxxxxxxxxxxxxxxxxxxxxxxxxxxxxxxxxxxxxxxxxxxxxxxxxxxxxxxxxxxx


------------------------------------------------------------------------ <-- SCF
SCF loop      Energy                           Energy gain       Timer   <-- SCF
                                               per atom          (sec)   <-- SCF
------------------------------------------------------------------------ <-- SCF
Initial  -2.41094400E+002                                         73.45  <-- SCF
      1  -2.41191609E+002                    6.07557669E-003      73.95  <-- SCF
      2  -2.41192098E+002                    3.05428212E-005      74.82  <-- SCF
      3  -2.41184106E+002                   -4.99486788E-004      75.69  <-- SCF
      4  -2.41183927E+002                   -1.11842117E-005      76.56  <-- SCF
      5  -2.41183925E+002                   -1.56070197E-007      77.43  <-- SCF
      6  -2.41183925E+002                   -2.63738870E-009      78.30  <-- SCF
      7  -2.41183925E+002                    2.01012983E-010      79.06  <-- SCF
      8  -2.41183925E+002                    1.85584375E-011      79.73  <-- SCF
      9  -2.41183925E+002                    7.61309824E-013      80.40  <-- SCF
     10  -2.41183925E+002                   -6.04214146E-014      81.08  <-- SCF
------------------------------------------------------------------------ <-- SCF
 
Final energy =  -241.1839246269     eV
(energy not corrected for finite basis set)
 

 ******************************** Symmetrised Forces ********************************
 *                                                                                  *
 *                           Cartesian components (eV/A)                            *
 * -------------------------------------------------------------------------------- *
 *                         x                    y                    z              *
 *                                                                                  *
 * H               1     -0.00007             -0.00088             -0.00000         *
 * H               2      0.00007             -0.00088             -0.00000         *
 * H               3     -0.00007              0.00088             -0.00000         *
 * H               4      0.00007              0.00088             -0.00000         *
 * H               5      0.00996              0.00000              0.00000         *
 * H               6     -0.00996              0.00000             -0.00000         *
 * H               7      0.00996              0.00000              0.00000         *
 * H               8     -0.00996              0.00000              0.00000         *
 * H               9     -0.00007             -0.00088             -0.00000         *
 * H              10      0.00007             -0.00088             -0.00000         *
 * H              11     -0.00007              0.00088             -0.00000         *
 * H              12      0.00007              0.00088             -0.00000         *
 * H              13      0.00996              0.00000              0.00000         *
 * H              14     -0.00996              0.00000             -0.00000         *
 * H              15      0.00996              0.00000              0.00000         *
 * H              16     -0.00996              0.00000             -0.00000         *
 *                                                                                  *
 ************************************************************************************

 *********** Symmetrised Stress Tensor ***********
 *                                               *
 *          Cartesian components (GPa)           *
 * --------------------------------------------- *
 *             x             y             z     *
 *                                               *
 *  x    -99.394845     -0.000000      0.000000  *
 *  y     -0.000000   -100.871251      0.000000  *
 *  z      0.000000      0.000000   -100.261282  *
 *                                               *
 *  Pressure:  100.1758                          *
 *                                               *
 *************************************************
  
 +------------+-------------+-------------+-----------------+ <-- min LBFGS
 |    Step    |   lambda    |   F.delta'  |    enthalpy     | <-- min LBFGS
 +------------+-------------+-------------+-----------------+ <-- min LBFGS
 |  previous  |    0.000000 |    0.036560 |     -218.534512 | <-- min LBFGS
 | trial step |    1.000000 |   -0.089441 |     -218.525607 | <-- min LBFGS
 |  line step |    0.290157 |    0.004684 |     -218.536851 | <-- min LBFGS
 +------------+-------------+-------------+-----------------+ <-- min LBFGS
  
 LBFGS: finished iteration     3 with enthalpy= -2.18536851E+002 eV
  
 +-----------+-----------------+-----------------+------------+-----+ <-- LBFGS
 | Parameter |      value      |    tolerance    |    units   | OK? | <-- LBFGS
 +-----------+-----------------+-----------------+------------+-----+ <-- LBFGS
 |  dE/ion   |   1.461739E-004 |   1.000000E-009 |         eV | No  | <-- LBFGS
 |  |F|max   |   9.956760E-003 |   1.000000E-005 |       eV/A | No  | <-- LBFGS
 |  |dR|max  |   4.163523E-003 |   1.000000E-005 |          A | No  | <-- LBFGS
 |   Smax    |   8.712509E-001 |   1.000000E-005 |        GPa | No  | <-- LBFGS
 +-----------+-----------------+-----------------+------------+-----+ <-- LBFGS
  

================================================================================
 Starting LBFGS iteration          4 ...
================================================================================
  
 +------------+-------------+-------------+-----------------+ <-- min LBFGS
 |    Step    |   lambda    |   F.delta'  |    enthalpy     | <-- min LBFGS
 +------------+-------------+-------------+-----------------+ <-- min LBFGS
 |  previous  |    0.000000 |    0.008436 |     -218.536851 | <-- min LBFGS
 +------------+-------------+-------------+-----------------+ <-- min LBFGS
  

--------------------------------------------------------------------------------
 LBFGS: starting iteration         4 with trial guess (lambda=  1.000000)
--------------------------------------------------------------------------------

                           -------------------------------
                                      Unit Cell
                           -------------------------------
        Real Lattice(A)              Reciprocal Lattice(1/A)
     3.1243202    -0.0000000     0.0000000        2.011056805   0.000000000   0.000000000
    -0.0000000     1.9387560     0.0000000        0.000000000   3.240833387   0.000000000
     0.0000000     0.0000000     5.9980426        0.000000000   0.000000000   1.047539296

                       Lattice parameters(A)       Cell Angles
                    a =      3.124320          alpha =   90.000000
                    b =      1.938756          beta  =   90.000000
                    c =      5.998043          gamma =   90.000000

                Current cell volume =            36.331911 A**3

                           -------------------------------
                                     Cell Contents
                           -------------------------------

            xxxxxxxxxxxxxxxxxxxxxxxxxxxxxxxxxxxxxxxxxxxxxxxxxxxxxxxxxxxxxxxxx
            x  Element         Atom        Fractional coordinates of atoms  x
[...]
            x---------------------------------------------------------------x
            x  H                 1         0.402505   0.392975   0.000000   x
            x  H                 2        -0.402505   0.392975   0.500000   x
            x  H                 3         0.402505  -0.392975   0.500000   x
            x  H                 4        -0.402505  -0.392975   0.000000   x
            x  H                 5         0.375850   0.000000   0.250000   x
            x  H                 6        -0.375850   0.000000   0.750000   x
            x  H                 7         0.375850   0.000000   0.750000   x
            x  H                 8        -0.375850  -0.000000   0.250000   x
            x  H                 9         0.902505   0.892975   0.500000   x
            x  H                10        -0.902505   0.892975   0.000000   x
            x  H                11         0.902505  -0.892975   0.000000   x
            x  H                12        -0.902505  -0.892975   0.500000   x
            x  H                13         0.875850   0.500000   0.750000   x
            x  H                14        -0.875850   0.500000   0.250000   x
            x  H                15         0.875850   0.500000   0.250000   x
            x  H                16        -0.875850   0.500000   0.750000   x
            xxxxxxxxxxxxxxxxxxxxxxxxxxxxxxxxxxxxxxxxxxxxxxxxxxxxxxxxxxxxxxxxx


------------------------------------------------------------------------ <-- SCF
SCF loop      Energy                           Energy gain       Timer   <-- SCF
                                               per atom          (sec)   <-- SCF
------------------------------------------------------------------------ <-- SCF
Initial  -2.41225940E+002                                        189.50  <-- SCF
      1  -2.41225940E+002                    9.03300148E-013     189.79  <-- SCF
      2  -2.41225940E+002                    2.11474951E-014     190.47  <-- SCF
      3  -2.41225940E+002                    6.64635561E-013     191.15  <-- SCF
      4  -2.41225940E+002                   -2.38664588E-013     191.82  <-- SCF
------------------------------------------------------------------------ <-- SCF
 
Final energy =  -241.2259398178     eV
(energy not corrected for finite basis set)
 

 ******************************** Symmetrised Forces ********************************
 *                                                                                  *
 *                           Cartesian components (eV/A)                            *
 * -------------------------------------------------------------------------------- *
 *                         x                    y                    z              *
 *                                                                                  *
 * H               1      0.00000             -0.00000             -0.00000         *
 * H               2     -0.00000             -0.00000             -0.00000         *
 * H               3      0.00000              0.00000             -0.00000         *
 * H               4     -0.00000              0.00000             -0.00000         *
 * H               5      0.00000              0.00000             -0.00000         *
 * H               6     -0.00000              0.00000             -0.00000         *
 * H               7      0.00000              0.00000             -0.00000         *
 * H               8     -0.00000              0.00000             -0.00000         *
 * H               9      0.00000             -0.00000             -0.00000         *
 * H              10     -0.00000             -0.00000             -0.00000         *
 * H              11      0.00000              0.00000             -0.00000         *
 * H              12     -0.00000              0.00000             -0.00000         *
 * H              13      0.00000              0.00000             -0.00000         *
 * H              14     -0.00000              0.00000             -0.00000         *
 * H              15      0.00000              0.00000              0.00000         *
 * H              16     -0.00000              0.00000              0.00000         *
 *                                                                                  *
 ************************************************************************************

 *********** Symmetrised Stress Tensor ***********
 *                                               *
 *          Cartesian components (GPa)           *
 * --------------------------------------------- *
 *             x             y             z     *
 *                                               *
 *  x    -99.999996      0.000000      0.000000  *
 *  y      0.000000   -100.000006      0.000000  *
 *  z      0.000000      0.000000   -100.000001  *
 *                                               *
 *  Pressure:  100.0000                          *
 *                                               *
 *************************************************
  
 +------------+-------------+-------------+-----------------+ <-- min LBFGS
 |    Step    |   lambda    |   F.delta'  |    enthalpy     | <-- min LBFGS
 +------------+-------------+-------------+-----------------+ <-- min LBFGS
 |  previous  |    0.000000 |  6.029E-008 |     -218.537352 | <-- min LBFGS
 | trial step |    1.000000 | -3.204E-008 |     -218.537352 | <-- min LBFGS
 +------------+-------------+-------------+-----------------+ <-- min LBFGS
  
 LBFGS: finished iteration    13 with enthalpy= -2.18537352E+002 eV
  
 +-----------+-----------------+-----------------+------------+-----+ <-- LBFGS
 | Parameter |      value      |    tolerance    |    units   | OK? | <-- LBFGS
 +-----------+-----------------+-----------------+------------+-----+ <-- LBFGS
 |  dE/ion   |   1.963696E-013 |   1.000000E-009 |         eV | Yes | <-- LBFGS
 |  |F|max   |   3.549672E-007 |   1.000000E-005 |       eV/A | Yes | <-- LBFGS
 |  |dR|max  |   2.151828E-007 |   1.000000E-005 |          A | Yes | <-- LBFGS
 |   Smax    |   5.794981E-006 |   1.000000E-005 |        GPa | Yes | <-- LBFGS
 +-----------+-----------------+-----------------+------------+-----+ <-- LBFGS
  
 LBFGS: Geometry optimization completed successfully.

================================================================================
 LBFGS: Final Configuration:
================================================================================

                           -------------------------------
                                      Unit Cell
                           -------------------------------
        Real Lattice(A)              Reciprocal Lattice(1/A)
     3.1185530    -0.0000000     0.0000000        2.014775885   0.000000000   0.000000000
    -0.0000000     1.9444567     0.0000000        0.000000000   3.231331997   0.000000000
     0.0000000     0.0000000     5.9946945        0.000000000   0.000000000   1.048124358

                       Lattice parameters(A)       Cell Angles
                    a =      3.118553          alpha =   90.000000
                    b =      1.944457          beta  =   90.000000
                    c =      5.994694          gamma =   90.000000

                Current cell volume =            36.351176 A**3

                           -------------------------------
                                     Cell Contents
                           -------------------------------

            xxxxxxxxxxxxxxxxxxxxxxxxxxxxxxxxxxxxxxxxxxxxxxxxxxxxxxxxxxxxxxxxx
            x  Element         Atom        Fractional coordinates of atoms  x
            x                 Number           u          v          w      x
            x---------------------------------------------------------------x
            x  H                 1         0.402505   0.392975   0.000000   x
            x  H                 2        -0.402505   0.392975   0.500000   x
            x  H                 3         0.402505  -0.392975   0.500000   x
            x  H                 4        -0.402505  -0.392975   0.000000   x
            x  H                 5         0.375850   0.000000   0.250000   x
            x  H                 6        -0.375850   0.000000   0.750000   x
            x  H                 7         0.375850   0.000000   0.750000   x
            x  H                 8        -0.375850  -0.000000   0.250000   x
            x  H                 9         0.902505   0.892975   0.500000   x
            x  H                10        -0.902505   0.892975   0.000000   x
            x  H                11         0.902505  -0.892975   0.000000   x
            x  H                12        -0.902505  -0.892975   0.500000   x
            x  H                13         0.875850   0.500000   0.750000   x
            x  H                14        -0.875850   0.500000   0.250000   x
            x  H                15         0.875850   0.500000   0.250000   x
            x  H                16        -0.875850   0.500000   0.750000   x
            xxxxxxxxxxxxxxxxxxxxxxxxxxxxxxxxxxxxxxxxxxxxxxxxxxxxxxxxxxxxxxxxx


 LBFGS: Final Enthalpy     = -2.18537352E+002 eV
 LBFGS: Final <frequency>  =     378.05460 cm-1
 LBFGS: Final bulk modulus =     257.45340 GPa

 ******************************** Symmetrised Forces ********************************
 *                                                                                  *
 *                           Cartesian components (eV/A)                            *
 * -------------------------------------------------------------------------------- *
 *                         x                    y                    z              *
 *                                                                                  *
 * H               1      0.00000             -0.00000             -0.00000         *
 * H               2     -0.00000             -0.00000             -0.00000         *
 * H               3      0.00000              0.00000             -0.00000         *
 * H               4     -0.00000              0.00000             -0.00000         *
 * H               5      0.00000              0.00000             -0.00000         *
 * H               6     -0.00000              0.00000             -0.00000         *
 * H               7      0.00000              0.00000             -0.00000         *
 * H               8     -0.00000              0.00000             -0.00000         *
 * H               9      0.00000             -0.00000             -0.00000         *
 * H              10     -0.00000             -0.00000             -0.00000         *
 * H              11      0.00000              0.00000             -0.00000         *
 * H              12     -0.00000              0.00000             -0.00000         *
 * H              13      0.00000              0.00000             -0.00000         *
 * H              14     -0.00000              0.00000             -0.00000         *
 * H              15      0.00000              0.00000              0.00000         *
 * H              16     -0.00000              0.00000              0.00000         *
 *                                                                                  *
 ************************************************************************************

 *********** Symmetrised Stress Tensor ***********
 *                                               *
 *          Cartesian components (GPa)           *
 * --------------------------------------------- *
 *             x             y             z     *
 *                                               *
 *  x    -99.999996      0.000000      0.000000  *
 *  y      0.000000   -100.000006      0.000000  *
 *  z      0.000000      0.000000   -100.000001  *
 *                                               *
 *  Pressure:  100.0000                          *
 *                                               *
 *************************************************

 Pseudo atomic calculation performed for H 1s1

 Converged in 24 iterations to a total energy of -12.4843 eV

Charge spilling parameter for spin component 1 = 0.55%

            Orbital Populations       
     Ion    Atom   Orbital             Charge
  -------------------------------------------
      H     1      S                    1.004
      H     2      S                    1.003
      H     3      S                    1.003
      H     4      S                    1.004
      H     5      S                    0.997
      H     6      S                    0.997
      H     7      S                    0.997
      H     8      S                    0.997
      H     9      S                    1.004
      H    10      S                    1.003
      H    11      S                    1.003
      H    12      S                    1.004
      H    13      S                    0.997
      H    14      S                    0.997
      H    15      S                    0.997
      H    16      S                    0.997
  -------------------------------------------
                           Total:      16.000
  -------------------------------------------

     Atomic Populations (Mulliken)
     -----------------------------
Species          Ion     s      p      d      f     Total  Charge (e)
=====================================================================
  H               1     1.00   0.00   0.00   0.00   1.00    -0.00
  H               2     1.00   0.00   0.00   0.00   1.00    -0.00
  H               3     1.00   0.00   0.00   0.00   1.00    -0.00
  H               4     1.00   0.00   0.00   0.00   1.00    -0.00
  H               5     1.00   0.00   0.00   0.00   1.00     0.00
  H               6     1.00   0.00   0.00   0.00   1.00     0.00
  H               7     1.00   0.00   0.00   0.00   1.00     0.00
  H               8     1.00   0.00   0.00   0.00   1.00     0.00
  H               9     1.00   0.00   0.00   0.00   1.00    -0.00
  H              10     1.00   0.00   0.00   0.00   1.00    -0.00
  H              11     1.00   0.00   0.00   0.00   1.00    -0.00
  H              12     1.00   0.00   0.00   0.00   1.00    -0.00
  H              13     1.00   0.00   0.00   0.00   1.00     0.00
  H              14     1.00   0.00   0.00   0.00   1.00     0.00
  H              15     1.00   0.00   0.00   0.00   1.00     0.00
  H              16     1.00   0.00   0.00   0.00   1.00     0.00
=====================================================================

                 Bond                   Population      Length (A)
======================================================================
              H 10 -- H 11                   1.36        0.73689
              H 9  -- H 12                   1.36        0.73689
              H 2  -- H 3                    1.36        0.73689
              H 1  -- H 4                    1.36        0.73689
              H 6  -- H 7                    1.02        0.77434
              H 5  -- H 8                    1.02        0.77434
              H 14 -- H 15                   1.02        0.77434
              H 13 -- H 16                   1.02        0.77434
              H 8  -- H 15                   0.17        1.24954
              H 7  -- H 16                   0.17        1.24954
              H 6  -- H 13                   0.17        1.24954
              H 5  -- H 14                   0.17        1.24954
              H 4  -- H 11                  -0.20        1.36014
              H 3  -- H 12                  -0.20        1.36014
              H 2  -- H 9                   -0.20        1.36014
              H 1  -- H 10                  -0.20        1.36014
              H 4  -- H 10                  -0.49        1.65544
              H 3  -- H 9                   -0.49        1.65544
              H 2  -- H 12                  -0.49        1.65544
              H 1  -- H 11                  -0.49        1.65544
              H 9  -- H 15                  -0.13        1.68428
              H 12 -- H 14                  -0.13        1.68428
              H 11 -- H 13                  -0.13        1.68428
              H 10 -- H 16                  -0.13        1.68428
              H 9  -- H 13                  -0.13        1.68428
              H 4  -- H 6                   -0.13        1.68428
              H 3  -- H 5                   -0.13        1.68428
              H 2  -- H 8                   -0.13        1.68428
              H 1  -- H 7                   -0.13        1.68428
              H 12 -- H 16                  -0.13        1.68428
              H 11 -- H 15                  -0.13        1.68428
              H 10 -- H 14                  -0.13        1.68428
              H 4  -- H 8                   -0.13        1.68428
              H 3  -- H 7                   -0.13        1.68428
              H 2  -- H 6                   -0.13        1.68428
              H 1  -- H 5                   -0.13        1.68428
              H 4  -- H 13                  -0.03        1.74438
              H 3  -- H 14                  -0.03        1.74438
              H 4  -- H 15                  -0.03        1.74438
              H 3  -- H 16                  -0.03        1.74438
              H 2  -- H 15                  -0.03        1.74438
              H 1  -- H 16                  -0.03        1.74438
              H 2  -- H 13                  -0.03        1.74438
              H 1  -- H 14                  -0.03        1.74438
              H 8  -- H 11                  -0.03        1.74438
              H 7  -- H 12                  -0.03        1.74438
              H 6  -- H 9                   -0.03        1.74438
              H 5  -- H 10                  -0.03        1.74438
              H 8  -- H 9                   -0.03        1.74438
              H 7  -- H 10                  -0.03        1.74438
              H 6  -- H 11                  -0.03        1.74438
              H 5  -- H 12                  -0.03        1.74438
              H 9  -- H 14                  -0.19        1.81870
              H 4  -- H 7                   -0.19        1.81870
              H 3  -- H 8                   -0.19        1.81870
              H 2  -- H 5                   -0.19        1.81870
              H 1  -- H 6                   -0.19        1.81870
              H 12 -- H 15                  -0.19        1.81870
              H 11 -- H 16                  -0.19        1.81870
              H 10 -- H 13                  -0.19        1.81870
              H 9  -- H 16                  -0.19        1.81870
              H 4  -- H 5                   -0.19        1.81870
              H 3  -- H 6                   -0.19        1.81870
              H 2  -- H 7                   -0.19        1.81870
              H 1  -- H 8                   -0.19        1.81870
              H 11 -- H 14                  -0.19        1.81870
              H 10 -- H 15                  -0.19        1.81870
              H 12 -- H 13                  -0.19        1.81870
              H 8  -- H 14                  -0.56        1.83754
              H 7  -- H 13                  -0.56        1.83754
              H 6  -- H 16                  -0.56        1.83754
              H 5  -- H 15                  -0.56        1.83754
======================================================================


Writing analysis data to Hibam.castep_bin

Writing model to Hibam.check
 
 A BibTeX formatted list of references used in this run has been written to 
 Hibam.bib
 
Initialisation time =      2.95 s
Calculation time    =    192.54 s
Finalisation time   =      2.90 s
Total time          =    198.39 s
Peak Memory Use     = 575812 kB
  
Overall parallel efficiency rating: Very good (81%)                             
  
Data was distributed by:-
k-point (32-way); efficiency rating: Very good (82%)                            
  
Parallel notes:
1) Calculation only took 195.5 s, so efficiency estimates may be inaccurate.    
