 +-------------------------------------------------+
 |                                                 |
 |      CCC   AA    SSS  TTTTT  EEEEE  PPPP        |
 |     C     A  A  S       T    E      P   P       |
 |     C     AAAA   SS     T    EEE    PPPP        |
 |     C     A  A     S    T    E      P           |
 |      CCC  A  A  SSS     T    EEEEE  P           |
 |                                                 |
 +-------------------------------------------------+
 |                                                 |
 | Welcome to Academic Release CASTEP version 18.1 |          
 | Ab Initio Total Energy Program                  |
 |                                                 |
 | Authors:                                        |
 | M. Segall, M. Probert, C. Pickard, P. Hasnip,   |
 | S. Clark, K. Refson, J. R. Yates, M. Payne      |
 |                                                 |
 | Contributors:                                   |
 | P. Lindan, P. Haynes, J. White, V. Milman,      |
 | N. Govind, M. Gibson, P. Tulip, V. Cocula,      |
 | B. Montanari, D. Quigley, M. Glover,            |
 | L. Bernasconi, A. Perlov, M. Plummer,           |
 | E. McNellis, J. Meyer, J. Gale, D. Jochym       |
 | J. Aarons, B. Walker, R. Gillen, D. Jones       |
 | T. Green, I. J. Bush, C. J. Armstrong,          |
 | E. J. Higgins, E. L. Brown, M. S. McFly,        |
 | J. Wilkins, B-C. Shih, P. J. P. Byrne           |
 |                                                 |
 | Copyright (c) 2000 - 2017                       |
 |                                                 |
 |     Distributed under the terms of an           |
 |     Agreement between the United Kingdom        |
 |     Car-Parrinello (UKCP) Consortium,           |
 |     Daresbury Laboratory and Accelrys, Inc.     |
 |                                                 |
 | Please cite                                     |
 |                                                 |
 |     "First principles methods using CASTEP"     |
 |                                                 |
 |         Zeitschrift fuer Kristallographie       |
 |           220(5-6) pp. 567-570 (2005)           |
 |                                                 |
 | S. J. Clark, M. D. Segall, C. J. Pickard,       |
 | P. J. Hasnip, M. J. Probert, K. Refson,         |
 | M. C. Payne                                     |
 |                                                 |
 |       in all publications arising from          |
 |              your use of CASTEP                 |
 |                                                 |
 +-------------------------------------------------+


 Compiled for linux_x86_64_gfortran4.8 on Thu, 19 Jul 2018 15:42:32 +0100
 from code version 70483bd0ad64+  Sun, 10 Dec 2017 12:18:29 +0000
 Compiler: GNU Fortran 4.8.5; Optimisation: fast
 MATHLIBS: Intel MKL(2018.0.0) (LAPACK version 3.7.0)
 FFT Lib : mkl
 Fundamental constants values: CODATA 2014

 Run started: Wed, 26 Aug 2020 13:22:46 +0100

 Atomic calculation performed for H: 1s1

 Converged in 41 iterations to an ae energy of -12.488 eV

   ============================================================                
   | Pseudopotential Report - Date of generation 26-08-2020   |                
   ------------------------------------------------------------                
   | Element: H Ionic charge:  1.00 Level of theory: PBE      |                
   | Atomic Solver: Koelling-Harmon                           |                
   |                                                          |                
   |               Reference Electronic Structure             |                
   |         Orbital         Occupation         Energy        |                
   |            1s              1.000           -0.239        |                
   |                                                          |                
   |                 Pseudopotential Definition               |                
   |        Beta     l      e      Rc     scheme   norm       |                
   |         loc     0   -0.239   0.702     qc      1         |                
   |                                                          |                
   | No charge augmentation                                   |                
   | No partial core correction                               |                
   ------------------------------------------------------------                
   | "0|0.7|2|6|8|10L(qc=10)"                                 |                
   ------------------------------------------------------------                
   |      Author: Chris J. Pickard, Cambridge University      |                
   ============================================================                

 Pseudo atomic calculation performed for H 1s1

 Converged in 24 iterations to a total energy of -12.4843 eV

 Calculation parallelised over 32 processes.
 Data is distributed by k-point(32-way)

 ************************************ Title ************************************
 

 ***************************** General Parameters ******************************
  
 output verbosity                               : normal  (1)
 write checkpoint data to                       : Hibam.check
 type of calculation                            : geometry optimization
 stress calculation                             : on
 density difference calculation                 : off
 electron localisation func (ELF) calculation   : off
 Hirshfeld analysis                             : off
 unlimited duration calculation
 timing information                             : on
 memory usage estimate                          : on
 write extra output files                       : on
 write final potential to formatted file        : off
 write final density to formatted file          : off
 write structure in CELL formatted file         : on
 write BibTeX reference list                    : on
 write OTFG pseudopotential files               : on
 write electrostatic potential file             : on
 write bands file                               : on
 checkpoint writing                             : both castep_bin and check files
  
 output         length unit                     : A
 output           mass unit                     : amu
 output           time unit                     : ps
 output         charge unit                     : e
 output           spin unit                     : hbar/2
 output         energy unit                     : eV
 output          force unit                     : eV/A
 output       velocity unit                     : A/ps
 output       pressure unit                     : GPa
 output     inv_length unit                     : 1/A
 output      frequency unit                     : cm-1
 output force constant unit                     : eV/A**2
 output         volume unit                     : A**3
 output   IR intensity unit                     : (D/A)**2/amu
 output         dipole unit                     : D
 output         efield unit                     : eV/A/e
 output        entropy unit                     : J/mol/K
  
 wavefunctions paging                           : none
 random number generator seed                   : randomised (132246679)
 data distribution                              : optimal for this architecture
 optimization strategy                          : maximize speed(+++)

 *********************** Exchange-Correlation Parameters ***********************
  
 using functional                               : Perdew Burke Ernzerhof
 relativistic treatment                         : Koelling-Harmon
 DFT+D: Semi-empirical dispersion correction    : off

 ************************* Pseudopotential Parameters **************************
  
 pseudopotential representation                 : reciprocal space
 <beta|phi> representation                      : reciprocal space
 spin-orbit coupling                            : off

 **************************** Basis Set Parameters *****************************
  
 plane wave basis set cut-off                   :  1200.0000   eV
 size of standard grid                          :     2.0000
 size of   fine   gmax                          :    35.4943   1/A
 finite basis set correction                    : automatic
 number of sample energies                      :          3
           sample  spacing                      :     5.0000   eV

 **************************** Electronic Parameters ****************************
  
 number of  electrons                           :  16.00    
 net charge of system                           :  0.000    
 treating system as non-spin-polarized
 number of bands                                :          8

 ********************* Electronic Minimization Parameters **********************
  
 Method: Treating system as non-metallic,
         and number of  SD  steps               :          1
         and number of  CG  steps               :          4
  
 total energy / atom convergence tol.           : 0.1000E-10   eV
 eigen-energy convergence tolerance             : 0.2000E-10   eV
 max force / atom convergence tol.              : ignored
 convergence tolerance window                   :          3   cycles
 max. number of SCF cycles                      :        100
 periodic dipole correction                     : NONE

 ************************** Density Mixing Parameters **************************
  
 density-mixing scheme                          : Broyden
 max. length of mixing history                  :         20
 charge density mixing amplitude                : 0.8000    
 cut-off energy for mixing                      :  1200.       eV

 *********************** Population Analysis Parameters ************************
  
 Population analysis with cutoff                :  3.000       A
 Population analysis output                     : summary and pdos components

 ********************** Geometry Optimization Parameters ***********************
  
 optimization method                            : LBFGS
 max. no. of LBFGS updates                      : unbounded
 variable cell method                           : fixed basis quality
 max. number of steps                           :         60
 estimated bulk modulus                         :  500.0       GPa
 estimated <frequency>                          :  1668.       cm-1
 geom line minimiser                            : on
 with line minimiser tolerance                  :     0.4000
 total energy convergence tolerance             : 0.1000E-08   eV/atom
        max ionic |force| tolerance             : 0.1000E-04   eV/A
 max ionic |displacement| tolerance             : 0.1000E-04   A
   max |stress component| tolerance             : 0.1000E-04   GPa
 convergence tolerance window                   :          2   steps
 backup results every                           :      14400   seconds
 write geom trajectory file                     : on

 *******************************************************************************
  

                           -------------------------------
                                      Unit Cell
                           -------------------------------
        Real Lattice(A)                      Reciprocal Lattice(1/A)
     3.0265973     0.0000000     0.0000000        2.075989857  -0.000000000   0.000000000
     0.0000000     1.8600196     0.0000000       -0.000000000   3.378021052   0.000000000
     0.0000000     0.0000000     5.7756698        0.000000000   0.000000000   1.087871282

                       Lattice parameters(A)       Cell Angles
                    a =      3.026597          alpha =   90.000000
                    b =      1.860020          beta  =   90.000000
                    c =      5.775670          gamma =   90.000000

                       Current cell volume =            32.514308       A**3
                                   density =             0.495998   AMU/A**3
                                           =             0.823624     g/cm^3

                           -------------------------------
                                     Cell Contents
                           -------------------------------
                         Total number of ions in cell =   16
                      Total number of species in cell =    1
                        Max number of any one species =   16

            xxxxxxxxxxxxxxxxxxxxxxxxxxxxxxxxxxxxxxxxxxxxxxxxxxxxxxxxxxxx
            x  Element    Atom        Fractional coordinates of atoms  x
            x            Number           u          v          w      x
            x----------------------------------------------------------x
            x  H            1         0.402343   0.382791   0.000000   x 
            x  H            2        -0.402343   0.382791   0.500000   x 
            x  H            3         0.402343  -0.382791   0.500000   x 
            x  H            4        -0.402343  -0.382791   0.000000   x 
            x  H            5         0.366430  -0.000000   0.250000   x 
            x  H            6        -0.366430   0.000000   0.750000   x 
            x  H            7         0.366430  -0.000000   0.750000   x 
            x  H            8        -0.366430   0.000000   0.250000   x 
            x  H            9         0.902343   0.882791   0.500000   x 
            x  H           10        -0.902343   0.882791   0.000000   x 
            x  H           11         0.902343  -0.882791   0.000000   x 
            x  H           12        -0.902343  -0.882791   0.500000   x 
            x  H           13         0.866430   0.500000   0.750000   x 
            x  H           14        -0.866430   0.500000   0.250000   x 
            x  H           15         0.866430   0.500000   0.250000   x 
            x  H           16        -0.866430   0.500000   0.750000   x 
            xxxxxxxxxxxxxxxxxxxxxxxxxxxxxxxxxxxxxxxxxxxxxxxxxxxxxxxxxxxx


                         No user defined ionic velocities

                           -------------------------------
                                   Details of Species
                           -------------------------------

                               Mass of species in AMU
                                    H    1.0079400

                          Electric Quadrupole Moment (Barn)
                                    H    0.0028600 Isotope  2

                          Files used for pseudopotentials:
                                    H 0|0.7|2|6|8|10L(qc=10)

                           -------------------------------
                              k-Points For BZ Sampling
                           -------------------------------
                       MP grid size for SCF calculation is  8  8  8
                            with an offset of   0.000  0.000  0.000
                       Number of kpoints used =            64

                           -------------------------------
                               Symmetry and Constraints
                           -------------------------------

                      Cell is a supercell containing 2 primitive cells
                      Maximum deviation from symmetry = 0.206504E-14     ANG

                      Number of symmetry operations   =          16
                      Number of ionic constraints     =           3
                      Point group of crystal =     8: D2h, mmm, 2/m 2/m 2/m
                      Space group of crystal =    72: Ibam, -I 2 2c

             Set iprint > 1 for details on symmetry rotations/translations

                         Centre of mass is constrained
             Set iprint > 1 for details of linear ionic constraints

                         Number of cell constraints= 3
                         Cell constraints are:  1 2 3 0 0 0

                         External pressure/stress (GPa)
                        120.00000   0.00000   0.00000
                                  120.00000   0.00000
                                            120.00000
  
+---------------- MEMORY AND SCRATCH DISK ESTIMATES PER PROCESS --------------+
|                                                     Memory          Disk    |
| Baseline code, static data and system overhead      479.0 MB         0.0 MB |
| BLAS internal memory storage                          0.0 MB         0.0 MB |
| Model and support data                               36.7 MB         0.0 MB |
| Electronic energy minimisation requirements          14.7 MB         0.0 MB |
| Force calculation requirements                        7.1 MB         0.0 MB |
| Stress calculation requirements                       9.0 MB         0.0 MB |
|                                               ----------------------------- |
| Approx. total storage required per process          530.4 MB         0.0 MB |
|                                                                             |
| Requirements will fluctuate during execution and may exceed these estimates |
+-----------------------------------------------------------------------------+
Calculating finite basis set correction with  3 cut-off energies.
Calculating total energy with cut-off of 1190.000 eV.
------------------------------------------------------------------------ <-- SCF
SCF loop      Energy                           Energy gain       Timer   <-- SCF
                                               per atom          (sec)   <-- SCF
------------------------------------------------------------------------ <-- SCF
Initial   3.83967012E+002                                          3.98  <-- SCF
      1  -1.96192776E+002                    3.62599868E+001       4.52  <-- SCF
      2  -2.38315742E+002                    2.63268539E+000       4.91  <-- SCF
      3  -2.38508078E+002                    1.20209998E-002       5.74  <-- SCF
      4  -2.38494142E+002                   -8.70988763E-004       6.57  <-- SCF
      5  -2.38494759E+002                    3.85666967E-005       7.39  <-- SCF
      6  -2.38494806E+002                    2.93522188E-006       8.22  <-- SCF
      7  -2.38494807E+002                    2.73011201E-008       9.03  <-- SCF
      8  -2.38494807E+002                    7.23353091E-010       9.83  <-- SCF
      9  -2.38494807E+002                    1.41174635E-011      10.49  <-- SCF
     10  -2.38494807E+002                    2.38664588E-013      11.15  <-- SCF
     11  -2.38494807E+002                    6.91825197E-013      11.80  <-- SCF
------------------------------------------------------------------------ <-- SCF
 
Final energy =  -238.4948065404     eV
(energy not corrected for finite basis set)
 
Calculating total energy with cut-off of 1195.000 eV.
------------------------------------------------------------------------ <-- SCF
SCF loop      Energy                           Energy gain       Timer   <-- SCF
                                               per atom          (sec)   <-- SCF
------------------------------------------------------------------------ <-- SCF
Initial  -2.38494807E+002                                         12.52  <-- SCF
      1  -2.38496000E+002                    7.46073979E-005      12.94  <-- SCF
      2  -2.38496000E+002                    1.28014851E-010      13.74  <-- SCF
      3  -2.38496001E+002                    2.81104257E-008      14.55  <-- SCF
      4  -2.38496001E+002                    1.45584492E-009      15.35  <-- SCF
      5  -2.38496001E+002                    7.44693935E-012      16.21  <-- SCF
      6  -2.38496001E+002                    1.28093399E-012      16.87  <-- SCF
------------------------------------------------------------------------ <-- SCF
 
Final energy =  -238.4960007340     eV
(energy not corrected for finite basis set)
 
Calculating total energy with cut-off of 1200.000 eV.
------------------------------------------------------------------------ <-- SCF
SCF loop      Energy                           Energy gain       Timer   <-- SCF
                                               per atom          (sec)   <-- SCF
------------------------------------------------------------------------ <-- SCF
Initial  -2.38496001E+002                                         17.60  <-- SCF
      1  -2.38497226E+002                    7.65604320E-005      18.04  <-- SCF
      2  -2.38497226E+002                    1.40488852E-010      18.84  <-- SCF
      3  -2.38497226E+002                    3.00460922E-008      19.66  <-- SCF
      4  -2.38497226E+002                    1.55953713E-009      20.46  <-- SCF
      5  -2.38497226E+002                    7.97864780E-012      21.15  <-- SCF
      6  -2.38497226E+002                    1.06039583E-012      21.83  <-- SCF
------------------------------------------------------------------------ <-- SCF
 
Final energy =  -238.4972262090     eV
(energy not corrected for finite basis set)
 
 For future reference: finite basis dEtot/dlog(Ecut) =      -0.288472eV
 Total energy corrected for finite basis set =    -238.497200 eV
 
+---------------- MEMORY AND SCRATCH DISK ESTIMATES PER PROCESS --------------+
|                                                     Memory          Disk    |
| Model and support data                               44.9 MB         0.0 MB |
| Electronic energy minimisation requirements          14.7 MB         0.0 MB |
| Geometry minimisation requirements                   16.5 MB         0.0 MB |
|                                               ----------------------------- |
| Approx. total storage required per process           76.1 MB         0.0 MB |
|                                                                             |
| Requirements will fluctuate during execution and may exceed these estimates |
+-----------------------------------------------------------------------------+
 

 ******************************** Symmetrised Forces ********************************
 *                                                                                  *
 *                           Cartesian components (eV/A)                            *
 * -------------------------------------------------------------------------------- *
 *                         x                    y                    z              *
 *                                                                                  *
 * H               1      0.00000              0.00000             -0.00000         *
 * H               2     -0.00000              0.00000             -0.00000         *
 * H               3      0.00000             -0.00000             -0.00000         *
 * H               4     -0.00000             -0.00000             -0.00000         *
 * H               5     -0.00000              0.00000             -0.00000         *
 * H               6      0.00000              0.00000             -0.00000         *
 * H               7     -0.00000              0.00000              0.00000         *
 * H               8      0.00000              0.00000              0.00000         *
 * H               9      0.00000              0.00000             -0.00000         *
 * H              10     -0.00000              0.00000             -0.00000         *
 * H              11      0.00000             -0.00000             -0.00000         *
 * H              12     -0.00000             -0.00000             -0.00000         *
 * H              13     -0.00000              0.00000              0.00000         *
 * H              14      0.00000              0.00000              0.00000         *
 * H              15     -0.00000              0.00000             -0.00000         *
 * H              16      0.00000              0.00000              0.00000         *
 *                                                                                  *
 ************************************************************************************

 *********** Symmetrised Stress Tensor ***********
 *                                               *
 *          Cartesian components (GPa)           *
 * --------------------------------------------- *
 *             x             y             z     *
 *                                               *
 *  x   -130.002582      0.000000      0.000000  *
 *  y      0.000000   -130.002577      0.000000  *
 *  z      0.000000      0.000000   -130.002582  *
 *                                               *
 *  Pressure:  130.0026                          *
 *                                               *
 *************************************************
 LBFGS: finished iteration     0 with enthalpy= -2.14144598E+002 eV
  
 +-----------+-----------------+-----------------+------------+-----+ <-- LBFGS
 | Parameter |      value      |    tolerance    |    units   | OK? | <-- LBFGS
 +-----------+-----------------+-----------------+------------+-----+ <-- LBFGS
 |  dE/ion   |   0.000000E+000 |   1.000000E-009 |         eV | No  | <-- LBFGS
 |  |F|max   |   2.643224E-007 |   1.000000E-005 |       eV/A | Yes | <-- LBFGS
 |  |dR|max  |   0.000000E+000 |   1.000000E-005 |          A | No  | <-- LBFGS
 |   Smax    |   1.000258E+001 |   1.000000E-005 |        GPa | No  | <-- LBFGS
 +-----------+-----------------+-----------------+------------+-----+ <-- LBFGS
  

================================================================================
 Starting LBFGS iteration          1 ...
================================================================================
  
 +------------+-------------+-------------+-----------------+ <-- min LBFGS
 |    Step    |   lambda    |   F.delta'  |    enthalpy     | <-- min LBFGS
 +------------+-------------+-------------+-----------------+ <-- min LBFGS
 |  previous  |    0.000000 |    0.129207 |     -214.144598 | <-- min LBFGS
 +------------+-------------+-------------+-----------------+ <-- min LBFGS
  

--------------------------------------------------------------------------------
 LBFGS: starting iteration         1 with trial guess (lambda=  1.000000)
--------------------------------------------------------------------------------
 
+---------------- MEMORY AND SCRATCH DISK ESTIMATES PER PROCESS --------------+
|                                                     Memory          Disk    |
| Model and support data                               44.9 MB         0.0 MB |
| Electronic energy minimisation requirements          14.9 MB         0.0 MB |
| Geometry minimisation requirements                   16.8 MB         0.0 MB |
|                                               ----------------------------- |
| Approx. total storage required per process           76.5 MB         0.0 MB |
|                                                                             |
| Requirements will fluctuate during execution and may exceed these estimates |
+-----------------------------------------------------------------------------+
 

                           -------------------------------
                                      Unit Cell
                           -------------------------------
        Real Lattice(A)              Reciprocal Lattice(1/A)
     3.0467798     0.0000000     0.0000000        2.062238053  -0.000000000   0.000000000
     0.0000000     1.8724229     0.0000000       -0.000000000   3.355644324   0.000000000
     0.0000000     0.0000000     5.8141842        0.000000000   0.000000000   1.080664989

                       Lattice parameters(A)       Cell Angles
                    a =      3.046780          alpha =   90.000000
                    b =      1.872423          beta  =   90.000000
                    c =      5.814184          gamma =   90.000000

                Current cell volume =            33.169109 A**3

                           -------------------------------
                                     Cell Contents
                           -------------------------------

            xxxxxxxxxxxxxxxxxxxxxxxxxxxxxxxxxxxxxxxxxxxxxxxxxxxxxxxxxxxxxxxxx
            x  Element         Atom        Fractional coordinates of atoms  x
            x                 Number           u          v          w      x
            x---------------------------------------------------------------x
            x  H                 1         0.402343   0.382791   0.000000   x
            x  H                 2        -0.402343   0.382791   0.500000   x
            x  H                 3         0.402343  -0.382791   0.500000   x
            x  H                 4        -0.402343  -0.382791   0.000000   x
            x  H                 5         0.366430   0.000000   0.250000   x
            x  H                 6        -0.366430   0.000000   0.750000   x
            x  H                 7         0.366430   0.000000   0.750000   x
            x  H                 8        -0.366430   0.000000   0.250000   x
            x  H                 9         0.902343   0.882791   0.500000   x
            x  H                10        -0.902343   0.882791   0.000000   x
            x  H                11         0.902343  -0.882791   0.000000   x
            x  H                12        -0.902343  -0.882791   0.500000   x
            x  H                13         0.866430   0.500000   0.750000   x
            x  H                14        -0.866430   0.500000   0.250000   x
            x  H                15         0.866430   0.500000   0.250000   x
            x  H                16        -0.866430   0.500000   0.750000   x
            xxxxxxxxxxxxxxxxxxxxxxxxxxxxxxxxxxxxxxxxxxxxxxxxxxxxxxxxxxxxxxxxx


------------------------------------------------------------------------ <-- SCF
SCF loop      Energy                           Energy gain       Timer   <-- SCF
                                               per atom          (sec)   <-- SCF
------------------------------------------------------------------------ <-- SCF
Initial  -2.39003591E+002                                         24.53  <-- SCF
      1  -2.39012301E+002                    5.44412310E-004      24.98  <-- SCF
      2  -2.39012347E+002                    2.86938423E-006      25.82  <-- SCF
      3  -2.39012246E+002                   -6.32862712E-006      26.64  <-- SCF
      4  -2.39012244E+002                   -1.28030579E-007      27.46  <-- SCF
      5  -2.39012244E+002                    7.48261215E-009      28.29  <-- SCF
      6  -2.39012244E+002                    6.91178688E-010      29.11  <-- SCF
      7  -2.39012244E+002                    1.74013674E-012      29.76  <-- SCF
      8  -2.39012244E+002                   -3.56486346E-013      30.41  <-- SCF
------------------------------------------------------------------------ <-- SCF
 
Final energy =  -239.0122439599     eV
(energy not corrected for finite basis set)
 

 ******************************** Symmetrised Forces ********************************
 *                                                                                  *
 *                           Cartesian components (eV/A)                            *
 * -------------------------------------------------------------------------------- *
 *                         x                    y                    z              *
 *                                                                                  *
 * H               1      0.10619              0.08042             -0.00000         *
 * H               2     -0.10619              0.08042             -0.00000         *
 * H               3      0.10619             -0.08042             -0.00000         *
 * H               4     -0.10619             -0.08042             -0.00000         *
 * H               5      0.09293              0.00000             -0.00000         *
 * H               6     -0.09293             -0.00000             -0.00000         *
 * H               7      0.09293              0.00000              0.00000         *
 * H               8     -0.09293              0.00000              0.00000         *
 * H               9      0.10619              0.08042             -0.00000         *
 * H              10     -0.10619              0.08042             -0.00000         *
 * H              11      0.10619             -0.08042             -0.00000         *
 * H              12     -0.10619             -0.08042             -0.00000         *
 * H              13      0.09293              0.00000              0.00000         *
 * H              14     -0.09293             -0.00000              0.00000         *
 * H              15      0.09293              0.00000              0.00000         *
 * H              16     -0.09293             -0.00000              0.00000         *
 *                                                                                  *
 ************************************************************************************

 *********** Symmetrised Stress Tensor ***********
 *                                               *
 *          Cartesian components (GPa)           *
 * --------------------------------------------- *
 *             x             y             z     *
 *                                               *
 *  x   -120.211548     -0.000000      0.000000  *
 *  y     -0.000000   -122.535940      0.000000  *
 *  z      0.000000      0.000000   -123.873463  *
 *                                               *
 *  Pressure:  122.2070                          *
 *                                               *
 *************************************************
  
 +------------+-------------+-------------+-----------------+ <-- min LBFGS
 |    Step    |   lambda    |   F.delta'  |    enthalpy     | <-- min LBFGS
 +------------+-------------+-------------+-----------------+ <-- min LBFGS
 |  previous  |    0.000000 |    0.129207 |     -214.144598 | <-- min LBFGS
 | trial step |    1.000000 |    0.028890 |     -214.169221 | <-- min LBFGS
 +------------+-------------+-------------+-----------------+ <-- min LBFGS
  
 LBFGS: finished iteration     1 with enthalpy= -2.14169221E+002 eV
  
 +-----------+-----------------+-----------------+------------+-----+ <-- LBFGS
 | Parameter |      value      |    tolerance    |    units   | OK? | <-- LBFGS
 +-----------+-----------------+-----------------+------------+-----+ <-- LBFGS
 |  dE/ion   |   1.538918E-003 |   1.000000E-009 |         eV | No  | <-- LBFGS
 |  |F|max   |   1.332034E-001 |   1.000000E-005 |       eV/A | No  | <-- LBFGS
 |  |dR|max  |   2.580758E-008 |   1.000000E-005 |          A | Yes | <-- LBFGS
 |   Smax    |   3.873463E+000 |   1.000000E-005 |        GPa | No  | <-- LBFGS
 +-----------+-----------------+-----------------+------------+-----+ <-- LBFGS
  

================================================================================
 Starting LBFGS iteration          2 ...
================================================================================
  
 +------------+-------------+-------------+-----------------+ <-- min LBFGS
 |    Step    |   lambda    |   F.delta'  |    enthalpy     | <-- min LBFGS
 +------------+-------------+-------------+-----------------+ <-- min LBFGS
 |  previous  |    0.000000 |    0.053599 |     -214.169221 | <-- min LBFGS
 +------------+-------------+-------------+-----------------+ <-- min LBFGS
  

--------------------------------------------------------------------------------
 LBFGS: starting iteration         2 with trial guess (lambda=  1.000000)
--------------------------------------------------------------------------------
 
+---------------- MEMORY AND SCRATCH DISK ESTIMATES PER PROCESS --------------+
|                                                     Memory          Disk    |
| Model and support data                               44.9 MB         0.0 MB |
| Electronic energy minimisation requirements          15.1 MB         0.0 MB |
| Geometry minimisation requirements                   17.0 MB         0.0 MB |
|                                               ----------------------------- |
| Approx. total storage required per process           77.0 MB         0.0 MB |
|                                                                             |
| Requirements will fluctuate during execution and may exceed these estimates |
+-----------------------------------------------------------------------------+
 

                           -------------------------------
                                      Unit Cell
                           -------------------------------
        Real Lattice(A)              Reciprocal Lattice(1/A)
     3.0652252     0.0000000     0.0000000        2.049828258  -0.000000000   0.000000000
     0.0000000     1.8875207     0.0000000       -0.000000000   3.328803424   0.000000000
     0.0000000     0.0000000     5.8677873        0.000000000   0.000000000   1.070792961

                       Lattice parameters(A)       Cell Angles
                    a =      3.065225          alpha =   90.000000
                    b =      1.887521          beta  =   90.000000
                    c =      5.867787          gamma =   90.000000

                Current cell volume =            33.949116 A**3

                           -------------------------------
                                     Cell Contents
                           -------------------------------

            xxxxxxxxxxxxxxxxxxxxxxxxxxxxxxxxxxxxxxxxxxxxxxxxxxxxxxxxxxxxxxxxx
            x  Element         Atom        Fractional coordinates of atoms  x
            x                 Number           u          v          w      x
            x---------------------------------------------------------------x
            x  H                 1         0.406755   0.388228   0.000000   x
            x  H                 2        -0.406755   0.388228   0.500000   x
            x  H                 3         0.406755  -0.388228   0.500000   x
            x  H                 4        -0.406755  -0.388228   0.000000   x
            x  H                 5         0.370291   0.000000   0.250000   x
            x  H                 6        -0.370291  -0.000000   0.750000   x
            x  H                 7         0.370291   0.000000   0.750000   x
            x  H                 8        -0.370291  -0.000000   0.250000   x
            x  H                 9         0.906755   0.888228   0.500000   x
            x  H                10        -0.906755   0.888228   0.000000   x
            x  H                11         0.906755  -0.888228   0.000000   x
            x  H                12        -0.906755  -0.888228   0.500000   x
            x  H                13         0.870291   0.500000   0.750000   x
            x  H                14        -0.870291   0.500000   0.250000   x
            x  H                15         0.870291   0.500000   0.250000   x
            x  H                16        -0.870291   0.500000   0.750000   x
            xxxxxxxxxxxxxxxxxxxxxxxxxxxxxxxxxxxxxxxxxxxxxxxxxxxxxxxxxxxxxxxxx


------------------------------------------------------------------------ <-- SCF
SCF loop      Energy                           Energy gain       Timer   <-- SCF
                                               per atom          (sec)   <-- SCF
------------------------------------------------------------------------ <-- SCF
Initial  -2.39203953E+002                                         33.09  <-- SCF
      1  -2.39587138E+002                    2.39490603E-002      33.53  <-- SCF
      2  -2.39588858E+002                    1.07534333E-004      34.35  <-- SCF
      3  -2.39563955E+002                   -1.55643717E-003      35.19  <-- SCF
      4  -2.39562910E+002                   -6.53034556E-005      36.03  <-- SCF
      5  -2.39562913E+002                    1.82859487E-007      36.86  <-- SCF
      6  -2.39562914E+002                    1.73912800E-008      37.69  <-- SCF
      7  -2.39562914E+002                    1.66575798E-010      38.46  <-- SCF
      8  -2.39562914E+002                    1.84134261E-011      39.14  <-- SCF
      9  -2.39562914E+002                    6.25361641E-013      39.81  <-- SCF
     10  -2.39562914E+002                   -5.83066651E-013      40.47  <-- SCF
------------------------------------------------------------------------ <-- SCF
 
Final energy =  -239.5629136899     eV
(energy not corrected for finite basis set)
 

 ******************************** Symmetrised Forces ********************************
 *                                                                                  *
 *                           Cartesian components (eV/A)                            *
 * -------------------------------------------------------------------------------- *
 *                         x                    y                    z              *
 *                                                                                  *
 * H               1     -0.65245             -0.49932              0.00000         *
 * H               2      0.65245             -0.49932              0.00000         *
 * H               3     -0.65245              0.49932              0.00000         *
 * H               4      0.65245              0.49932              0.00000         *
 * H               5     -0.00065              0.00000              0.00000         *
 * H               6      0.00065             -0.00000             -0.00000         *
 * H               7     -0.00065             -0.00000             -0.00000         *
 * H               8      0.00065             -0.00000              0.00000         *
 * H               9     -0.65245             -0.49932              0.00000         *
 * H              10      0.65245             -0.49932              0.00000         *
 * H              11     -0.65245              0.49932              0.00000         *
 * H              12      0.65245              0.49932              0.00000         *
 * H              13     -0.00065              0.00000             -0.00000         *
 * H              14      0.00065             -0.00000             -0.00000         *
 * H              15     -0.00065              0.00000              0.00000         *
 * H              16      0.00065             -0.00000             -0.00000         *
 *                                                                                  *
 ************************************************************************************

 *********** Symmetrised Stress Tensor ***********
 *                                               *
 *          Cartesian components (GPa)           *
 * --------------------------------------------- *
 *             x             y             z     *
 *                                               *
 *  x   -123.836614      0.000000      0.000000  *
 *  y      0.000000   -121.508871      0.000000  *
 *  z      0.000000      0.000000   -116.693412  *
 *                                               *
 *  Pressure:  120.6796                          *
 *                                               *
 *************************************************
  
 +------------+-------------+-------------+-----------------+ <-- min LBFGS
 |    Step    |   lambda    |   F.delta'  |    enthalpy     | <-- min LBFGS
 +------------+-------------+-------------+-----------------+ <-- min LBFGS
 |  previous  |    0.000000 |    0.053599 |     -214.169221 | <-- min LBFGS
 | trial step |    1.000000 |   -0.153545 |     -214.135658 | <-- min LBFGS
 +------------+-------------+-------------+-----------------+ <-- min LBFGS
  

--------------------------------------------------------------------------------
 LBFGS: improving iteration         2 with line minimization (lambda=  0.258753)
--------------------------------------------------------------------------------

                           -------------------------------
                                      Unit Cell
                           -------------------------------
        Real Lattice(A)              Reciprocal Lattice(1/A)
     3.0515526     0.0000000     0.0000000        2.059012589  -0.000000000   0.000000000
     0.0000000     1.8763295     0.0000000       -0.000000000   3.348657727   0.000000000
     0.0000000     0.0000000     5.8280542        0.000000000   0.000000000   1.078093153

                       Lattice parameters(A)       Cell Angles
                    a =      3.051553          alpha =   90.000000
                    b =      1.876330          beta  =   90.000000
                    c =      5.828054          gamma =   90.000000

                Current cell volume =            33.369796 A**3

                           -------------------------------
                                     Cell Contents
                           -------------------------------

            xxxxxxxxxxxxxxxxxxxxxxxxxxxxxxxxxxxxxxxxxxxxxxxxxxxxxxxxxxxxxxxxx
            x  Element         Atom        Fractional coordinates of atoms  x
            x                 Number           u          v          w      x
            x---------------------------------------------------------------x
            x  H                 1         0.403485   0.384198   0.000000   x
            x  H                 2        -0.403485   0.384198   0.500000   x
            x  H                 3         0.403485  -0.384198   0.500000   x
            x  H                 4        -0.403485  -0.384198   0.000000   x
            x  H                 5         0.367429   0.000000   0.250000   x
            x  H                 6        -0.367429  -0.000000   0.750000   x
            x  H                 7         0.367429   0.000000   0.750000   x
            x  H                 8        -0.367429  -0.000000   0.250000   x
            x  H                 9         0.903485   0.884198   0.500000   x
            x  H                10        -0.903485   0.884198   0.000000   x
            x  H                11         0.903485  -0.884198   0.000000   x
            x  H                12        -0.903485  -0.884198   0.500000   x
            x  H                13         0.867429   0.500000   0.750000   x
            x  H                14        -0.867429   0.500000   0.250000   x
            x  H                15         0.867429   0.500000   0.250000   x
            x  H                16        -0.867429   0.500000   0.750000   x
            xxxxxxxxxxxxxxxxxxxxxxxxxxxxxxxxxxxxxxxxxxxxxxxxxxxxxxxxxxxxxxxxx


------------------------------------------------------------------------ <-- SCF
SCF loop      Energy                           Energy gain       Timer   <-- SCF
                                               per atom          (sec)   <-- SCF
------------------------------------------------------------------------ <-- SCF
Initial  -2.38966665E+002                                         43.16  <-- SCF
      1  -2.39181632E+002                    1.34354947E-002      43.61  <-- SCF
      2  -2.39182661E+002                    6.43007887E-005      44.43  <-- SCF
      3  -2.39168487E+002                   -8.85865931E-004      45.27  <-- SCF
      4  -2.39167903E+002                   -3.64963268E-005      46.11  <-- SCF
      5  -2.39167905E+002                    7.93888900E-008      46.94  <-- SCF
      6  -2.39167905E+002                    7.17247205E-009      47.76  <-- SCF
      7  -2.39167905E+002                    7.03758426E-011      48.51  <-- SCF
      8  -2.39167905E+002                    9.00279077E-012      49.18  <-- SCF
      9  -2.39167905E+002                   -1.81264244E-014      49.84  <-- SCF
------------------------------------------------------------------------ <-- SCF
 
Final energy =  -239.1679048225     eV
(energy not corrected for finite basis set)
 

 ******************************** Symmetrised Forces ********************************
 *                                                                                  *
 *                           Cartesian components (eV/A)                            *
 * -------------------------------------------------------------------------------- *
 *                         x                    y                    z              *
 *                                                                                  *
 * H               1     -0.07166             -0.05581              0.00000         *
 * H               2      0.07166             -0.05581              0.00000         *
 * H               3     -0.07166              0.05581              0.00000         *
 * H               4      0.07166              0.05581              0.00000         *
 * H               5      0.07158             -0.00000             -0.00000         *
 * H               6     -0.07158              0.00000             -0.00000         *
 * H               7      0.07158             -0.00000              0.00000         *
 * H               8     -0.07158              0.00000              0.00000         *
 * H               9     -0.07166             -0.05581              0.00000         *
 * H              10      0.07166             -0.05581              0.00000         *
 * H              11     -0.07166              0.05581              0.00000         *
 * H              12      0.07166              0.05581              0.00000         *
 * H              13      0.07158             -0.00000             -0.00000         *
 * H              14     -0.07158             -0.00000              0.00000         *
 * H              15      0.07158              0.00000             -0.00000         *
 * H              16     -0.07158              0.00000             -0.00000         *
 *                                                                                  *
 ************************************************************************************

 *********** Symmetrised Stress Tensor ***********
 *                                               *
 *          Cartesian components (GPa)           *
 * --------------------------------------------- *
 *             x             y             z     *
 *                                               *
 *  x   -120.991098      0.000000      0.000000  *
 *  y      0.000000   -122.132533      0.000000  *
 *  z      0.000000      0.000000   -121.942614  *
 *                                               *
 *  Pressure:  121.6887                          *
 *                                               *
 *************************************************
  
 +------------+-------------+-------------+-----------------+ <-- min LBFGS
 |    Step    |   lambda    |   F.delta'  |    enthalpy     | <-- min LBFGS
 +------------+-------------+-------------+-----------------+ <-- min LBFGS
 |  previous  |    0.000000 |    0.053599 |     -214.169221 | <-- min LBFGS
 | trial step |    1.000000 |   -0.153545 |     -214.135658 | <-- min LBFGS
 |  line step |    0.258753 |    0.004188 |     -214.174575 | <-- min LBFGS
 +------------+-------------+-------------+-----------------+ <-- min LBFGS
  
 LBFGS: finished iteration     2 with enthalpy= -2.14174575E+002 eV
  
 +-----------+-----------------+-----------------+------------+-----+ <-- LBFGS
 | Parameter |      value      |    tolerance    |    units   | OK? | <-- LBFGS
 +-----------+-----------------+-----------------+------------+-----+ <-- LBFGS
 |  dE/ion   |   3.346272E-004 |   1.000000E-009 |         eV | No  | <-- LBFGS
 |  |F|max   |   9.082995E-002 |   1.000000E-005 |       eV/A | No  | <-- LBFGS
 |  |dR|max  |   4.370933E-003 |   1.000000E-005 |          A | No  | <-- LBFGS
 |   Smax    |   2.132533E+000 |   1.000000E-005 |        GPa | No  | <-- LBFGS
 +-----------+-----------------+-----------------+------------+-----+ <-- LBFGS
  

================================================================================
 Starting LBFGS iteration          3 ...
================================================================================
  
 +------------+-------------+-------------+-----------------+ <-- min LBFGS
 |    Step    |   lambda    |   F.delta'  |    enthalpy     | <-- min LBFGS
 +------------+-------------+-------------+-----------------+ <-- min LBFGS
 |  previous  |    0.000000 |    0.034255 |     -214.174575 | <-- min LBFGS
 +------------+-------------+-------------+-----------------+ <-- min LBFGS
  

--------------------------------------------------------------------------------
 LBFGS: starting iteration         3 with trial guess (lambda=  1.000000)
--------------------------------------------------------------------------------

                           -------------------------------
                                      Unit Cell
                           -------------------------------
        Real Lattice(A)              Reciprocal Lattice(1/A)
     3.0595726     0.0000000     0.0000000        2.053615391  -0.000000000   0.000000000
     0.0000000     1.8845738     0.0000000       -0.000000000   3.334008547   0.000000000
     0.0000000     0.0000000     5.8559792        0.000000000   0.000000000   1.072952116

                       Lattice parameters(A)       Cell Angles
                    a =      3.059573          alpha =   90.000000
                    b =      1.884574          beta  =   90.000000
                    c =      5.855979          gamma =   90.000000

                Current cell volume =            33.765520 A**3

                           -------------------------------
                                     Cell Contents
                           -------------------------------

            xxxxxxxxxxxxxxxxxxxxxxxxxxxxxxxxxxxxxxxxxxxxxxxxxxxxxxxxxxxxxxxxx
            x  Element         Atom        Fractional coordinates of atoms  x
            x                 Number           u          v          w      x
            x---------------------------------------------------------------x
            x  H                 1         0.403031   0.383548   0.000000   x
            x  H                 2        -0.403031   0.383548   0.500000   x
            x  H                 3         0.403031  -0.383548   0.500000   x
            x  H                 4        -0.403031  -0.383548   0.000000   x
            x  H                 5         0.371738   0.000000   0.250000   x
            x  H                 6        -0.371738  -0.000000   0.750000   x
            x  H                 7         0.371738   0.000000   0.750000   x
            x  H                 8        -0.371738  -0.000000   0.250000   x
            x  H                 9         0.903031   0.883548   0.500000   x
            x  H                10        -0.903031   0.883548   0.000000   x
            x  H                11         0.903031  -0.883548   0.000000   x
            x  H                12        -0.903031  -0.883548   0.500000   x
            x  H                13         0.871738   0.500000   0.750000   x
            x  H                14        -0.871738   0.500000   0.250000   x
            x  H                15         0.871738   0.500000   0.250000   x
            x  H                16        -0.871738   0.500000   0.750000   x
            xxxxxxxxxxxxxxxxxxxxxxxxxxxxxxxxxxxxxxxxxxxxxxxxxxxxxxxxxxxxxxxxx


------------------------------------------------------------------------ <-- SCF
SCF loop      Energy                           Energy gain       Timer   <-- SCF
                                               per atom          (sec)   <-- SCF
------------------------------------------------------------------------ <-- SCF
Initial  -2.39317374E+002                                         52.56  <-- SCF
      1  -2.39474786E+002                    9.83823723E-003      53.01  <-- SCF
      2  -2.39475597E+002                    5.06755988E-005      53.83  <-- SCF
      3  -2.39464805E+002                   -6.74518540E-004      54.66  <-- SCF
      4  -2.39464463E+002                   -2.13801972E-005      55.52  <-- SCF
      5  -2.39464461E+002                   -1.06936064E-007      56.36  <-- SCF
      6  -2.39464461E+002                    2.13731691E-010      57.20  <-- SCF
      7  -2.39464461E+002                    1.53246834E-010      57.97  <-- SCF
      8  -2.39464461E+002                    2.11414530E-011      58.65  <-- SCF
      9  -2.39464461E+002                    3.02107073E-013      59.30  <-- SCF
     10  -2.39464461E+002                    2.32622446E-013      59.97  <-- SCF
------------------------------------------------------------------------ <-- SCF
 
Final energy =  -239.4644608675     eV
(energy not corrected for finite basis set)
 

 ******************************** Symmetrised Forces ********************************
 *                                                                                  *
 *                           Cartesian components (eV/A)                            *
 * -------------------------------------------------------------------------------- *
 *                         x                    y                    z              *
 *                                                                                  *
 * H               1      0.04633              0.05725              0.00000         *
 * H               2     -0.04633              0.05725              0.00000         *
 * H               3      0.04633             -0.05725              0.00000         *
 * H               4     -0.04633             -0.05725              0.00000         *
 * H               5     -0.11246             -0.00000             -0.00000         *
 * H               6      0.11246             -0.00000              0.00000         *
 * H               7     -0.11246             -0.00000              0.00000         *
 * H               8      0.11246             -0.00000             -0.00000         *
 * H               9      0.04633              0.05725              0.00000         *
 * H              10     -0.04633              0.05725              0.00000         *
 * H              11      0.04633             -0.05725              0.00000         *
 * H              12     -0.04633             -0.05725              0.00000         *
 * H              13     -0.11246             -0.00000              0.00000         *
 * H              14      0.11246             -0.00000             -0.00000         *
 * H              15     -0.11246             -0.00000              0.00000         *
 * H              16      0.11246             -0.00000              0.00000         *
 *                                                                                  *
 ************************************************************************************

 *********** Symmetrised Stress Tensor ***********
 *                                               *
 *          Cartesian components (GPa)           *
 * --------------------------------------------- *
 *             x             y             z     *
 *                                               *
 *  x   -120.163801      0.000000      0.000000  *
 *  y      0.000000   -119.838467      0.000000  *
 *  z      0.000000      0.000000   -118.863185  *
 *                                               *
 *  Pressure:  119.6218                          *
 *                                               *
 *************************************************
  
 +------------+-------------+-------------+-----------------+ <-- min LBFGS
 |    Step    |   lambda    |   F.delta'  |    enthalpy     | <-- min LBFGS
 +------------+-------------+-------------+-----------------+ <-- min LBFGS
 |  previous  |    0.000000 |    0.034255 |     -214.174575 | <-- min LBFGS
 | trial step |    1.000000 |   -0.036411 |     -214.174744 | <-- min LBFGS
 +------------+-------------+-------------+-----------------+ <-- min LBFGS
  

--------------------------------------------------------------------------------
 LBFGS: improving iteration         3 with line minimization (lambda=  0.484746)
--------------------------------------------------------------------------------

                           -------------------------------
                                      Unit Cell
                           -------------------------------
        Real Lattice(A)              Reciprocal Lattice(1/A)
     3.0554403     0.0000000     0.0000000        2.056392782  -0.000000000   0.000000000
     0.0000000     1.8803259     0.0000000       -0.000000000   3.341540557   0.000000000
     0.0000000     0.0000000     5.8415907        0.000000000   0.000000000   1.075594919

                       Lattice parameters(A)       Cell Angles
                    a =      3.055440          alpha =   90.000000
                    b =      1.880326          beta  =   90.000000
                    c =      5.841591          gamma =   90.000000

                Current cell volume =            33.561244 A**3

                           -------------------------------
                                     Cell Contents
                           -------------------------------

            xxxxxxxxxxxxxxxxxxxxxxxxxxxxxxxxxxxxxxxxxxxxxxxxxxxxxxxxxxxxxxxxx
            x  Element         Atom        Fractional coordinates of atoms  x
            x                 Number           u          v          w      x
            x---------------------------------------------------------------x
            x  H                 1         0.403265   0.383883   0.000000   x
            x  H                 2        -0.403265   0.383883   0.500000   x
            x  H                 3         0.403265  -0.383883   0.500000   x
            x  H                 4        -0.403265  -0.383883   0.000000   x
            x  H                 5         0.369518   0.000000   0.250000   x
            x  H                 6        -0.369518  -0.000000   0.750000   x
            x  H                 7         0.369518   0.000000   0.750000   x
            x  H                 8        -0.369518  -0.000000   0.250000   x
            x  H                 9         0.903265   0.883883   0.500000   x
            x  H                10        -0.903265   0.883883   0.000000   x
            x  H                11         0.903265  -0.883883   0.000000   x
            x  H                12        -0.903265  -0.883883   0.500000   x
            x  H                13         0.869518   0.500000   0.750000   x
            x  H                14        -0.869518   0.500000   0.250000   x
            x  H                15         0.869518   0.500000   0.250000   x
            x  H                16        -0.869518   0.500000   0.750000   x
            xxxxxxxxxxxxxxxxxxxxxxxxxxxxxxxxxxxxxxxxxxxxxxxxxxxxxxxxxxxxxxxxx


------------------------------------------------------------------------ <-- SCF
SCF loop      Energy                           Energy gain       Timer   <-- SCF
                                               per atom          (sec)   <-- SCF
------------------------------------------------------------------------ <-- SCF
Initial  -2.39275489E+002                                         62.66  <-- SCF
      1  -2.39317638E+002                    2.63427365E-003      63.13  <-- SCF
      2  -2.39317854E+002                    1.35010471E-005      63.96  <-- SCF
      3  -2.39314877E+002                   -1.86070299E-004      64.81  <-- SCF
      4  -2.39314784E+002                   -5.78155222E-006      65.68  <-- SCF
      5  -2.39314784E+002                   -3.11068898E-008      66.54  <-- SCF
      6  -2.39314784E+002                    3.59598049E-011      67.41  <-- SCF
      7  -2.39314784E+002                    4.73673680E-011      68.12  <-- SCF
      8  -2.39314784E+002                    5.14488345E-012      68.79  <-- SCF
      9  -2.39314784E+002                    8.76110512E-013      69.46  <-- SCF
------------------------------------------------------------------------ <-- SCF
 
Final energy =  -239.3147837173     eV
(energy not corrected for finite basis set)
 

 ******************************** Symmetrised Forces ********************************
 *                                                                                  *
 *                           Cartesian components (eV/A)                            *
 * -------------------------------------------------------------------------------- *
 *                         x                    y                    z              *
 *                                                                                  *
 * H               1     -0.01303             -0.00043              0.00000         *
 * H               2      0.01303             -0.00043              0.00000         *
 * H               3     -0.01303              0.00043              0.00000         *
 * H               4      0.01303              0.00043              0.00000         *
 * H               5     -0.00684              0.00000             -0.00000         *
 * H               6      0.00684              0.00000              0.00000         *
 * H               7     -0.00684              0.00000              0.00000         *
 * H               8      0.00684              0.00000             -0.00000         *
 * H               9     -0.01303             -0.00043              0.00000         *
 * H              10      0.01303             -0.00043              0.00000         *
 * H              11     -0.01303              0.00043              0.00000         *
 * H              12      0.01303              0.00043              0.00000         *
 * H              13     -0.00684              0.00000              0.00000         *
 * H              14      0.00684              0.00000             -0.00000         *
 * H              15     -0.00684              0.00000             -0.00000         *
 * H              16      0.00684              0.00000             -0.00000         *
 *                                                                                  *
 ************************************************************************************

 *********** Symmetrised Stress Tensor ***********
 *                                               *
 *          Cartesian components (GPa)           *
 * --------------------------------------------- *
 *             x             y             z     *
 *                                               *
 *  x   -120.425310      0.000000      0.000000  *
 *  y      0.000000   -121.012313      0.000000  *
 *  z      0.000000      0.000000   -120.434297  *
 *                                               *
 *  Pressure:  120.6240                          *
 *                                               *
 *************************************************
  
 +------------+-------------+-------------+-----------------+ <-- min LBFGS
 |    Step    |   lambda    |   F.delta'  |    enthalpy     | <-- min LBFGS
 +------------+-------------+-------------+-----------------+ <-- min LBFGS
 |  previous  |    0.000000 |    0.034255 |     -214.174575 | <-- min LBFGS
 | trial step |    1.000000 |   -0.036411 |     -214.174744 | <-- min LBFGS
 |  line step |    0.484746 |    0.002643 |     -214.178080 | <-- min LBFGS
 +------------+-------------+-------------+-----------------+ <-- min LBFGS
  
 LBFGS: finished iteration     3 with enthalpy= -2.14178080E+002 eV
  
 +-----------+-----------------+-----------------+------------+-----+ <-- LBFGS
 | Parameter |      value      |    tolerance    |    units   | OK? | <-- LBFGS
 +-----------+-----------------+-----------------+------------+-----+ <-- LBFGS
 |  dE/ion   |   2.190837E-004 |   1.000000E-009 |         eV | No  | <-- LBFGS
 |  |F|max   |   1.304142E-002 |   1.000000E-005 |       eV/A | No  | <-- LBFGS
 |  |dR|max  |   6.382632E-003 |   1.000000E-005 |          A | No  | <-- LBFGS
 |   Smax    |   1.012313E+000 |   1.000000E-005 |        GPa | No  | <-- LBFGS
 +-----------+-----------------+-----------------+------------+-----+ <-- LBFGS
  

================================================================================
 Starting LBFGS iteration          4 ...
================================================================================
  
 +------------+-------------+-------------+-----------------+ <-- min LBFGS
 |    Step    |   lambda    |   F.delta'  |    enthalpy     | <-- min LBFGS
 +------------+-------------+-------------+-----------------+ <-- min LBFGS
 |  previous  |    0.000000 |    0.007586 |     -214.178080 | <-- min LBFGS
 +------------+-------------+-------------+-----------------+ <-- min LBFGS
  

--------------------------------------------------------------------------------
 LBFGS: starting iteration         4 with trial guess (lambda=  1.000000)
--------------------------------------------------------------------------------

                           -------------------------------
                                      Unit Cell
                           -------------------------------
        Real Lattice(A)              Reciprocal Lattice(1/A)
     3.0565773     0.0000000     0.0000000        2.055627840  -0.000000000   0.000000000
     0.0000000     1.8821030     0.0000000       -0.000000000   3.338385434   0.000000000
     0.0000000     0.0000000     5.8451118        0.000000000   0.000000000   1.074946993

                       Lattice parameters(A)       Cell Angles
                    a =      3.056577          alpha =   90.000000
                    b =      1.882103          beta  =   90.000000
                    c =      5.845112          gamma =   90.000000

                Current cell volume =            33.625720 A**3

                           -------------------------------
                                     Cell Contents
                           -------------------------------

            xxxxxxxxxxxxxxxxxxxxxxxxxxxxxxxxxxxxxxxxxxxxxxxxxxxxxxxxxxxxxxxxx
            x  Element         Atom        Fractional coordinates of atoms  x
            x                 Number           u          v          w      x
            x---------------------------------------------------------------x
            x  H                 1         0.403101   0.384220   0.000000   x
            x  H                 2        -0.403101   0.384220   0.500000   x
            x  H                 3         0.403101  -0.384220   0.500000   x
            x  H                 4        -0.403101  -0.384220   0.000000   x
            x  H                 5         0.369565   0.000000   0.250000   x
            x  H                 6        -0.369565  -0.000000   0.750000   x
            x  H                 7         0.369565   0.000000   0.750000   x
            x  H                 8        -0.369565  -0.000000   0.250000   x
            x  H                 9         0.903101   0.884220   0.500000   x
            x  H                10        -0.903101   0.884220   0.000000   x
            x  H                11         0.903101  -0.884220   0.000000   x
            x  H                12        -0.903101  -0.884220   0.500000   x
            x  H                13         0.869565   0.500000   0.750000   x
            x  H                14        -0.869565   0.500000   0.250000   x
            x  H                15         0.869565   0.500000   0.250000   x
            x  H                16        -0.869565   0.500000   0.750000   x
            xxxxxxxxxxxxxxxxxxxxxxxxxxxxxxxxxxxxxxxxxxxxxxxxxxxxxxxxxxxxxxxxx


------------------------------------------------------------------------ <-- SCF
SCF loop      Energy                           Energy gain       Timer   <-- SCF
                                               per atom          (sec)   <-- SCF
------------------------------------------------------------------------ <-- SCF
Initial  -2.39362506E+002                                         72.18  <-- SCF
      1  -2.39363269E+002                    4.77123253E-005      72.63  <-- SCF
      2  -2.39363273E+002                    2.31467557E-007      73.47  <-- SCF
      3  -2.39363274E+002                    5.52806670E-008      74.29  <-- SCF
      4  -2.39363274E+002                    1.63886894E-008      75.11  <-- SCF
      5  -2.39363274E+002                    2.73497533E-010      75.91  <-- SCF
      6  -2.39363274E+002                    3.00294431E-011      76.57  <-- SCF
      7  -2.39363274E+002                    8.36836592E-013      77.23  <-- SCF
      8  -2.39363274E+002                   -1.02716405E-013      77.89  <-- SCF
------------------------------------------------------------------------ <-- SCF
 
Final energy =  -239.3632737945     eV
(energy not corrected for finite basis set)
 

 ******************************** Symmetrised Forces ********************************
 *                                                                                  *
 *                           Cartesian components (eV/A)                            *
 * -------------------------------------------------------------------------------- *
 *                         x                    y                    z              *
 *                                                                                  *
 * H               1     -0.00352              0.00609              0.00000         *
 * H               2      0.00352              0.00609              0.00000         *
 * H               3     -0.00352             -0.00609              0.00000         *
 * H               4      0.00352             -0.00609              0.00000         *
 * H               5      0.00057             -0.00000             -0.00000         *
 * H               6     -0.00057             -0.00000              0.00000         *
 * H               7      0.00057              0.00000              0.00000         *
 * H               8     -0.00057             -0.00000              0.00000         *
 * H               9     -0.00352              0.00609              0.00000         *
 * H              10      0.00352              0.00609              0.00000         *
 * H              11     -0.00352             -0.00609              0.00000         *
 * H              12      0.00352             -0.00609              0.00000         *
 * H              13      0.00057             -0.00000             -0.00000         *
 * H              14     -0.00057              0.00000              0.00000         *
 * H              15      0.00057             -0.00000              0.00000         *
 * H              16     -0.00057             -0.00000             -0.00000         *
 *                                                                                  *
 ************************************************************************************

 *********** Symmetrised Stress Tensor ***********
 *                                               *
 *          Cartesian components (GPa)           *
 * --------------------------------------------- *
 *             x             y             z     *
 *                                               *
 *  x   -119.728313      0.000000      0.000000  *
 *  y      0.000000   -120.277197      0.000000  *
 *  z      0.000000      0.000000   -119.873709  *
 *                                               *
 *  Pressure:  119.9597                          *
 *                                               *
 *************************************************
  
 +------------+-------------+-------------+-----------------+ <-- min LBFGS
 |    Step    |   lambda    |   F.delta'  |    enthalpy     | <-- min LBFGS
 +------------+-------------+-------------+-----------------+ <-- min LBFGS
 |  previous  |    0.000000 |    0.007586 |     -214.178080 | <-- min LBFGS
 | trial step |    1.000000 |    0.001454 |     -214.178257 | <-- min LBFGS
 +------------+-------------+-------------+-----------------+ <-- min LBFGS
  
 LBFGS: finished iteration     4 with enthalpy= -2.14178257E+002 eV
  
 +-----------+-----------------+-----------------+------------+-----+ <-- LBFGS
 | Parameter |      value      |    tolerance    |    units   | OK? | <-- LBFGS
 +-----------+-----------------+-----------------+------------+-----+ <-- LBFGS
 |  dE/ion   |   1.106018E-005 |   1.000000E-009 |         eV | No  | <-- LBFGS
 |  |F|max   |   7.032437E-003 |   1.000000E-005 |       eV/A | No  | <-- LBFGS
 |  |dR|max  |   8.071719E-004 |   1.000000E-005 |          A | No  | <-- LBFGS
 |   Smax    |   2.771970E-001 |   1.000000E-005 |        GPa | No  | <-- LBFGS
 +-----------+-----------------+-----------------+------------+-----+ <-- LBFGS
  

================================================================================
 Starting LBFGS iteration          5 ...
================================================================================
  
 +------------+-------------+-------------+-----------------+ <-- min LBFGS
 |    Step    |   lambda    |   F.delta'  |    enthalpy     | <-- min LBFGS
 +------------+-------------+-------------+-----------------+ <-- min LBFGS
 |  previous  |    0.000000 |    0.002293 |     -214.178257 | <-- min LBFGS
 +------------+-------------+-------------+-----------------+ <-- min LBFGS
  

--------------------------------------------------------------------------------
 LBFGS: starting iteration         5 with trial guess (lambda=  1.000000)
--------------------------------------------------------------------------------

                           -------------------------------
                                      Unit Cell
                           -------------------------------
        Real Lattice(A)              Reciprocal Lattice(1/A)
     3.0562357     0.0000000     0.0000000        2.055857575  -0.000000000   0.000000000
     0.0000000     1.8830031     0.0000000       -0.000000000   3.336789624   0.000000000
     0.0000000     0.0000000     5.8454505        0.000000000   0.000000000   1.074884707

                       Lattice parameters(A)       Cell Angles
                    a =      3.056236          alpha =   90.000000
                    b =      1.883003          beta  =   90.000000
                    c =      5.845450          gamma =   90.000000

                Current cell volume =            33.639991 A**3

                           -------------------------------
                                     Cell Contents
                           -------------------------------

            xxxxxxxxxxxxxxxxxxxxxxxxxxxxxxxxxxxxxxxxxxxxxxxxxxxxxxxxxxxxxxxxx
            x  Element         Atom        Fractional coordinates of atoms  x
            x                 Number           u          v          w      x
            x---------------------------------------------------------------x
            x  H                 1         0.402891   0.384656   0.000000   x
            x  H                 2        -0.402891   0.384656   0.500000   x
            x  H                 3         0.402891  -0.384656   0.500000   x
            x  H                 4        -0.402891  -0.384656   0.000000   x
            x  H                 5         0.369602   0.000000   0.250000   x
            x  H                 6        -0.369602  -0.000000   0.750000   x
            x  H                 7         0.369602   0.000000   0.750000   x
            x  H                 8        -0.369602   0.000000   0.250000   x
            x  H                 9         0.902891   0.884656   0.500000   x
            x  H                10        -0.902891   0.884656   0.000000   x
            x  H                11         0.902891  -0.884656   0.000000   x
            x  H                12        -0.902891  -0.884656   0.500000   x
            x  H                13         0.869602   0.500000   0.750000   x
            x  H                14        -0.869602   0.500000   0.250000   x
            x  H                15         0.869602   0.500000   0.250000   x
            x  H                16        -0.869602   0.500000   0.750000   x
            xxxxxxxxxxxxxxxxxxxxxxxxxxxxxxxxxxxxxxxxxxxxxxxxxxxxxxxxxxxxxxxxx


[...]
            x  H                 1         0.401095   0.388501   0.000000   x
            x  H                 2        -0.401095   0.388501   0.500000   x
            x  H                 3         0.401095  -0.388501   0.500000   x
            x  H                 4        -0.401095  -0.388501   0.000000   x
            x  H                 5         0.369844  -0.000000   0.250000   x
            x  H                 6        -0.369844   0.000000   0.750000   x
            x  H                 7         0.369844  -0.000000   0.750000   x
            x  H                 8        -0.369844   0.000000   0.250000   x
            x  H                 9         0.901095   0.888501   0.500000   x
            x  H                10        -0.901095   0.888501   0.000000   x
            x  H                11         0.901095  -0.888501   0.000000   x
            x  H                12        -0.901095  -0.888501   0.500000   x
            x  H                13         0.869844   0.500000   0.750000   x
            x  H                14        -0.869844   0.500000   0.250000   x
            x  H                15         0.869844   0.500000   0.250000   x
            x  H                16        -0.869844   0.500000   0.750000   x
            xxxxxxxxxxxxxxxxxxxxxxxxxxxxxxxxxxxxxxxxxxxxxxxxxxxxxxxxxxxxxxxxx


------------------------------------------------------------------------ <-- SCF
SCF loop      Energy                           Energy gain       Timer   <-- SCF
                                               per atom          (sec)   <-- SCF
------------------------------------------------------------------------ <-- SCF
Initial  -2.39369463E+002                                        207.60  <-- SCF
      1  -2.39369463E+002                   -1.51053536E-014     207.88  <-- SCF
      2  -2.39369463E+002                    6.04214146E-015     208.53  <-- SCF
      3  -2.39369463E+002                    2.23559234E-013     209.20  <-- SCF
      4  -2.39369463E+002                   -3.20233497E-013     209.85  <-- SCF
------------------------------------------------------------------------ <-- SCF
 
Final energy =  -239.3694629398     eV
(energy not corrected for finite basis set)
 

 ******************************** Symmetrised Forces ********************************
 *                                                                                  *
 *                           Cartesian components (eV/A)                            *
 * -------------------------------------------------------------------------------- *
 *                         x                    y                    z              *
 *                                                                                  *
 * H               1      0.00000              0.00000              0.00000         *
 * H               2     -0.00000              0.00000              0.00000         *
 * H               3      0.00000             -0.00000              0.00000         *
 * H               4     -0.00000             -0.00000              0.00000         *
 * H               5     -0.00000              0.00000             -0.00000         *
 * H               6      0.00000              0.00000              0.00000         *
 * H               7     -0.00000             -0.00000              0.00000         *
 * H               8      0.00000              0.00000              0.00000         *
 * H               9      0.00000              0.00000              0.00000         *
 * H              10     -0.00000              0.00000              0.00000         *
 * H              11      0.00000             -0.00000              0.00000         *
 * H              12     -0.00000             -0.00000              0.00000         *
 * H              13     -0.00000              0.00000              0.00000         *
 * H              14      0.00000              0.00000             -0.00000         *
 * H              15     -0.00000              0.00000             -0.00000         *
 * H              16      0.00000              0.00000             -0.00000         *
 *                                                                                  *
 ************************************************************************************

 *********** Symmetrised Stress Tensor ***********
 *                                               *
 *          Cartesian components (GPa)           *
 * --------------------------------------------- *
 *             x             y             z     *
 *                                               *
 *  x   -120.000001      0.000000      0.000000  *
 *  y      0.000000   -119.999996      0.000000  *
 *  z      0.000000      0.000000   -120.000001  *
 *                                               *
 *  Pressure:  120.0000                          *
 *                                               *
 *************************************************
  
 +------------+-------------+-------------+-----------------+ <-- min LBFGS
 |    Step    |   lambda    |   F.delta'  |    enthalpy     | <-- min LBFGS
 +------------+-------------+-------------+-----------------+ <-- min LBFGS
 |  previous  |    0.000000 |  2.216E-007 |     -214.178586 | <-- min LBFGS
 | trial step |    1.000000 |  9.840E-008 |     -214.178586 | <-- min LBFGS
 |  line step |    1.798718 |  6.450E-009 |     -214.178586 | <-- min LBFGS
 +------------+-------------+-------------+-----------------+ <-- min LBFGS
  
 LBFGS: finished iteration    16 with enthalpy= -2.14178586E+002 eV
  
 +-----------+-----------------+-----------------+------------+-----+ <-- LBFGS
 | Parameter |      value      |    tolerance    |    units   | OK? | <-- LBFGS
 +-----------+-----------------+-----------------+------------+-----+ <-- LBFGS
 |  dE/ion   |   2.099644E-013 |   1.000000E-009 |         eV | Yes | <-- LBFGS
 |  |F|max   |   3.014239E-007 |   1.000000E-005 |       eV/A | Yes | <-- LBFGS
 |  |dR|max  |   1.114962E-008 |   1.000000E-005 |          A | Yes | <-- LBFGS
 |   Smax    |   3.892773E-006 |   1.000000E-005 |        GPa | Yes | <-- LBFGS
 +-----------+-----------------+-----------------+------------+-----+ <-- LBFGS
  
 LBFGS: Geometry optimization completed successfully.

================================================================================
 LBFGS: Final Configuration:
================================================================================

                           -------------------------------
                                      Unit Cell
                           -------------------------------
        Real Lattice(A)              Reciprocal Lattice(1/A)
     3.0556777     0.0000000     0.0000000        2.056232998   0.000000000   0.000000000
    -0.0000000     1.8841148     0.0000000       -0.000000000   3.334820894   0.000000000
     0.0000000     0.0000000     5.8419475        0.000000000   0.000000000   1.075529224

                       Lattice parameters(A)       Cell Angles
                    a =      3.055678          alpha =   90.000000
                    b =      1.884115          beta  =   90.000000
                    c =      5.841948          gamma =   90.000000

                Current cell volume =            33.633538 A**3

                           -------------------------------
                                     Cell Contents
                           -------------------------------

            xxxxxxxxxxxxxxxxxxxxxxxxxxxxxxxxxxxxxxxxxxxxxxxxxxxxxxxxxxxxxxxxx
            x  Element         Atom        Fractional coordinates of atoms  x
            x                 Number           u          v          w      x
            x---------------------------------------------------------------x
            x  H                 1         0.401095   0.388501   0.000000   x
            x  H                 2        -0.401095   0.388501   0.500000   x
            x  H                 3         0.401095  -0.388501   0.500000   x
            x  H                 4        -0.401095  -0.388501   0.000000   x
            x  H                 5         0.369844  -0.000000   0.250000   x
            x  H                 6        -0.369844   0.000000   0.750000   x
            x  H                 7         0.369844  -0.000000   0.750000   x
            x  H                 8        -0.369844   0.000000   0.250000   x
            x  H                 9         0.901095   0.888501   0.500000   x
            x  H                10        -0.901095   0.888501   0.000000   x
            x  H                11         0.901095  -0.888501   0.000000   x
            x  H                12        -0.901095  -0.888501   0.500000   x
            x  H                13         0.869844   0.500000   0.750000   x
            x  H                14        -0.869844   0.500000   0.250000   x
            x  H                15         0.869844   0.500000   0.250000   x
            x  H                16        -0.869844   0.500000   0.750000   x
            xxxxxxxxxxxxxxxxxxxxxxxxxxxxxxxxxxxxxxxxxxxxxxxxxxxxxxxxxxxxxxxxx


 LBFGS: Final Enthalpy     = -2.14178586E+002 eV
 LBFGS: Final <frequency>  =     363.46408 cm-1
 LBFGS: Final bulk modulus =     359.14240 GPa

 ******************************** Symmetrised Forces ********************************
 *                                                                                  *
 *                           Cartesian components (eV/A)                            *
 * -------------------------------------------------------------------------------- *
 *                         x                    y                    z              *
 *                                                                                  *
 * H               1      0.00000              0.00000              0.00000         *
 * H               2     -0.00000              0.00000              0.00000         *
 * H               3      0.00000             -0.00000              0.00000         *
 * H               4     -0.00000             -0.00000              0.00000         *
 * H               5     -0.00000              0.00000             -0.00000         *
 * H               6      0.00000              0.00000              0.00000         *
 * H               7     -0.00000             -0.00000              0.00000         *
 * H               8      0.00000              0.00000              0.00000         *
 * H               9      0.00000              0.00000              0.00000         *
 * H              10     -0.00000              0.00000              0.00000         *
 * H              11      0.00000             -0.00000              0.00000         *
 * H              12     -0.00000             -0.00000              0.00000         *
 * H              13     -0.00000              0.00000              0.00000         *
 * H              14      0.00000              0.00000             -0.00000         *
 * H              15     -0.00000              0.00000             -0.00000         *
 * H              16      0.00000              0.00000             -0.00000         *
 *                                                                                  *
 ************************************************************************************

 *********** Symmetrised Stress Tensor ***********
 *                                               *
 *          Cartesian components (GPa)           *
 * --------------------------------------------- *
 *             x             y             z     *
 *                                               *
 *  x   -120.000001      0.000000      0.000000  *
 *  y      0.000000   -119.999996      0.000000  *
 *  z      0.000000      0.000000   -120.000001  *
 *                                               *
 *  Pressure:  120.0000                          *
 *                                               *
 *************************************************

 Pseudo atomic calculation performed for H 1s1

 Converged in 24 iterations to a total energy of -12.4843 eV

Charge spilling parameter for spin component 1 = 0.55%

            Orbital Populations       
     Ion    Atom   Orbital             Charge
  -------------------------------------------
      H     1      S                    1.005
      H     2      S                    1.002
      H     3      S                    1.002
      H     4      S                    1.005
      H     5      S                    0.997
      H     6      S                    0.997
      H     7      S                    0.996
      H     8      S                    0.996
      H     9      S                    1.005
      H    10      S                    1.002
      H    11      S                    1.002
      H    12      S                    1.005
      H    13      S                    0.997
      H    14      S                    0.997
      H    15      S                    0.996
      H    16      S                    0.996
  -------------------------------------------
                           Total:      16.000
  -------------------------------------------

     Atomic Populations (Mulliken)
     -----------------------------
Species          Ion     s      p      d      f     Total  Charge (e)
=====================================================================
  H               1     1.00   0.00   0.00   0.00   1.00    -0.00
  H               2     1.00   0.00   0.00   0.00   1.00    -0.00
  H               3     1.00   0.00   0.00   0.00   1.00    -0.00
  H               4     1.00   0.00   0.00   0.00   1.00    -0.00
  H               5     1.00   0.00   0.00   0.00   1.00     0.00
  H               6     1.00   0.00   0.00   0.00   1.00     0.00
  H               7     1.00   0.00   0.00   0.00   1.00     0.00
  H               8     1.00   0.00   0.00   0.00   1.00     0.00
  H               9     1.00   0.00   0.00   0.00   1.00    -0.00
  H              10     1.00   0.00   0.00   0.00   1.00    -0.00
  H              11     1.00   0.00   0.00   0.00   1.00    -0.00
  H              12     1.00   0.00   0.00   0.00   1.00    -0.00
  H              13     1.00   0.00   0.00   0.00   1.00     0.00
  H              14     1.00   0.00   0.00   0.00   1.00     0.00
  H              15     1.00   0.00   0.00   0.00   1.00     0.00
  H              16     1.00   0.00   0.00   0.00   1.00     0.00
=====================================================================

                 Bond                   Population      Length (A)
======================================================================
              H 10 -- H 11                   1.38        0.73613
              H 9  -- H 12                   1.38        0.73613
              H 2  -- H 3                    1.38        0.73613
              H 1  -- H 4                    1.38        0.73613
              H 6  -- H 7                    0.85        0.79543
              H 5  -- H 8                    0.85        0.79543
              H 14 -- H 15                   0.85        0.79543
              H 13 -- H 16                   0.85        0.79543
              H 8  -- H 15                   0.37        1.19327
              H 7  -- H 16                   0.37        1.19327
              H 6  -- H 13                   0.37        1.19327
              H 5  -- H 14                   0.37        1.19327
              H 3  -- H 12                  -0.20        1.31914
              H 1  -- H 10                  -0.20        1.31914
              H 4  -- H 11                  -0.20        1.31914
              H 2  -- H 9                   -0.20        1.31914
              H 4  -- H 10                  -0.54        1.61452
              H 3  -- H 9                   -0.54        1.61452
              H 2  -- H 12                  -0.54        1.61452
              H 1  -- H 11                  -0.54        1.61452
              H 4  -- H 8                   -0.12        1.63644
              H 3  -- H 7                   -0.12        1.63644
              H 2  -- H 6                   -0.12        1.63644
              H 1  -- H 5                   -0.12        1.63644
              H 4  -- H 6                   -0.12        1.63644
              H 3  -- H 5                   -0.12        1.63644
              H 2  -- H 8                   -0.12        1.63644
              H 1  -- H 7                   -0.12        1.63644
              H 12 -- H 16                  -0.12        1.63644
              H 11 -- H 15                  -0.12        1.63644
              H 10 -- H 14                  -0.12        1.63644
              H 9  -- H 13                  -0.12        1.63644
              H 12 -- H 14                  -0.12        1.63644
              H 11 -- H 13                  -0.12        1.63644
              H 10 -- H 16                  -0.12        1.63644
              H 9  -- H 15                  -0.12        1.63644
              H 4  -- H 15                  -0.05        1.69191
              H 3  -- H 16                  -0.05        1.69191
              H 3  -- H 14                  -0.05        1.69191
              H 2  -- H 13                  -0.05        1.69191
              H 1  -- H 16                  -0.05        1.69191
              H 1  -- H 14                  -0.05        1.69191
              H 7  -- H 10                  -0.05        1.69191
              H 5  -- H 12                  -0.05        1.69191
              H 4  -- H 13                  -0.05        1.69191
              H 2  -- H 15                  -0.05        1.69191
              H 8  -- H 9                   -0.05        1.69191
              H 7  -- H 12                  -0.05        1.69191
              H 6  -- H 11                  -0.05        1.69191
              H 5  -- H 10                  -0.05        1.69191
              H 8  -- H 11                  -0.05        1.69191
              H 6  -- H 9                   -0.05        1.69191
              H 4  -- H 5                   -0.20        1.77728
              H 3  -- H 6                   -0.20        1.77728
              H 2  -- H 7                   -0.20        1.77728
              H 1  -- H 8                   -0.20        1.77728
              H 4  -- H 7                   -0.20        1.77728
              H 3  -- H 8                   -0.20        1.77728
              H 2  -- H 5                   -0.20        1.77728
              H 1  -- H 6                   -0.20        1.77728
              H 12 -- H 13                  -0.20        1.77728
              H 11 -- H 14                  -0.20        1.77728
              H 10 -- H 15                  -0.20        1.77728
              H 9  -- H 16                  -0.20        1.77728
              H 12 -- H 15                  -0.20        1.77728
              H 11 -- H 16                  -0.20        1.77728
              H 10 -- H 13                  -0.20        1.77728
              H 9  -- H 14                  -0.20        1.77728
              H 8  -- H 14                  -0.61        1.79493
              H 7  -- H 13                  -0.61        1.79493
              H 6  -- H 16                  -0.61        1.79493
              H 5  -- H 15                  -0.61        1.79493
======================================================================


Writing analysis data to Hibam.castep_bin

Writing model to Hibam.check
 
 A BibTeX formatted list of references used in this run has been written to 
 Hibam.bib
 
Initialisation time =      2.89 s
Calculation time    =    210.80 s
Finalisation time   =      0.83 s
Total time          =    214.52 s
Peak Memory Use     = 555116 kB
  
Overall parallel efficiency rating: Very good (84%)                             
  
Data was distributed by:-
k-point (32-way); efficiency rating: Very good (84%)                            
  
Parallel notes:
1) Calculation only took 213.7 s, so efficiency estimates may be inaccurate.    
