 +-------------------------------------------------+
 |                                                 |
 |      CCC   AA    SSS  TTTTT  EEEEE  PPPP        |
 |     C     A  A  S       T    E      P   P       |
 |     C     AAAA   SS     T    EEE    PPPP        |
 |     C     A  A     S    T    E      P           |
 |      CCC  A  A  SSS     T    EEEEE  P           |
 |                                                 |
 +-------------------------------------------------+
 |                                                 |
 | Welcome to Academic Release CASTEP version 18.1 |          
 | Ab Initio Total Energy Program                  |
 |                                                 |
 | Authors:                                        |
 | M. Segall, M. Probert, C. Pickard, P. Hasnip,   |
 | S. Clark, K. Refson, J. R. Yates, M. Payne      |
 |                                                 |
 | Contributors:                                   |
 | P. Lindan, P. Haynes, J. White, V. Milman,      |
 | N. Govind, M. Gibson, P. Tulip, V. Cocula,      |
 | B. Montanari, D. Quigley, M. Glover,            |
 | L. Bernasconi, A. Perlov, M. Plummer,           |
 | E. McNellis, J. Meyer, J. Gale, D. Jochym       |
 | J. Aarons, B. Walker, R. Gillen, D. Jones       |
 | T. Green, I. J. Bush, C. J. Armstrong,          |
 | E. J. Higgins, E. L. Brown, M. S. McFly,        |
 | J. Wilkins, B-C. Shih, P. J. P. Byrne           |
 |                                                 |
 | Copyright (c) 2000 - 2017                       |
 |                                                 |
 |     Distributed under the terms of an           |
 |     Agreement between the United Kingdom        |
 |     Car-Parrinello (UKCP) Consortium,           |
 |     Daresbury Laboratory and Accelrys, Inc.     |
 |                                                 |
 | Please cite                                     |
 |                                                 |
 |     "First principles methods using CASTEP"     |
 |                                                 |
 |         Zeitschrift fuer Kristallographie       |
 |           220(5-6) pp. 567-570 (2005)           |
 |                                                 |
 | S. J. Clark, M. D. Segall, C. J. Pickard,       |
 | P. J. Hasnip, M. J. Probert, K. Refson,         |
 | M. C. Payne                                     |
 |                                                 |
 |       in all publications arising from          |
 |              your use of CASTEP                 |
 |                                                 |
 +-------------------------------------------------+


 Compiled for linux_x86_64_gfortran4.8 on Thu, 19 Jul 2018 15:42:32 +0100
 from code version 70483bd0ad64+  Sun, 10 Dec 2017 12:18:29 +0000
 Compiler: GNU Fortran 4.8.5; Optimisation: fast
 MATHLIBS: Intel MKL(2018.0.0) (LAPACK version 3.7.0)
 FFT Lib : mkl
 Fundamental constants values: CODATA 2014

 Run started: Wed, 26 Aug 2020 13:14:47 +0100

 Atomic calculation performed for H: 1s1

 Converged in 41 iterations to an ae energy of -12.488 eV

   ============================================================                
   | Pseudopotential Report - Date of generation 26-08-2020   |                
   ------------------------------------------------------------                
   | Element: H Ionic charge:  1.00 Level of theory: PBE      |                
   | Atomic Solver: Koelling-Harmon                           |                
   |                                                          |                
   |               Reference Electronic Structure             |                
   |         Orbital         Occupation         Energy        |                
   |            1s              1.000           -0.239        |                
   |                                                          |                
   |                 Pseudopotential Definition               |                
   |        Beta     l      e      Rc     scheme   norm       |                
   |         loc     0   -0.239   0.702     qc      1         |                
   |                                                          |                
   | No charge augmentation                                   |                
   | No partial core correction                               |                
   ------------------------------------------------------------                
   | "0|0.7|2|6|8|10L(qc=10)"                                 |                
   ------------------------------------------------------------                
   |      Author: Chris J. Pickard, Cambridge University      |                
   ============================================================                

 Pseudo atomic calculation performed for H 1s1

 Converged in 24 iterations to a total energy of -12.4843 eV

 Calculation parallelised over 32 processes.
 Data is distributed by k-point(32-way)

 ************************************ Title ************************************
 

 ***************************** General Parameters ******************************
  
 output verbosity                               : normal  (1)
 write checkpoint data to                       : Hibam.check
 type of calculation                            : geometry optimization
 stress calculation                             : on
 density difference calculation                 : off
 electron localisation func (ELF) calculation   : off
 Hirshfeld analysis                             : off
 unlimited duration calculation
 timing information                             : on
 memory usage estimate                          : on
 write extra output files                       : on
 write final potential to formatted file        : off
 write final density to formatted file          : off
 write structure in CELL formatted file         : on
 write BibTeX reference list                    : on
 write OTFG pseudopotential files               : on
 write electrostatic potential file             : on
 write bands file                               : on
 checkpoint writing                             : both castep_bin and check files
  
 output         length unit                     : A
 output           mass unit                     : amu
 output           time unit                     : ps
 output         charge unit                     : e
 output           spin unit                     : hbar/2
 output         energy unit                     : eV
 output          force unit                     : eV/A
 output       velocity unit                     : A/ps
 output       pressure unit                     : GPa
 output     inv_length unit                     : 1/A
 output      frequency unit                     : cm-1
 output force constant unit                     : eV/A**2
 output         volume unit                     : A**3
 output   IR intensity unit                     : (D/A)**2/amu
 output         dipole unit                     : D
 output         efield unit                     : eV/A/e
 output        entropy unit                     : J/mol/K
  
 wavefunctions paging                           : none
 random number generator seed                   : randomised (131447624)
 data distribution                              : optimal for this architecture
 optimization strategy                          : maximize speed(+++)

 *********************** Exchange-Correlation Parameters ***********************
  
 using functional                               : Perdew Burke Ernzerhof
 relativistic treatment                         : Koelling-Harmon
 DFT+D: Semi-empirical dispersion correction    : off

 ************************* Pseudopotential Parameters **************************
  
 pseudopotential representation                 : reciprocal space
 <beta|phi> representation                      : reciprocal space
 spin-orbit coupling                            : off

 **************************** Basis Set Parameters *****************************
  
 plane wave basis set cut-off                   :  1200.0000   eV
 size of standard grid                          :     2.0000
 size of   fine   gmax                          :    35.4943   1/A
 finite basis set correction                    : automatic
 number of sample energies                      :          3
           sample  spacing                      :     5.0000   eV

 **************************** Electronic Parameters ****************************
  
 number of  electrons                           :  16.00    
 net charge of system                           :  0.000    
 treating system as non-spin-polarized
 number of bands                                :          8

 ********************* Electronic Minimization Parameters **********************
  
 Method: Treating system as non-metallic,
         and number of  SD  steps               :          1
         and number of  CG  steps               :          4
  
 total energy / atom convergence tol.           : 0.1000E-10   eV
 eigen-energy convergence tolerance             : 0.2000E-10   eV
 max force / atom convergence tol.              : ignored
 convergence tolerance window                   :          3   cycles
 max. number of SCF cycles                      :        100
 periodic dipole correction                     : NONE

 ************************** Density Mixing Parameters **************************
  
 density-mixing scheme                          : Broyden
 max. length of mixing history                  :         20
 charge density mixing amplitude                : 0.8000    
 cut-off energy for mixing                      :  1200.       eV

 *********************** Population Analysis Parameters ************************
  
 Population analysis with cutoff                :  3.000       A
 Population analysis output                     : summary and pdos components

 ********************** Geometry Optimization Parameters ***********************
  
 optimization method                            : LBFGS
 max. no. of LBFGS updates                      : unbounded
 variable cell method                           : fixed basis quality
 max. number of steps                           :         60
 estimated bulk modulus                         :  500.0       GPa
 estimated <frequency>                          :  1668.       cm-1
 geom line minimiser                            : on
 with line minimiser tolerance                  :     0.4000
 total energy convergence tolerance             : 0.1000E-08   eV/atom
        max ionic |force| tolerance             : 0.1000E-04   eV/A
 max ionic |displacement| tolerance             : 0.1000E-04   A
   max |stress component| tolerance             : 0.1000E-04   GPa
 convergence tolerance window                   :          2   steps
 backup results every                           :      14400   seconds
 write geom trajectory file                     : on

 *******************************************************************************
  

                           -------------------------------
                                      Unit Cell
                           -------------------------------
        Real Lattice(A)                      Reciprocal Lattice(1/A)
     2.9551503     0.0000000     0.0000000        2.126181267  -0.000000000   0.000000000
     0.0000000     1.8018651     0.0000000       -0.000000000   3.487045355   0.000000000
     0.0000000     0.0000000     5.6037664        0.000000000   0.000000000   1.121243261

                       Lattice parameters(A)       Cell Angles
                    a =      2.955150          alpha =   90.000000
                    b =      1.801865          beta  =   90.000000
                    c =      5.603766          gamma =   90.000000

                       Current cell volume =            29.838836       A**3
                                   density =             0.540471   AMU/A**3
                                           =             0.897474     g/cm^3

                           -------------------------------
                                     Cell Contents
                           -------------------------------
                         Total number of ions in cell =   16
                      Total number of species in cell =    1
                        Max number of any one species =   16

            xxxxxxxxxxxxxxxxxxxxxxxxxxxxxxxxxxxxxxxxxxxxxxxxxxxxxxxxxxxx
            x  Element    Atom        Fractional coordinates of atoms  x
            x            Number           u          v          w      x
            x----------------------------------------------------------x
            x  H            1         0.405991   0.368503   0.000000   x 
            x  H            2        -0.405991   0.368503   0.500000   x 
            x  H            3         0.405991  -0.368503   0.500000   x 
            x  H            4        -0.405991  -0.368503   0.000000   x 
            x  H            5         0.356563  -0.000000   0.250000   x 
            x  H            6        -0.356563   0.000000   0.750000   x 
            x  H            7         0.356563   0.000000   0.750000   x 
            x  H            8        -0.356563  -0.000000   0.250000   x 
            x  H            9         0.905991   0.868503   0.500000   x 
            x  H           10        -0.905991   0.868503   0.000000   x 
            x  H           11         0.905991  -0.868503   0.000000   x 
            x  H           12        -0.905991  -0.868503   0.500000   x 
            x  H           13         0.856563   0.500000   0.750000   x 
            x  H           14        -0.856563   0.500000   0.250000   x 
            x  H           15         0.856563   0.500000   0.250000   x 
            x  H           16        -0.856563   0.500000   0.750000   x 
            xxxxxxxxxxxxxxxxxxxxxxxxxxxxxxxxxxxxxxxxxxxxxxxxxxxxxxxxxxxx


                         No user defined ionic velocities

                           -------------------------------
                                   Details of Species
                           -------------------------------

                               Mass of species in AMU
                                    H    1.0079400

                          Electric Quadrupole Moment (Barn)
                                    H    0.0028600 Isotope  2

                          Files used for pseudopotentials:
                                    H 0|0.7|2|6|8|10L(qc=10)

                           -------------------------------
                              k-Points For BZ Sampling
                           -------------------------------
                       MP grid size for SCF calculation is  8  8  8
                            with an offset of   0.000  0.000  0.000
                       Number of kpoints used =            64

                           -------------------------------
                               Symmetry and Constraints
                           -------------------------------

                      Cell is a supercell containing 2 primitive cells
                      Maximum deviation from symmetry = 0.328088E-15     ANG

                      Number of symmetry operations   =          16
                      Number of ionic constraints     =           3
                      Point group of crystal =     8: D2h, mmm, 2/m 2/m 2/m
                      Space group of crystal =    72: Ibam, -I 2 2c

             Set iprint > 1 for details on symmetry rotations/translations

                         Centre of mass is constrained
             Set iprint > 1 for details of linear ionic constraints

                         Number of cell constraints= 3
                         Cell constraints are:  1 2 3 0 0 0

                         External pressure/stress (GPa)
                        150.00000   0.00000   0.00000
                                  150.00000   0.00000
                                            150.00000
  
+---------------- MEMORY AND SCRATCH DISK ESTIMATES PER PROCESS --------------+
|                                                     Memory          Disk    |
| Baseline code, static data and system overhead      479.0 MB         0.0 MB |
| BLAS internal memory storage                          0.0 MB         0.0 MB |
| Model and support data                               35.2 MB         0.0 MB |
| Electronic energy minimisation requirements          13.3 MB         0.0 MB |
| Force calculation requirements                        6.3 MB         0.0 MB |
| Stress calculation requirements                       8.0 MB         0.0 MB |
|                                               ----------------------------- |
| Approx. total storage required per process          527.5 MB         0.0 MB |
|                                                                             |
| Requirements will fluctuate during execution and may exceed these estimates |
+-----------------------------------------------------------------------------+
Calculating finite basis set correction with  3 cut-off energies.
Calculating total energy with cut-off of 1190.000 eV.
------------------------------------------------------------------------ <-- SCF
SCF loop      Energy                           Energy gain       Timer   <-- SCF
                                               per atom          (sec)   <-- SCF
------------------------------------------------------------------------ <-- SCF
Initial   3.73286092E+002                                          3.83  <-- SCF
      1  -1.98944869E+002                    3.57644351E+001       4.30  <-- SCF
      2  -2.36018322E+002                    2.31709081E+000       4.63  <-- SCF
      3  -2.36095062E+002                    4.79627805E-003       5.35  <-- SCF
      4  -2.36087801E+002                   -4.53857320E-004       6.07  <-- SCF
      5  -2.36088274E+002                    2.96118099E-005       6.78  <-- SCF
      6  -2.36088308E+002                    2.08238648E-006       7.49  <-- SCF
      7  -2.36088308E+002                    2.27113403E-008       8.20  <-- SCF
      8  -2.36088308E+002                    1.16360467E-009       9.04  <-- SCF
      9  -2.36088308E+002                    1.02414298E-011       9.62  <-- SCF
     10  -2.36088308E+002                    5.25666307E-013      10.19  <-- SCF
     11  -2.36088308E+002                    4.10865619E-013      10.76  <-- SCF
------------------------------------------------------------------------ <-- SCF
 
Final energy =  -236.0883081298     eV
(energy not corrected for finite basis set)
 
Calculating total energy with cut-off of 1195.000 eV.
------------------------------------------------------------------------ <-- SCF
SCF loop      Energy                           Energy gain       Timer   <-- SCF
                                               per atom          (sec)   <-- SCF
------------------------------------------------------------------------ <-- SCF
Initial  -2.36088308E+002                                         11.40  <-- SCF
      1  -2.36089542E+002                    7.71124965E-005      11.78  <-- SCF
      2  -2.36089542E+002                    1.36842420E-010      12.49  <-- SCF
      3  -2.36089542E+002                    2.86604146E-008      13.20  <-- SCF
      4  -2.36089542E+002                    1.41136268E-009      13.92  <-- SCF
      5  -2.36089542E+002                    6.98773660E-012      14.50  <-- SCF
      6  -2.36089542E+002                    2.44706729E-013      15.08  <-- SCF
------------------------------------------------------------------------ <-- SCF
 
Final energy =  -236.0895424131     eV
(energy not corrected for finite basis set)
 
Calculating total energy with cut-off of 1200.000 eV.
------------------------------------------------------------------------ <-- SCF
SCF loop      Energy                           Energy gain       Timer   <-- SCF
                                               per atom          (sec)   <-- SCF
------------------------------------------------------------------------ <-- SCF
Initial  -2.36089542E+002                                         15.72  <-- SCF
      1  -2.36090761E+002                    7.61861820E-005      16.10  <-- SCF
      2  -2.36090761E+002                    1.33253388E-010      16.81  <-- SCF
      3  -2.36090762E+002                    2.81823665E-008      17.51  <-- SCF
      4  -2.36090762E+002                    1.34031313E-009      18.21  <-- SCF
      5  -2.36090762E+002                    5.63127584E-012      18.80  <-- SCF
      6  -2.36090762E+002                    4.32013114E-013      19.39  <-- SCF
------------------------------------------------------------------------ <-- SCF
 
Final energy =  -236.0907618667     eV
(energy not corrected for finite basis set)
 
 For future reference: finite basis dEtot/dlog(Ecut) =      -0.286593eV
 Total energy corrected for finite basis set =    -236.090760 eV
 
+---------------- MEMORY AND SCRATCH DISK ESTIMATES PER PROCESS --------------+
|                                                     Memory          Disk    |
| Model and support data                               43.6 MB         0.0 MB |
| Electronic energy minimisation requirements          13.3 MB         0.0 MB |
| Geometry minimisation requirements                   15.0 MB         0.0 MB |
|                                               ----------------------------- |
| Approx. total storage required per process           72.0 MB         0.0 MB |
|                                                                             |
| Requirements will fluctuate during execution and may exceed these estimates |
+-----------------------------------------------------------------------------+
 

 ******************************** Symmetrised Forces ********************************
 *                                                                                  *
 *                           Cartesian components (eV/A)                            *
 * -------------------------------------------------------------------------------- *
 *                         x                    y                    z              *
 *                                                                                  *
 * H               1      0.00000              0.00000              0.00000         *
 * H               2     -0.00000              0.00000              0.00000         *
 * H               3      0.00000             -0.00000              0.00000         *
 * H               4     -0.00000             -0.00000              0.00000         *
 * H               5      0.00000             -0.00000              0.00000         *
 * H               6     -0.00000              0.00000             -0.00000         *
 * H               7      0.00000             -0.00000             -0.00000         *
 * H               8     -0.00000              0.00000              0.00000         *
 * H               9      0.00000              0.00000              0.00000         *
 * H              10     -0.00000              0.00000              0.00000         *
 * H              11      0.00000             -0.00000              0.00000         *
 * H              12     -0.00000             -0.00000              0.00000         *
 * H              13      0.00000              0.00000             -0.00000         *
 * H              14     -0.00000              0.00000             -0.00000         *
 * H              15      0.00000              0.00000              0.00000         *
 * H              16     -0.00000             -0.00000              0.00000         *
 *                                                                                  *
 ************************************************************************************

 *********** Symmetrised Stress Tensor ***********
 *                                               *
 *          Cartesian components (GPa)           *
 * --------------------------------------------- *
 *             x             y             z     *
 *                                               *
 *  x   -159.987292      0.000000      0.000000  *
 *  y      0.000000   -159.987292      0.000000  *
 *  z      0.000000      0.000000   -159.987293  *
 *                                               *
 *  Pressure:  159.9873                          *
 *                                               *
 *************************************************
 LBFGS: finished iteration     0 with enthalpy= -2.08154855E+002 eV
  
 +-----------+-----------------+-----------------+------------+-----+ <-- LBFGS
 | Parameter |      value      |    tolerance    |    units   | OK? | <-- LBFGS
 +-----------+-----------------+-----------------+------------+-----+ <-- LBFGS
 |  dE/ion   |   0.000000E+000 |   1.000000E-009 |         eV | No  | <-- LBFGS
 |  |F|max   |   4.376233E-007 |   1.000000E-005 |       eV/A | Yes | <-- LBFGS
 |  |dR|max  |   0.000000E+000 |   1.000000E-005 |          A | No  | <-- LBFGS
 |   Smax    |   9.987293E+000 |   1.000000E-005 |        GPa | No  | <-- LBFGS
 +-----------+-----------------+-----------------+------------+-----+ <-- LBFGS
  

================================================================================
 Starting LBFGS iteration          1 ...
================================================================================
  
 +------------+-------------+-------------+-----------------+ <-- min LBFGS
 |    Step    |   lambda    |   F.delta'  |    enthalpy     | <-- min LBFGS
 +------------+-------------+-------------+-----------------+ <-- min LBFGS
 |  previous  |    0.000000 |    0.118394 |     -208.154855 | <-- min LBFGS
 +------------+-------------+-------------+-----------------+ <-- min LBFGS
  

--------------------------------------------------------------------------------
 LBFGS: starting iteration         1 with trial guess (lambda=  1.000000)
--------------------------------------------------------------------------------
 
+---------------- MEMORY AND SCRATCH DISK ESTIMATES PER PROCESS --------------+
|                                                     Memory          Disk    |
| Model and support data                               43.7 MB         0.0 MB |
| Electronic energy minimisation requirements          13.5 MB         0.0 MB |
| Geometry minimisation requirements                   15.2 MB         0.0 MB |
|                                               ----------------------------- |
| Approx. total storage required per process           72.3 MB         0.0 MB |
|                                                                             |
| Requirements will fluctuate during execution and may exceed these estimates |
+-----------------------------------------------------------------------------+
 

                           -------------------------------
                                      Unit Cell
                           -------------------------------
        Real Lattice(A)              Reciprocal Lattice(1/A)
     2.9748263     0.0000000     0.0000000        2.112118372  -0.000000000   0.000000000
     0.0000000     1.8138623     0.0000000       -0.000000000   3.463981492   0.000000000
     0.0000000     0.0000000     5.6410774        0.000000000   0.000000000   1.113827182

                       Lattice parameters(A)       Cell Angles
                    a =      2.974826          alpha =   90.000000
                    b =      1.813862          beta  =   90.000000
                    c =      5.641077          gamma =   90.000000

                Current cell volume =            30.438831 A**3

                           -------------------------------
                                     Cell Contents
                           -------------------------------

            xxxxxxxxxxxxxxxxxxxxxxxxxxxxxxxxxxxxxxxxxxxxxxxxxxxxxxxxxxxxxxxxx
            x  Element         Atom        Fractional coordinates of atoms  x
            x                 Number           u          v          w      x
            x---------------------------------------------------------------x
            x  H                 1         0.405991   0.368503   0.000000   x
            x  H                 2        -0.405991   0.368503   0.500000   x
            x  H                 3         0.405991  -0.368503   0.500000   x
            x  H                 4        -0.405991  -0.368503   0.000000   x
            x  H                 5         0.356563  -0.000000   0.250000   x
            x  H                 6        -0.356563   0.000000   0.750000   x
            x  H                 7         0.356563  -0.000000   0.750000   x
            x  H                 8        -0.356563   0.000000   0.250000   x
            x  H                 9         0.905991   0.868503   0.500000   x
            x  H                10        -0.905991   0.868503   0.000000   x
            x  H                11         0.905991  -0.868503   0.000000   x
            x  H                12        -0.905991  -0.868503   0.500000   x
            x  H                13         0.856563   0.500000   0.750000   x
            x  H                14        -0.856563   0.500000   0.250000   x
            x  H                15         0.856563   0.500000   0.250000   x
            x  H                16        -0.856563   0.500000   0.750000   x
            xxxxxxxxxxxxxxxxxxxxxxxxxxxxxxxxxxxxxxxxxxxxxxxxxxxxxxxxxxxxxxxxx


------------------------------------------------------------------------ <-- SCF
SCF loop      Energy                           Energy gain       Timer   <-- SCF
                                               per atom          (sec)   <-- SCF
------------------------------------------------------------------------ <-- SCF
Initial  -2.36663794E+002                                         21.83  <-- SCF
      1  -2.36672253E+002                    5.28656228E-004      22.22  <-- SCF
      2  -2.36672280E+002                    1.70297576E-006      22.95  <-- SCF
      3  -2.36672230E+002                   -3.12587403E-006      23.67  <-- SCF
      4  -2.36672230E+002                   -1.74252037E-009      24.39  <-- SCF
      5  -2.36672230E+002                    4.98407488E-009      25.13  <-- SCF
      6  -2.36672230E+002                    4.68166268E-010      25.85  <-- SCF
      7  -2.36672230E+002                    2.11474951E-012      26.43  <-- SCF
      8  -2.36672230E+002                    2.44706729E-013      26.99  <-- SCF
------------------------------------------------------------------------ <-- SCF
 
Final energy =  -236.6722298389     eV
(energy not corrected for finite basis set)
 

 ******************************** Symmetrised Forces ********************************
 *                                                                                  *
 *                           Cartesian components (eV/A)                            *
 * -------------------------------------------------------------------------------- *
 *                         x                    y                    z              *
 *                                                                                  *
 * H               1      0.09782              0.08581             -0.00000         *
 * H               2     -0.09782              0.08581             -0.00000         *
 * H               3      0.09782             -0.08581             -0.00000         *
 * H               4     -0.09782             -0.08581             -0.00000         *
 * H               5      0.06206              0.00000              0.00000         *
 * H               6     -0.06206              0.00000              0.00000         *
 * H               7      0.06206              0.00000             -0.00000         *
 * H               8     -0.06206              0.00000             -0.00000         *
 * H               9      0.09782              0.08581             -0.00000         *
 * H              10     -0.09782              0.08581             -0.00000         *
 * H              11      0.09782             -0.08581             -0.00000         *
 * H              12     -0.09782             -0.08581             -0.00000         *
 * H              13      0.06206              0.00000              0.00000         *
 * H              14     -0.06206             -0.00000             -0.00000         *
 * H              15      0.06206              0.00000              0.00000         *
 * H              16     -0.06206             -0.00000             -0.00000         *
 *                                                                                  *
 ************************************************************************************

 *********** Symmetrised Stress Tensor ***********
 *                                               *
 *          Cartesian components (GPa)           *
 * --------------------------------------------- *
 *             x             y             z     *
 *                                               *
 *  x   -148.970992      0.000000      0.000000  *
 *  y      0.000000   -150.643913      0.000000  *
 *  z      0.000000      0.000000   -152.510506  *
 *                                               *
 *  Pressure:  150.7085                          *
 *                                               *
 *************************************************
  
 +------------+-------------+-------------+-----------------+ <-- min LBFGS
 |    Step    |   lambda    |   F.delta'  |    enthalpy     | <-- min LBFGS
 +------------+-------------+-------------+-----------------+ <-- min LBFGS
 |  previous  |    0.000000 |    0.118394 |     -208.154855 | <-- min LBFGS
 | trial step |    1.000000 |    0.008511 |     -208.174574 | <-- min LBFGS
 +------------+-------------+-------------+-----------------+ <-- min LBFGS
  
 LBFGS: finished iteration     1 with enthalpy= -2.08174574E+002 eV
  
 +-----------+-----------------+-----------------+------------+-----+ <-- LBFGS
 | Parameter |      value      |    tolerance    |    units   | OK? | <-- LBFGS
 +-----------+-----------------+-----------------+------------+-----+ <-- LBFGS
 |  dE/ion   |   1.232425E-003 |   1.000000E-009 |         eV | No  | <-- LBFGS
 |  |F|max   |   1.301176E-001 |   1.000000E-005 |       eV/A | No  | <-- LBFGS
 |  |dR|max  |   4.272768E-008 |   1.000000E-005 |          A | Yes | <-- LBFGS
 |   Smax    |   2.510506E+000 |   1.000000E-005 |        GPa | No  | <-- LBFGS
 +-----------+-----------------+-----------------+------------+-----+ <-- LBFGS
  

================================================================================
 Starting LBFGS iteration          2 ...
================================================================================
  
 +------------+-------------+-------------+-----------------+ <-- min LBFGS
 |    Step    |   lambda    |   F.delta'  |    enthalpy     | <-- min LBFGS
 +------------+-------------+-------------+-----------------+ <-- min LBFGS
 |  previous  |    0.000000 |    0.037407 |     -208.174574 | <-- min LBFGS
 +------------+-------------+-------------+-----------------+ <-- min LBFGS
  

--------------------------------------------------------------------------------
 LBFGS: starting iteration         2 with trial guess (lambda=  1.000000)
--------------------------------------------------------------------------------
 
+---------------- MEMORY AND SCRATCH DISK ESTIMATES PER PROCESS --------------+
|                                                     Memory          Disk    |
| Model and support data                               44.8 MB         0.0 MB |
| Electronic energy minimisation requirements          14.2 MB         0.0 MB |
| Geometry minimisation requirements                   16.0 MB         0.0 MB |
|                                               ----------------------------- |
| Approx. total storage required per process           75.0 MB         0.0 MB |
|                                                                             |
| Requirements will fluctuate during execution and may exceed these estimates |
+-----------------------------------------------------------------------------+
 

                           -------------------------------
                                      Unit Cell
                           -------------------------------
        Real Lattice(A)              Reciprocal Lattice(1/A)
     2.9831506     0.0000000     0.0000000        2.106224623  -0.000000000   0.000000000
     0.0000000     1.8211321     0.0000000       -0.000000000   3.450153560   0.000000000
     0.0000000     0.0000000     5.6713001        0.000000000   0.000000000   1.107891516

                       Lattice parameters(A)       Cell Angles
                    a =      2.983151          alpha =   90.000000
                    b =      1.821132          beta  =   90.000000
                    c =      5.671300          gamma =   90.000000

                Current cell volume =            30.810536 A**3

                           -------------------------------
                                     Cell Contents
                           -------------------------------

            xxxxxxxxxxxxxxxxxxxxxxxxxxxxxxxxxxxxxxxxxxxxxxxxxxxxxxxxxxxxxxxxx
            x  Element         Atom        Fractional coordinates of atoms  x
            x                 Number           u          v          w      x
            x---------------------------------------------------------------x
            x  H                 1         0.409473   0.373512   0.000000   x
            x  H                 2        -0.409473   0.373512   0.500000   x
            x  H                 3         0.409473  -0.373512   0.500000   x
            x  H                 4        -0.409473  -0.373512   0.000000   x
            x  H                 5         0.358772  -0.000000   0.250000   x
            x  H                 6        -0.358772  -0.000000   0.750000   x
            x  H                 7         0.358772   0.000000   0.750000   x
            x  H                 8        -0.358772   0.000000   0.250000   x
            x  H                 9         0.909473   0.873512   0.500000   x
            x  H                10        -0.909473   0.873512   0.000000   x
            x  H                11         0.909473  -0.873512   0.000000   x
            x  H                12        -0.909473  -0.873512   0.500000   x
            x  H                13         0.858772   0.500000   0.750000   x
            x  H                14        -0.858772   0.500000   0.250000   x
            x  H                15         0.858772   0.500000   0.250000   x
            x  H                16        -0.858772   0.500000   0.750000   x
            xxxxxxxxxxxxxxxxxxxxxxxxxxxxxxxxxxxxxxxxxxxxxxxxxxxxxxxxxxxxxxxxx


------------------------------------------------------------------------ <-- SCF
SCF loop      Energy                           Energy gain       Timer   <-- SCF
                                               per atom          (sec)   <-- SCF
------------------------------------------------------------------------ <-- SCF
Initial  -2.36807611E+002                                         29.50  <-- SCF
      1  -2.37004007E+002                    1.22747091E-002      29.95  <-- SCF
      2  -2.37004982E+002                    6.09857804E-005      30.76  <-- SCF
      3  -2.36993207E+002                   -7.35957158E-004      31.59  <-- SCF
      4  -2.36992781E+002                   -2.65962503E-005      32.41  <-- SCF
      5  -2.36992780E+002                   -5.90707694E-008      33.23  <-- SCF
      6  -2.36992781E+002                    2.58247772E-009      34.06  <-- SCF
      7  -2.36992781E+002                    1.26440873E-010      34.80  <-- SCF
      8  -2.36992781E+002                    1.18093655E-011      35.45  <-- SCF
      9  -2.36992781E+002                    3.77633841E-013      36.10  <-- SCF
     10  -2.36992781E+002                   -2.62833153E-013      36.75  <-- SCF
------------------------------------------------------------------------ <-- SCF
 
Final energy =  -236.9927805379     eV
(energy not corrected for finite basis set)
 

 ******************************** Symmetrised Forces ********************************
 *                                                                                  *
 *                           Cartesian components (eV/A)                            *
 * -------------------------------------------------------------------------------- *
 *                         x                    y                    z              *
 *                                                                                  *
 * H               1     -0.54034             -0.47229             -0.00000         *
 * H               2      0.54034             -0.47229             -0.00000         *
 * H               3     -0.54034              0.47229             -0.00000         *
 * H               4      0.54034              0.47229             -0.00000         *
 * H               5      0.03106              0.00000             -0.00000         *
 * H               6     -0.03106              0.00000              0.00000         *
 * H               7      0.03106              0.00000              0.00000         *
 * H               8     -0.03106              0.00000             -0.00000         *
 * H               9     -0.54034             -0.47229             -0.00000         *
 * H              10      0.54034             -0.47229             -0.00000         *
 * H              11     -0.54034              0.47229             -0.00000         *
 * H              12      0.54034              0.47229             -0.00000         *
 * H              13      0.03106              0.00000             -0.00000         *
 * H              14     -0.03106              0.00000              0.00000         *
 * H              15      0.03106             -0.00000              0.00000         *
 * H              16     -0.03106              0.00000              0.00000         *
 *                                                                                  *
 ************************************************************************************

 *********** Symmetrised Stress Tensor ***********
 *                                               *
 *          Cartesian components (GPa)           *
 * --------------------------------------------- *
 *             x             y             z     *
 *                                               *
 *  x   -152.471366      0.000000      0.000000  *
 *  y      0.000000   -151.429077      0.000000  *
 *  z      0.000000      0.000000   -147.188081  *
 *                                               *
 *  Pressure:  150.3628                          *
 *                                               *
 *************************************************
  
 +------------+-------------+-------------+-----------------+ <-- min LBFGS
 |    Step    |   lambda    |   F.delta'  |    enthalpy     | <-- min LBFGS
 +------------+-------------+-------------+-----------------+ <-- min LBFGS
 |  previous  |    0.000000 |    0.037407 |     -208.174574 | <-- min LBFGS
 | trial step |    1.000000 |   -0.145488 |     -208.147150 | <-- min LBFGS
 +------------+-------------+-------------+-----------------+ <-- min LBFGS
  

--------------------------------------------------------------------------------
 LBFGS: improving iteration         2 with line minimization (lambda=  0.204528)
--------------------------------------------------------------------------------

                           -------------------------------
                                      Unit Cell
                           -------------------------------
        Real Lattice(A)              Reciprocal Lattice(1/A)
     2.9765289     0.0000000     0.0000000        2.110910251  -0.000000000   0.000000000
     0.0000000     1.8153491     0.0000000       -0.000000000   3.461144278   0.000000000
     0.0000000     0.0000000     5.6472588        0.000000000   0.000000000   1.112608002

                       Lattice parameters(A)       Cell Angles
                    a =      2.976529          alpha =   90.000000
                    b =      1.815349          beta  =   90.000000
                    c =      5.647259          gamma =   90.000000

                Current cell volume =            30.514619 A**3

                           -------------------------------
                                     Cell Contents
                           -------------------------------

            xxxxxxxxxxxxxxxxxxxxxxxxxxxxxxxxxxxxxxxxxxxxxxxxxxxxxxxxxxxxxxxxx
            x  Element         Atom        Fractional coordinates of atoms  x
            x                 Number           u          v          w      x
            x---------------------------------------------------------------x
            x  H                 1         0.406703   0.369527   0.000000   x
            x  H                 2        -0.406703   0.369527   0.500000   x
            x  H                 3         0.406703  -0.369527   0.500000   x
            x  H                 4        -0.406703  -0.369527   0.000000   x
            x  H                 5         0.357015  -0.000000   0.250000   x
            x  H                 6        -0.357015  -0.000000   0.750000   x
            x  H                 7         0.357015  -0.000000   0.750000   x
            x  H                 8        -0.357015   0.000000   0.250000   x
            x  H                 9         0.906703   0.869527   0.500000   x
            x  H                10        -0.906703   0.869527   0.000000   x
            x  H                11         0.906703  -0.869527   0.000000   x
            x  H                12        -0.906703  -0.869527   0.500000   x
            x  H                13         0.857015   0.500000   0.750000   x
            x  H                14        -0.857015   0.500000   0.250000   x
            x  H                15         0.857015   0.500000   0.250000   x
            x  H                16        -0.857015   0.500000   0.750000   x
            xxxxxxxxxxxxxxxxxxxxxxxxxxxxxxxxxxxxxxxxxxxxxxxxxxxxxxxxxxxxxxxxx


------------------------------------------------------------------------ <-- SCF
SCF loop      Energy                           Energy gain       Timer   <-- SCF
                                               per atom          (sec)   <-- SCF
------------------------------------------------------------------------ <-- SCF
Initial  -2.36627416E+002                                         39.36  <-- SCF
      1  -2.36752669E+002                    7.82832262E-003      39.75  <-- SCF
      2  -2.36753334E+002                    4.16071597E-005      40.45  <-- SCF
      3  -2.36745691E+002                   -4.77738379E-004      41.18  <-- SCF
      4  -2.36745421E+002                   -1.68802125E-005      41.90  <-- SCF
      5  -2.36745420E+002                   -3.84771393E-008      42.61  <-- SCF
      6  -2.36745420E+002                    1.49580765E-009      43.33  <-- SCF
      7  -2.36745420E+002                    8.44298637E-011      43.92  <-- SCF
      8  -2.36745420E+002                    6.95752589E-012      44.48  <-- SCF
      9  -2.36745420E+002                   -3.11170285E-013      45.03  <-- SCF
------------------------------------------------------------------------ <-- SCF
 
Final energy =  -236.7454199384     eV
(energy not corrected for finite basis set)
 

 ******************************** Symmetrised Forces ********************************
 *                                                                                  *
 *                           Cartesian components (eV/A)                            *
 * -------------------------------------------------------------------------------- *
 *                         x                    y                    z              *
 *                                                                                  *
 * H               1     -0.02105             -0.01859             -0.00000         *
 * H               2      0.02105             -0.01859             -0.00000         *
 * H               3     -0.02105              0.01859             -0.00000         *
 * H               4      0.02105              0.01859             -0.00000         *
 * H               5      0.05576              0.00000             -0.00000         *
 * H               6     -0.05576              0.00000             -0.00000         *
 * H               7      0.05576              0.00000              0.00000         *
 * H               8     -0.05576             -0.00000              0.00000         *
 * H               9     -0.02105             -0.01859             -0.00000         *
 * H              10      0.02105             -0.01859             -0.00000         *
 * H              11     -0.02105              0.01859             -0.00000         *
 * H              12      0.02105              0.01859             -0.00000         *
 * H              13      0.05576             -0.00000             -0.00000         *
 * H              14     -0.05576             -0.00000              0.00000         *
 * H              15      0.05576             -0.00000              0.00000         *
 * H              16     -0.05576              0.00000             -0.00000         *
 *                                                                                  *
 ************************************************************************************

 *********** Symmetrised Stress Tensor ***********
 *                                               *
 *          Cartesian components (GPa)           *
 * --------------------------------------------- *
 *             x             y             z     *
 *                                               *
 *  x   -149.608925     -0.000000      0.000000  *
 *  y     -0.000000   -150.733932      0.000000  *
 *  z      0.000000      0.000000   -151.407151  *
 *                                               *
 *  Pressure:  150.5833                          *
 *                                               *
 *************************************************
  
 +------------+-------------+-------------+-----------------+ <-- min LBFGS
 |    Step    |   lambda    |   F.delta'  |    enthalpy     | <-- min LBFGS
 +------------+-------------+-------------+-----------------+ <-- min LBFGS
 |  previous  |    0.000000 |    0.037407 |     -208.174574 | <-- min LBFGS
 | trial step |    1.000000 |   -0.145488 |     -208.147150 | <-- min LBFGS
 |  line step |    0.204528 |    0.003017 |     -208.176807 | <-- min LBFGS
 +------------+-------------+-------------+-----------------+ <-- min LBFGS
  
 LBFGS: finished iteration     2 with enthalpy= -2.08176807E+002 eV
  
 +-----------+-----------------+-----------------+------------+-----+ <-- LBFGS
 | Parameter |      value      |    tolerance    |    units   | OK? | <-- LBFGS
 +-----------+-----------------+-----------------+------------+-----+ <-- LBFGS
 |  dE/ion   |   1.395970E-004 |   1.000000E-009 |         eV | No  | <-- LBFGS
 |  |F|max   |   5.576258E-002 |   1.000000E-005 |       eV/A | No  | <-- LBFGS
 |  |dR|max  |   2.820170E-003 |   1.000000E-005 |          A | No  | <-- LBFGS
 |   Smax    |   1.407151E+000 |   1.000000E-005 |        GPa | No  | <-- LBFGS
 +-----------+-----------------+-----------------+------------+-----+ <-- LBFGS
  

================================================================================
 Starting LBFGS iteration          3 ...
================================================================================
  
 +------------+-------------+-------------+-----------------+ <-- min LBFGS
 |    Step    |   lambda    |   F.delta'  |    enthalpy     | <-- min LBFGS
 +------------+-------------+-------------+-----------------+ <-- min LBFGS
 |  previous  |    0.000000 |    0.020188 |     -208.176807 | <-- min LBFGS
 +------------+-------------+-------------+-----------------+ <-- min LBFGS
  

--------------------------------------------------------------------------------
 LBFGS: starting iteration         3 with trial guess (lambda=  1.000000)
--------------------------------------------------------------------------------

                           -------------------------------
                                      Unit Cell
                           -------------------------------
        Real Lattice(A)              Reciprocal Lattice(1/A)
     2.9774517     0.0000000     0.0000000        2.110255999  -0.000000000   0.000000000
     0.0000000     1.8178303     0.0000000       -0.000000000   3.456420087   0.000000000
     0.0000000     0.0000000     5.6592298        0.000000000   0.000000000   1.110254492

                       Lattice parameters(A)       Cell Angles
                    a =      2.977452          alpha =   90.000000
                    b =      1.817830          beta  =   90.000000
                    c =      5.659230          gamma =   90.000000

                Current cell volume =            30.630593 A**3

                           -------------------------------
                                     Cell Contents
                           -------------------------------

            xxxxxxxxxxxxxxxxxxxxxxxxxxxxxxxxxxxxxxxxxxxxxxxxxxxxxxxxxxxxxxxxx
            x  Element         Atom        Fractional coordinates of atoms  x
            x                 Number           u          v          w      x
            x---------------------------------------------------------------x
            x  H                 1         0.406623   0.369404   0.000000   x
            x  H                 2        -0.406623   0.369404   0.500000   x
            x  H                 3         0.406623  -0.369404   0.500000   x
            x  H                 4        -0.406623  -0.369404   0.000000   x
            x  H                 5         0.359449  -0.000000   0.250000   x
            x  H                 6        -0.359449  -0.000000   0.750000   x
            x  H                 7         0.359449  -0.000000   0.750000   x
            x  H                 8        -0.359449   0.000000   0.250000   x
            x  H                 9         0.906623   0.869404   0.500000   x
            x  H                10        -0.906623   0.869404   0.000000   x
            x  H                11         0.906623  -0.869404   0.000000   x
            x  H                12        -0.906623  -0.869404   0.500000   x
            x  H                13         0.859449   0.500000   0.750000   x
            x  H                14        -0.859449   0.500000   0.250000   x
            x  H                15         0.859449   0.500000   0.250000   x
            x  H                16        -0.859449   0.500000   0.750000   x
            xxxxxxxxxxxxxxxxxxxxxxxxxxxxxxxxxxxxxxxxxxxxxxxxxxxxxxxxxxxxxxxxx


------------------------------------------------------------------------ <-- SCF
SCF loop      Energy                           Energy gain       Timer   <-- SCF
                                               per atom          (sec)   <-- SCF
------------------------------------------------------------------------ <-- SCF
Initial  -2.36814866E+002                                         47.46  <-- SCF
      1  -2.36857908E+002                    2.69012831E-003      47.85  <-- SCF
      2  -2.36858136E+002                    1.42710282E-005      48.56  <-- SCF
      3  -2.36855960E+002                   -1.36040301E-004      49.28  <-- SCF
      4  -2.36855862E+002                   -6.09803674E-006      50.00  <-- SCF
      5  -2.36855862E+002                   -5.09295427E-009      50.72  <-- SCF
      6  -2.36855862E+002                    8.33326108E-010      51.45  <-- SCF
      7  -2.36855862E+002                    1.77095166E-011      52.02  <-- SCF
      8  -2.36855862E+002                    2.89418576E-012      52.60  <-- SCF
      9  -2.36855862E+002                   -7.85478390E-014      53.17  <-- SCF
------------------------------------------------------------------------ <-- SCF
 
Final energy =  -236.8558620714     eV
(energy not corrected for finite basis set)
 

 ******************************** Symmetrised Forces ********************************
 *                                                                                  *
 *                           Cartesian components (eV/A)                            *
 * -------------------------------------------------------------------------------- *
 *                         x                    y                    z              *
 *                                                                                  *
 * H               1     -0.00419              0.00819             -0.00000         *
 * H               2      0.00419              0.00819             -0.00000         *
 * H               3     -0.00419             -0.00819             -0.00000         *
 * H               4      0.00419             -0.00819             -0.00000         *
 * H               5     -0.00600              0.00000             -0.00000         *
 * H               6      0.00600              0.00000             -0.00000         *
 * H               7     -0.00600              0.00000             -0.00000         *
 * H               8      0.00600             -0.00000              0.00000         *
 * H               9     -0.00419              0.00819             -0.00000         *
 * H              10      0.00419              0.00819             -0.00000         *
 * H              11     -0.00419             -0.00819             -0.00000         *
 * H              12      0.00419             -0.00819             -0.00000         *
 * H              13     -0.00600              0.00000             -0.00000         *
 * H              14      0.00600             -0.00000              0.00000         *
 * H              15     -0.00600              0.00000              0.00000         *
 * H              16      0.00600              0.00000             -0.00000         *
 *                                                                                  *
 ************************************************************************************

 *********** Symmetrised Stress Tensor ***********
 *                                               *
 *          Cartesian components (GPa)           *
 * --------------------------------------------- *
 *             x             y             z     *
 *                                               *
 *  x   -149.754104      0.000000      0.000000  *
 *  y      0.000000   -150.240122      0.000000  *
 *  z      0.000000      0.000000   -149.862318  *
 *                                               *
 *  Pressure:  149.9522                          *
 *                                               *
 *************************************************
  
 +------------+-------------+-------------+-----------------+ <-- min LBFGS
 |    Step    |   lambda    |   F.delta'  |    enthalpy     | <-- min LBFGS
 +------------+-------------+-------------+-----------------+ <-- min LBFGS
 |  previous  |    0.000000 |    0.020188 |     -208.176807 | <-- min LBFGS
 | trial step |    1.000000 |   -0.001810 |     -208.178674 | <-- min LBFGS
 +------------+-------------+-------------+-----------------+ <-- min LBFGS
  
 LBFGS: finished iteration     3 with enthalpy= -2.08178674E+002 eV
  
 +-----------+-----------------+-----------------+------------+-----+ <-- LBFGS
 | Parameter |      value      |    tolerance    |    units   | OK? | <-- LBFGS
 +-----------+-----------------+-----------------+------------+-----+ <-- LBFGS
 |  dE/ion   |   1.166420E-004 |   1.000000E-009 |         eV | No  | <-- LBFGS
 |  |F|max   |   9.205396E-003 |   1.000000E-005 |       eV/A | No  | <-- LBFGS
 |  |dR|max  |   7.248122E-003 |   1.000000E-005 |          A | No  | <-- LBFGS
 |   Smax    |   2.458959E-001 |   1.000000E-005 |        GPa | No  | <-- LBFGS
 +-----------+-----------------+-----------------+------------+-----+ <-- LBFGS
  

================================================================================
 Starting LBFGS iteration          4 ...
================================================================================
  
 +------------+-------------+-------------+-----------------+ <-- min LBFGS
 |    Step    |   lambda    |   F.delta'  |    enthalpy     | <-- min LBFGS
 +------------+-------------+-------------+-----------------+ <-- min LBFGS
 |  previous  |    0.000000 |    0.003053 |     -208.178674 | <-- min LBFGS
 +------------+-------------+-------------+-----------------+ <-- min LBFGS
  

--------------------------------------------------------------------------------
 LBFGS: starting iteration         4 with trial guess (lambda=  1.000000)
--------------------------------------------------------------------------------

                           -------------------------------
                                      Unit Cell
                           -------------------------------
        Real Lattice(A)              Reciprocal Lattice(1/A)
     2.9768720     0.0000000     0.0000000        2.110666912  -0.000000000   0.000000000
     0.0000000     1.8180128     0.0000000       -0.000000000   3.456073254   0.000000000
     0.0000000     0.0000000     5.6584202        0.000000000   0.000000000   1.110413349

                       Lattice parameters(A)       Cell Angles
                    a =      2.976872          alpha =   90.000000
                    b =      1.818013          beta  =   90.000000
                    c =      5.658420          gamma =   90.000000

                Current cell volume =            30.623321 A**3

                           -------------------------------
                                     Cell Contents
                           -------------------------------

            xxxxxxxxxxxxxxxxxxxxxxxxxxxxxxxxxxxxxxxxxxxxxxxxxxxxxxxxxxxxxxxxx
            x  Element         Atom        Fractional coordinates of atoms  x
            x                 Number           u          v          w      x
            x---------------------------------------------------------------x
            x  H                 1         0.406446   0.369742   0.000000   x
            x  H                 2        -0.406446   0.369742   0.500000   x
            x  H                 3         0.406446  -0.369742   0.500000   x
            x  H                 4        -0.406446  -0.369742   0.000000   x
            x  H                 5         0.359262  -0.000000   0.250000   x
            x  H                 6        -0.359262   0.000000   0.750000   x
            x  H                 7         0.359262  -0.000000   0.750000   x
            x  H                 8        -0.359262   0.000000   0.250000   x
            x  H                 9         0.906446   0.869742   0.500000   x
            x  H                10        -0.906446   0.869742   0.000000   x
            x  H                11         0.906446  -0.869742   0.000000   x
            x  H                12        -0.906446  -0.869742   0.500000   x
            x  H                13         0.859262   0.500000   0.750000   x
            x  H                14        -0.859262   0.500000   0.250000   x
            x  H                15         0.859262   0.500000   0.250000   x
            x  H                16        -0.859262   0.500000   0.750000   x
            xxxxxxxxxxxxxxxxxxxxxxxxxxxxxxxxxxxxxxxxxxxxxxxxxxxxxxxxxxxxxxxxx


------------------------------------------------------------------------ <-- SCF
SCF loop      Energy                           Energy gain       Timer   <-- SCF
                                               per atom          (sec)   <-- SCF
------------------------------------------------------------------------ <-- SCF
Initial  -2.36848655E+002                                         55.60  <-- SCF
      1  -2.36849141E+002                    3.03693338E-005      55.99  <-- SCF
      2  -2.36849143E+002                    1.49704631E-007      56.72  <-- SCF
      3  -2.36849134E+002                   -5.93272387E-007      57.44  <-- SCF
      4  -2.36849134E+002                   -2.37980950E-008      58.19  <-- SCF
      5  -2.36849134E+002                    1.19580022E-010      58.90  <-- SCF
      6  -2.36849134E+002                    1.61204334E-011      59.47  <-- SCF
      7  -2.36849134E+002                    4.77329175E-013      60.03  <-- SCF
      8  -2.36849134E+002                   -2.47727800E-013      60.59  <-- SCF
------------------------------------------------------------------------ <-- SCF
 
Final energy =  -236.8491335629     eV
(energy not corrected for finite basis set)
 

 ******************************** Symmetrised Forces ********************************
 *                                                                                  *
 *                           Cartesian components (eV/A)                            *
 * -------------------------------------------------------------------------------- *
 *                         x                    y                    z              *
 *                                                                                  *
 * H               1     -0.00482              0.00524             -0.00000         *
 * H               2      0.00482              0.00524             -0.00000         *
 * H               3     -0.00482             -0.00524             -0.00000         *
 * H               4      0.00482             -0.00524             -0.00000         *
 * H               5      0.00018              0.00000              0.00000         *
 * H               6     -0.00018              0.00000             -0.00000         *
 * H               7      0.00018              0.00000             -0.00000         *
 * H               8     -0.00018             -0.00000             -0.00000         *
 * H               9     -0.00482              0.00524             -0.00000         *
 * H              10      0.00482              0.00524             -0.00000         *
 * H              11     -0.00482             -0.00524             -0.00000         *
 * H              12      0.00482             -0.00524             -0.00000         *
 * H              13      0.00018              0.00000              0.00000         *
 * H              14     -0.00018              0.00000             -0.00000         *
 * H              15      0.00018              0.00000              0.00000         *
 * H              16     -0.00018              0.00000              0.00000         *
 *                                                                                  *
 ************************************************************************************

 *********** Symmetrised Stress Tensor ***********
 *                                               *
 *          Cartesian components (GPa)           *
 * --------------------------------------------- *
 *             x             y             z     *
 *                                               *
 *  x   -149.834987      0.000000      0.000000  *
 *  y      0.000000   -150.175008      0.000000  *
 *  z      0.000000      0.000000   -149.942461  *
 *                                               *
 *  Pressure:  149.9842                          *
 *                                               *
 *************************************************
  
 +------------+-------------+-------------+-----------------+ <-- min LBFGS
 |    Step    |   lambda    |   F.delta'  |    enthalpy     | <-- min LBFGS
 +------------+-------------+-------------+-----------------+ <-- min LBFGS
 |  previous  |    0.000000 |    0.003053 |     -208.178674 | <-- min LBFGS
 | trial step |    1.000000 |    0.001683 |     -208.178749 | <-- min LBFGS
 +------------+-------------+-------------+-----------------+ <-- min LBFGS
  

--------------------------------------------------------------------------------
 LBFGS: improving iteration         4 with line minimization (lambda=  2.228019)
--------------------------------------------------------------------------------

                           -------------------------------
                                      Unit Cell
                           -------------------------------
        Real Lattice(A)              Reciprocal Lattice(1/A)
     2.9761602     0.0000000     0.0000000        2.111171741  -0.000000000   0.000000000
     0.0000000     1.8182368     0.0000000       -0.000000000   3.455647433   0.000000000
     0.0000000     0.0000000     5.6574260        0.000000000   0.000000000   1.110608489

                       Lattice parameters(A)       Cell Angles
                    a =      2.976160          alpha =   90.000000
                    b =      1.818237          beta  =   90.000000
                    c =      5.657426          gamma =   90.000000

                Current cell volume =            30.614391 A**3

                           -------------------------------
                                     Cell Contents
                           -------------------------------

            xxxxxxxxxxxxxxxxxxxxxxxxxxxxxxxxxxxxxxxxxxxxxxxxxxxxxxxxxxxxxxxxx
            x  Element         Atom        Fractional coordinates of atoms  x
            x                 Number           u          v          w      x
            x---------------------------------------------------------------x
            x  H                 1         0.406230   0.370157   0.000000   x
            x  H                 2        -0.406230   0.370157   0.500000   x
            x  H                 3         0.406230  -0.370157   0.500000   x
            x  H                 4        -0.406230  -0.370157   0.000000   x
            x  H                 5         0.359033  -0.000000   0.250000   x
            x  H                 6        -0.359033   0.000000   0.750000   x
            x  H                 7         0.359033  -0.000000   0.750000   x
            x  H                 8        -0.359033   0.000000   0.250000   x
            x  H                 9         0.906230   0.870157   0.500000   x
            x  H                10        -0.906230   0.870157   0.000000   x
            x  H                11         0.906230  -0.870157   0.000000   x
            x  H                12        -0.906230  -0.870157   0.500000   x
            x  H                13         0.859033   0.500000   0.750000   x
            x  H                14        -0.859033   0.500000   0.250000   x
            x  H                15         0.859033   0.500000   0.250000   x
            x  H                16        -0.859033   0.500000   0.750000   x
            xxxxxxxxxxxxxxxxxxxxxxxxxxxxxxxxxxxxxxxxxxxxxxxxxxxxxxxxxxxxxxxxx


------------------------------------------------------------------------ <-- SCF
SCF loop      Energy                           Energy gain       Timer   <-- SCF
                                               per atom          (sec)   <-- SCF
------------------------------------------------------------------------ <-- SCF
Initial  -2.36840089E+002                                         63.00  <-- SCF
      1  -2.36840819E+002                    4.56443785E-005      63.39  <-- SCF
      2  -2.36840822E+002                    2.23106913E-007      64.11  <-- SCF
      3  -2.36840808E+002                   -8.85913101E-007      64.83  <-- SCF
      4  -2.36840808E+002                   -3.56699543E-008      65.56  <-- SCF
      5  -2.36840808E+002                    1.84632738E-010      66.26  <-- SCF
      6  -2.36840808E+002                    2.46368318E-011      66.84  <-- SCF
      7  -2.36840808E+002                    8.91215865E-013      67.41  <-- SCF
      8  -2.36840808E+002                   -5.22645236E-013      67.99  <-- SCF
------------------------------------------------------------------------ <-- SCF
 
Final energy =  -236.8408076688     eV
(energy not corrected for finite basis set)
 

 ******************************** Symmetrised Forces ********************************
 *                                                                                  *
 *                           Cartesian components (eV/A)                            *
 * -------------------------------------------------------------------------------- *
 *                         x                    y                    z              *
 *                                                                                  *
 * H               1     -0.00551              0.00171              0.00000         *
 * H               2      0.00551              0.00171              0.00000         *
 * H               3     -0.00551             -0.00171              0.00000         *
 * H               4      0.00551             -0.00171              0.00000         *
 * H               5      0.00768              0.00000             -0.00000         *
 * H               6     -0.00768              0.00000             -0.00000         *
 * H               7      0.00768              0.00000              0.00000         *
 * H               8     -0.00768              0.00000             -0.00000         *
 * H               9     -0.00551              0.00171              0.00000         *
 * H              10      0.00551              0.00171              0.00000         *
 * H              11     -0.00551             -0.00171              0.00000         *
 * H              12      0.00551             -0.00171              0.00000         *
 * H              13      0.00768             -0.00000              0.00000         *
 * H              14     -0.00768              0.00000              0.00000         *
 * H              15      0.00768              0.00000              0.00000         *
 * H              16     -0.00768              0.00000              0.00000         *
 *                                                                                  *
 ************************************************************************************

 *********** Symmetrised Stress Tensor ***********
 *                                               *
 *          Cartesian components (GPa)           *
 * --------------------------------------------- *
 *             x             y             z     *
 *                                               *
 *  x   -149.935190     -0.000000      0.000000  *
 *  y     -0.000000   -150.094386      0.000000  *
 *  z      0.000000      0.000000   -150.042270  *
 *                                               *
 *  Pressure:  150.0239                          *
 *                                               *
 *************************************************
  
 +------------+-------------+-------------+-----------------+ <-- min LBFGS
 |    Step    |   lambda    |   F.delta'  |    enthalpy     | <-- min LBFGS
 +------------+-------------+-------------+-----------------+ <-- min LBFGS
 |  previous  |    0.000000 |    0.003053 |     -208.178674 | <-- min LBFGS
 | trial step |    1.000000 |    0.001683 |     -208.178749 | <-- min LBFGS
 |  line step |    2.228019 |    0.000015 |     -208.178781 | <-- min LBFGS
 +------------+-------------+-------------+-----------------+ <-- min LBFGS
  
 LBFGS: finished iteration     4 with enthalpy= -2.08178781E+002 eV
  
 +-----------+-----------------+-----------------+------------+-----+ <-- LBFGS
 | Parameter |      value      |    tolerance    |    units   | OK? | <-- LBFGS
 +-----------+-----------------+-----------------+------------+-----+ <-- LBFGS
 |  dE/ion   |   6.684152E-006 |   1.000000E-009 |         eV | No  | <-- LBFGS
 |  |F|max   |   7.680109E-003 |   1.000000E-005 |       eV/A | No  | <-- LBFGS
 |  |dR|max  |   1.799737E-003 |   1.000000E-005 |          A | No  | <-- LBFGS
 |   Smax    |   9.438569E-002 |   1.000000E-005 |        GPa | No  | <-- LBFGS
 +-----------+-----------------+-----------------+------------+-----+ <-- LBFGS
  

================================================================================
 Starting LBFGS iteration          5 ...
================================================================================
  
 +------------+-------------+-------------+-----------------+ <-- min LBFGS
 |    Step    |   lambda    |   F.delta'  |    enthalpy     | <-- min LBFGS
 +------------+-------------+-------------+-----------------+ <-- min LBFGS
 |  previous  |    0.000000 |    0.001801 |     -208.178781 | <-- min LBFGS
 +------------+-------------+-------------+-----------------+ <-- min LBFGS
  

--------------------------------------------------------------------------------
 LBFGS: starting iteration         5 with trial guess (lambda=  1.000000)
--------------------------------------------------------------------------------

                           -------------------------------
                                      Unit Cell
                           -------------------------------
        Real Lattice(A)              Reciprocal Lattice(1/A)
     2.9756918     0.0000000     0.0000000        2.111504088  -0.000000000   0.000000000
     0.0000000     1.8187403     0.0000000       -0.000000000   3.454690814   0.000000000
     0.0000000     0.0000000     5.6576658        0.000000000   0.000000000   1.110561404

                       Lattice parameters(A)       Cell Angles
                    a =      2.975692          alpha =   90.000000
                    b =      1.818740          beta  =   90.000000
                    c =      5.657666          gamma =   90.000000

                Current cell volume =            30.619346 A**3

                           -------------------------------
                                     Cell Contents
                           -------------------------------

            xxxxxxxxxxxxxxxxxxxxxxxxxxxxxxxxxxxxxxxxxxxxxxxxxxxxxxxxxxxxxxxxx
            x  Element         Atom        Fractional coordinates of atoms  x
            x                 Number           u          v          w      x
            x---------------------------------------------------------------x
            x  H                 1         0.405941   0.370673   0.000000   x
            x  H                 2        -0.405941   0.370673   0.500000   x
            x  H                 3         0.405941  -0.370673   0.500000   x
            x  H                 4        -0.405941  -0.370673   0.000000   x
            x  H                 5         0.359187  -0.000000   0.250000   x
            x  H                 6        -0.359187   0.000000   0.750000   x
            x  H                 7         0.359187  -0.000000   0.750000   x
            x  H                 8        -0.359187   0.000000   0.250000   x
            x  H                 9         0.905941   0.870673   0.500000   x
            x  H                10        -0.905941   0.870673   0.000000   x
            x  H                11         0.905941  -0.870673   0.000000   x
            x  H                12        -0.905941  -0.870673   0.500000   x
            x  H                13         0.859187   0.500000   0.750000   x
            x  H                14        -0.859187   0.500000   0.250000   x
            x  H                15         0.859187   0.500000   0.250000   x
            x  H                16        -0.859187   0.500000   0.750000   x
            xxxxxxxxxxxxxxxxxxxxxxxxxxxxxxxxxxxxxxxxxxxxxxxxxxxxxxxxxxxxxxxxx


------------------------------------------------------------------------ <-- SCF
SCF loop      Energy                           Energy gain       Timer   <-- SCF
[...]
            x---------------------------------------------------------------x
            x  H                 1         0.405056   0.372358   0.000000   x
            x  H                 2        -0.405056   0.372358   0.500000   x
            x  H                 3         0.405056  -0.372358   0.500000   x
            x  H                 4        -0.405056  -0.372358   0.000000   x
            x  H                 5         0.359568  -0.000000   0.250000   x
            x  H                 6        -0.359568   0.000000   0.750000   x
            x  H                 7         0.359568  -0.000000   0.750000   x
            x  H                 8        -0.359568   0.000000   0.250000   x
            x  H                 9         0.905056   0.872358   0.500000   x
            x  H                10        -0.905056   0.872358   0.000000   x
            x  H                11         0.905056  -0.872358   0.000000   x
            x  H                12        -0.905056  -0.872358   0.500000   x
            x  H                13         0.859568   0.500000   0.750000   x
            x  H                14        -0.859568   0.500000   0.250000   x
            x  H                15         0.859568   0.500000   0.250000   x
            x  H                16        -0.859568   0.500000   0.750000   x
            xxxxxxxxxxxxxxxxxxxxxxxxxxxxxxxxxxxxxxxxxxxxxxxxxxxxxxxxxxxxxxxxx


------------------------------------------------------------------------ <-- SCF
SCF loop      Energy                           Energy gain       Timer   <-- SCF
                                               per atom          (sec)   <-- SCF
------------------------------------------------------------------------ <-- SCF
Initial  -2.36855649E+002                                        140.38  <-- SCF
      1  -2.36855649E+002                    1.38969254E-013     140.64  <-- SCF
      2  -2.36855649E+002                    6.04214146E-015     141.20  <-- SCF
      3  -2.36855649E+002                   -1.14800688E-013     141.78  <-- SCF
      4  -2.36855649E+002                   -2.14496022E-013     142.35  <-- SCF
------------------------------------------------------------------------ <-- SCF
 
Final energy =  -236.8556486812     eV
(energy not corrected for finite basis set)
 

 ******************************** Symmetrised Forces ********************************
 *                                                                                  *
 *                           Cartesian components (eV/A)                            *
 * -------------------------------------------------------------------------------- *
 *                         x                    y                    z              *
 *                                                                                  *
 * H               1     -0.00000             -0.00000             -0.00000         *
 * H               2      0.00000             -0.00000             -0.00000         *
 * H               3     -0.00000              0.00000             -0.00000         *
 * H               4      0.00000              0.00000             -0.00000         *
 * H               5      0.00000             -0.00000              0.00000         *
 * H               6     -0.00000              0.00000              0.00000         *
 * H               7      0.00000              0.00000             -0.00000         *
 * H               8     -0.00000              0.00000              0.00000         *
 * H               9     -0.00000             -0.00000             -0.00000         *
 * H              10      0.00000             -0.00000             -0.00000         *
 * H              11     -0.00000              0.00000             -0.00000         *
 * H              12      0.00000              0.00000             -0.00000         *
 * H              13      0.00000              0.00000              0.00000         *
 * H              14     -0.00000              0.00000              0.00000         *
 * H              15      0.00000             -0.00000             -0.00000         *
 * H              16     -0.00000              0.00000             -0.00000         *
 *                                                                                  *
 ************************************************************************************

 *********** Symmetrised Stress Tensor ***********
 *                                               *
 *          Cartesian components (GPa)           *
 * --------------------------------------------- *
 *             x             y             z     *
 *                                               *
 *  x   -149.999999      0.000000      0.000000  *
 *  y      0.000000   -150.000001      0.000000  *
 *  z      0.000000      0.000000   -150.000002  *
 *                                               *
 *  Pressure:  150.0000                          *
 *                                               *
 *************************************************
  
 +------------+-------------+-------------+-----------------+ <-- min LBFGS
 |    Step    |   lambda    |   F.delta'  |    enthalpy     | <-- min LBFGS
 +------------+-------------+-------------+-----------------+ <-- min LBFGS
 |  previous  |    0.000000 |  1.009E-007 |     -208.178926 | <-- min LBFGS
 | trial step |    1.000000 |  4.022E-009 |     -208.178926 | <-- min LBFGS
 +------------+-------------+-------------+-----------------+ <-- min LBFGS
  
 LBFGS: finished iteration    13 with enthalpy= -2.08178926E+002 eV
  
 +-----------+-----------------+-----------------+------------+-----+ <-- LBFGS
 | Parameter |      value      |    tolerance    |    units   | OK? | <-- LBFGS
 +-----------+-----------------+-----------------+------------+-----+ <-- LBFGS
 |  dE/ion   |   1.842853E-013 |   1.000000E-009 |         eV | Yes | <-- LBFGS
 |  |F|max   |   7.068463E-008 |   1.000000E-005 |       eV/A | Yes | <-- LBFGS
 |  |dR|max  |   4.996612E-008 |   1.000000E-005 |          A | Yes | <-- LBFGS
 |   Smax    |   1.981082E-006 |   1.000000E-005 |        GPa | Yes | <-- LBFGS
 +-----------+-----------------+-----------------+------------+-----+ <-- LBFGS
  
 LBFGS: Geometry optimization completed successfully.

================================================================================
 LBFGS: Final Configuration:
================================================================================

                           -------------------------------
                                      Unit Cell
                           -------------------------------
        Real Lattice(A)              Reciprocal Lattice(1/A)
     2.9764596     0.0000000     0.0000000        2.110959364  -0.000000000   0.000000000
     0.0000000     1.8190436     0.0000000       -0.000000000   3.454114776   0.000000000
     0.0000000     0.0000000     5.6572481        0.000000000   0.000000000   1.110643417

                       Lattice parameters(A)       Cell Angles
                    a =      2.976460          alpha =   90.000000
                    b =      1.819044          beta  =   90.000000
                    c =      5.657248          gamma =   90.000000

                Current cell volume =            30.630093 A**3

                           -------------------------------
                                     Cell Contents
                           -------------------------------

            xxxxxxxxxxxxxxxxxxxxxxxxxxxxxxxxxxxxxxxxxxxxxxxxxxxxxxxxxxxxxxxxx
            x  Element         Atom        Fractional coordinates of atoms  x
            x                 Number           u          v          w      x
            x---------------------------------------------------------------x
            x  H                 1         0.405056   0.372358   0.000000   x
            x  H                 2        -0.405056   0.372358   0.500000   x
            x  H                 3         0.405056  -0.372358   0.500000   x
            x  H                 4        -0.405056  -0.372358   0.000000   x
            x  H                 5         0.359568  -0.000000   0.250000   x
            x  H                 6        -0.359568   0.000000   0.750000   x
            x  H                 7         0.359568  -0.000000   0.750000   x
            x  H                 8        -0.359568   0.000000   0.250000   x
            x  H                 9         0.905056   0.872358   0.500000   x
            x  H                10        -0.905056   0.872358   0.000000   x
            x  H                11         0.905056  -0.872358   0.000000   x
            x  H                12        -0.905056  -0.872358   0.500000   x
            x  H                13         0.859568   0.500000   0.750000   x
            x  H                14        -0.859568   0.500000   0.250000   x
            x  H                15         0.859568   0.500000   0.250000   x
            x  H                16        -0.859568   0.500000   0.750000   x
            xxxxxxxxxxxxxxxxxxxxxxxxxxxxxxxxxxxxxxxxxxxxxxxxxxxxxxxxxxxxxxxxx


 LBFGS: Final Enthalpy     = -2.08178926E+002 eV
 LBFGS: Final <frequency>  =     560.39522 cm-1
 LBFGS: Final bulk modulus =     393.58641 GPa

 ******************************** Symmetrised Forces ********************************
 *                                                                                  *
 *                           Cartesian components (eV/A)                            *
 * -------------------------------------------------------------------------------- *
 *                         x                    y                    z              *
 *                                                                                  *
 * H               1     -0.00000             -0.00000             -0.00000         *
 * H               2      0.00000             -0.00000             -0.00000         *
 * H               3     -0.00000              0.00000             -0.00000         *
 * H               4      0.00000              0.00000             -0.00000         *
 * H               5      0.00000             -0.00000              0.00000         *
 * H               6     -0.00000              0.00000              0.00000         *
 * H               7      0.00000              0.00000             -0.00000         *
 * H               8     -0.00000              0.00000              0.00000         *
 * H               9     -0.00000             -0.00000             -0.00000         *
 * H              10      0.00000             -0.00000             -0.00000         *
 * H              11     -0.00000              0.00000             -0.00000         *
 * H              12      0.00000              0.00000             -0.00000         *
 * H              13      0.00000              0.00000              0.00000         *
 * H              14     -0.00000              0.00000              0.00000         *
 * H              15      0.00000             -0.00000             -0.00000         *
 * H              16     -0.00000              0.00000             -0.00000         *
 *                                                                                  *
 ************************************************************************************

 *********** Symmetrised Stress Tensor ***********
 *                                               *
 *          Cartesian components (GPa)           *
 * --------------------------------------------- *
 *             x             y             z     *
 *                                               *
 *  x   -149.999999      0.000000      0.000000  *
 *  y      0.000000   -150.000001      0.000000  *
 *  z      0.000000      0.000000   -150.000002  *
 *                                               *
 *  Pressure:  150.0000                          *
 *                                               *
 *************************************************

 Pseudo atomic calculation performed for H 1s1

 Converged in 24 iterations to a total energy of -12.4843 eV

Charge spilling parameter for spin component 1 = 0.56%

            Orbital Populations       
     Ion    Atom   Orbital             Charge
  -------------------------------------------
      H     1      S                    1.005
      H     2      S                    1.004
      H     3      S                    1.004
      H     4      S                    1.005
      H     5      S                    0.995
      H     6      S                    0.995
      H     7      S                    0.995
      H     8      S                    0.995
      H     9      S                    1.005
      H    10      S                    1.004
      H    11      S                    1.004
      H    12      S                    1.005
      H    13      S                    0.995
      H    14      S                    0.995
      H    15      S                    0.995
      H    16      S                    0.995
  -------------------------------------------
                           Total:      16.000
  -------------------------------------------

     Atomic Populations (Mulliken)
     -----------------------------
Species          Ion     s      p      d      f     Total  Charge (e)
=====================================================================
  H               1     1.00   0.00   0.00   0.00   1.00    -0.00
  H               2     1.00   0.00   0.00   0.00   1.00    -0.00
  H               3     1.00   0.00   0.00   0.00   1.00    -0.00
  H               4     1.00   0.00   0.00   0.00   1.00    -0.00
  H               5     1.00   0.00   0.00   0.00   1.00     0.00
  H               6     1.00   0.00   0.00   0.00   1.00     0.00
  H               7     1.00   0.00   0.00   0.00   1.00     0.00
  H               8     1.00   0.00   0.00   0.00   1.00     0.00
  H               9     1.00   0.00   0.00   0.00   1.00    -0.00
  H              10     1.00   0.00   0.00   0.00   1.00    -0.00
  H              11     1.00   0.00   0.00   0.00   1.00    -0.00
  H              12     1.00   0.00   0.00   0.00   1.00    -0.00
  H              13     1.00   0.00   0.00   0.00   1.00     0.00
  H              14     1.00   0.00   0.00   0.00   1.00     0.00
  H              15     1.00   0.00   0.00   0.00   1.00     0.00
  H              16     1.00   0.00   0.00   0.00   1.00     0.00
=====================================================================

                 Bond                   Population      Length (A)
======================================================================
              H 10 -- H 11                   1.45        0.73150
              H 9  -- H 12                   1.45        0.73150
              H 2  -- H 3                    1.45        0.73150
              H 1  -- H 4                    1.45        0.73150
              H 14 -- H 15                   0.57        0.83598
              H 13 -- H 16                   0.57        0.83598
              H 6  -- H 7                    0.57        0.83598
              H 5  -- H 8                    0.57        0.83598
              H 7  -- H 16                   0.69        1.11922
              H 5  -- H 14                   0.69        1.11922
              H 8  -- H 15                   0.69        1.11922
              H 6  -- H 13                   0.69        1.11922
              H 4  -- H 11                  -0.25        1.29585
              H 3  -- H 12                  -0.25        1.29585
              H 2  -- H 9                   -0.25        1.29585
              H 1  -- H 10                  -0.25        1.29585
              H 4  -- H 10                  -0.58        1.55338
              H 3  -- H 9                   -0.58        1.55338
              H 2  -- H 12                  -0.58        1.55338
              H 1  -- H 11                  -0.58        1.55338
              H 4  -- H 8                   -0.11        1.57397
              H 4  -- H 6                   -0.11        1.57397
              H 3  -- H 7                   -0.11        1.57397
              H 3  -- H 5                   -0.11        1.57397
              H 2  -- H 8                   -0.11        1.57397
              H 2  -- H 6                   -0.11        1.57397
              H 1  -- H 7                   -0.11        1.57397
              H 1  -- H 5                   -0.11        1.57397
              H 12 -- H 16                  -0.11        1.57397
              H 12 -- H 14                  -0.11        1.57397
              H 11 -- H 15                  -0.11        1.57397
              H 11 -- H 13                  -0.11        1.57397
              H 10 -- H 16                  -0.11        1.57397
              H 10 -- H 14                  -0.11        1.57397
              H 9  -- H 15                  -0.11        1.57397
              H 9  -- H 13                  -0.11        1.57397
              H 4  -- H 15                  -0.07        1.63541
              H 4  -- H 13                  -0.07        1.63541
              H 3  -- H 16                  -0.07        1.63541
              H 3  -- H 14                  -0.07        1.63541
              H 2  -- H 15                  -0.07        1.63541
              H 2  -- H 13                  -0.07        1.63541
              H 1  -- H 16                  -0.07        1.63541
              H 1  -- H 14                  -0.07        1.63541
              H 8  -- H 11                  -0.07        1.63541
              H 8  -- H 9                   -0.07        1.63541
              H 7  -- H 12                  -0.07        1.63541
              H 7  -- H 10                  -0.07        1.63541
              H 6  -- H 11                  -0.07        1.63541
              H 6  -- H 9                   -0.07        1.63541
              H 5  -- H 12                  -0.07        1.63541
              H 5  -- H 10                  -0.07        1.63541
              H 10 -- H 15                  -0.20        1.71752
              H 10 -- H 13                  -0.20        1.71752
              H 9  -- H 16                  -0.20        1.71752
              H 9  -- H 14                  -0.20        1.71752
              H 12 -- H 15                  -0.20        1.71752
              H 12 -- H 13                  -0.20        1.71752
              H 11 -- H 16                  -0.20        1.71752
              H 11 -- H 14                  -0.20        1.71752
              H 4  -- H 7                   -0.20        1.71752
              H 4  -- H 5                   -0.20        1.71752
              H 3  -- H 8                   -0.20        1.71752
              H 3  -- H 6                   -0.20        1.71752
              H 2  -- H 7                   -0.20        1.71752
              H 2  -- H 5                   -0.20        1.71752
              H 1  -- H 8                   -0.20        1.71752
              H 1  -- H 6                   -0.20        1.71752
              H 8  -- H 14                  -0.67        1.74415
              H 7  -- H 13                  -0.67        1.74415
              H 6  -- H 16                  -0.67        1.74415
              H 5  -- H 15                  -0.67        1.74415
======================================================================


Writing analysis data to Hibam.castep_bin

Writing model to Hibam.check
 
 A BibTeX formatted list of references used in this run has been written to 
 Hibam.bib
 
Initialisation time =      2.87 s
Calculation time    =    142.82 s
Finalisation time   =      0.79 s
Total time          =    146.48 s
Peak Memory Use     = 554540 kB
  
Overall parallel efficiency rating: Very good (83%)                             
  
Data was distributed by:-
k-point (32-way); efficiency rating: Very good (84%)                            
  
Parallel notes:
1) Calculation only took 145.7 s, so efficiency estimates may be inaccurate.    
