 +-------------------------------------------------+
 |                                                 |
 |      CCC   AA    SSS  TTTTT  EEEEE  PPPP        |
 |     C     A  A  S       T    E      P   P       |
 |     C     AAAA   SS     T    EEE    PPPP        |
 |     C     A  A     S    T    E      P           |
 |      CCC  A  A  SSS     T    EEEEE  P           |
 |                                                 |
 +-------------------------------------------------+
 |                                                 |
 | Welcome to Academic Release CASTEP version 18.1 |          
 | Ab Initio Total Energy Program                  |
 |                                                 |
 | Authors:                                        |
 | M. Segall, M. Probert, C. Pickard, P. Hasnip,   |
 | S. Clark, K. Refson, J. R. Yates, M. Payne      |
 |                                                 |
 | Contributors:                                   |
 | P. Lindan, P. Haynes, J. White, V. Milman,      |
 | N. Govind, M. Gibson, P. Tulip, V. Cocula,      |
 | B. Montanari, D. Quigley, M. Glover,            |
 | L. Bernasconi, A. Perlov, M. Plummer,           |
 | E. McNellis, J. Meyer, J. Gale, D. Jochym       |
 | J. Aarons, B. Walker, R. Gillen, D. Jones       |
 | T. Green, I. J. Bush, C. J. Armstrong,          |
 | E. J. Higgins, E. L. Brown, M. S. McFly,        |
 | J. Wilkins, B-C. Shih, P. J. P. Byrne           |
 |                                                 |
 | Copyright (c) 2000 - 2017                       |
 |                                                 |
 |     Distributed under the terms of an           |
 |     Agreement between the United Kingdom        |
 |     Car-Parrinello (UKCP) Consortium,           |
 |     Daresbury Laboratory and Accelrys, Inc.     |
 |                                                 |
 | Please cite                                     |
 |                                                 |
 |     "First principles methods using CASTEP"     |
 |                                                 |
 |         Zeitschrift fuer Kristallographie       |
 |           220(5-6) pp. 567-570 (2005)           |
 |                                                 |
 | S. J. Clark, M. D. Segall, C. J. Pickard,       |
 | P. J. Hasnip, M. J. Probert, K. Refson,         |
 | M. C. Payne                                     |
 |                                                 |
 |       in all publications arising from          |
 |              your use of CASTEP                 |
 |                                                 |
 +-------------------------------------------------+


 Compiled for linux_x86_64_gfortran4.8 on Thu, 19 Jul 2018 15:42:32 +0100
 from code version 70483bd0ad64+  Sun, 10 Dec 2017 12:18:29 +0000
 Compiler: GNU Fortran 4.8.5; Optimisation: fast
 MATHLIBS: Intel MKL(2018.0.0) (LAPACK version 3.7.0)
 FFT Lib : mkl
 Fundamental constants values: CODATA 2014

 Run started: Fri, 14 Aug 2020 02:37:36 +0100

 Atomic calculation performed for H: 1s1

 Converged in 41 iterations to an ae energy of -12.488 eV

   ============================================================                
   | Pseudopotential Report - Date of generation 14-08-2020   |                
   ------------------------------------------------------------                
   | Element: H Ionic charge:  1.00 Level of theory: PBE      |                
   | Atomic Solver: Koelling-Harmon                           |                
   |                                                          |                
   |               Reference Electronic Structure             |                
   |         Orbital         Occupation         Energy        |                
   |            1s              1.000           -0.239        |                
   |                                                          |                
   |                 Pseudopotential Definition               |                
   |        Beta     l      e      Rc     scheme   norm       |                
   |          1      0   -0.239   0.599     qc      0         |                
   |          2      0    0.250   0.599     qc      0         |                
   |         loc     1    0.000   0.599     pn      0         |                
   |                                                          |                
   | Augmentation charge Rinner = 0.421                       |                
   | No partial core correction                               |                
   ------------------------------------------------------------                
   | "1|0.6|13|15|17|10(qc=8)"                                |                
   ------------------------------------------------------------                
   |      Author: Chris J. Pickard, Cambridge University      |                
   ============================================================                

 Pseudo atomic calculation performed for H 1s1

 Converged in 24 iterations to a total energy of -12.4866 eV

 Calculation parallelised over 16 processes.
 Data is distributed by k-point(16-way)

 ************************************ Title ************************************
 

 ***************************** General Parameters ******************************
  
 output verbosity                               : normal  (1)
 write checkpoint data to                       : Cmca-12.check
 type of calculation                            : geometry optimization
 stress calculation                             : on
 density difference calculation                 : off
 electron localisation func (ELF) calculation   : off
 Hirshfeld analysis                             : off
 unlimited duration calculation
 timing information                             : on
 memory usage estimate                          : on
 write extra output files                       : on
 write final potential to formatted file        : off
 write final density to formatted file          : off
 write structure in CELL formatted file         : on
 write BibTeX reference list                    : on
 write OTFG pseudopotential files               : on
 write electrostatic potential file             : on
 write bands file                               : on
 checkpoint writing                             : both castep_bin and check files
  
 output         length unit                     : A
 output           mass unit                     : amu
 output           time unit                     : ps
 output         charge unit                     : e
 output           spin unit                     : hbar/2
 output         energy unit                     : eV
 output          force unit                     : eV/A
 output       velocity unit                     : A/ps
 output       pressure unit                     : GPa
 output     inv_length unit                     : 1/A
 output      frequency unit                     : cm-1
 output force constant unit                     : eV/A**2
 output         volume unit                     : A**3
 output   IR intensity unit                     : (D/A)**2/amu
 output         dipole unit                     : D
 output         efield unit                     : eV/A/e
 output        entropy unit                     : J/mol/K
  
 wavefunctions paging                           : none
 random number generator seed                   : randomised (23736971)
 data distribution                              : optimal for this architecture
 optimization strategy                          : maximize speed(+++)

 *********************** Exchange-Correlation Parameters ***********************
  
 using functional                               : Perdew Burke Ernzerhof
 relativistic treatment                         : Koelling-Harmon
 DFT+D: Semi-empirical dispersion correction    : off

 ************************* Pseudopotential Parameters **************************
  
 pseudopotential representation                 : reciprocal space
 <beta|phi> representation                      : reciprocal space
 spin-orbit coupling                            : off

 **************************** Basis Set Parameters *****************************
  
 plane wave basis set cut-off                   :  1200.0000   eV
 size of standard grid                          :     2.0000
 size of   fine   gmax                          :    35.4943   1/A
 finite basis set correction                    : automatic
 number of sample energies                      :          3
           sample  spacing                      :     5.0000   eV

 **************************** Electronic Parameters ****************************
  
 number of  electrons                           :  24.00    
 net charge of system                           :  0.000    
 treating system as non-spin-polarized
 number of bands                                :         12

 ********************* Electronic Minimization Parameters **********************
  
 Method: Treating system as non-metallic,
         and number of  SD  steps               :          1
         and number of  CG  steps               :          4
  
 total energy / atom convergence tol.           : 0.1000E-10   eV
 eigen-energy convergence tolerance             : 0.2000E-10   eV
 max force / atom convergence tol.              : ignored
 convergence tolerance window                   :          3   cycles
 max. number of SCF cycles                      :        100
 periodic dipole correction                     : NONE

 ************************** Density Mixing Parameters **************************
  
 density-mixing scheme                          : Broyden
 max. length of mixing history                  :         20
 charge density mixing amplitude                : 0.8000    
 cut-off energy for mixing                      :  1200.       eV

 *********************** Population Analysis Parameters ************************
  
 Population analysis with cutoff                :  3.000       A
 Population analysis output                     : summary and pdos components

 ********************** Geometry Optimization Parameters ***********************
  
 optimization method                            : LBFGS
 max. no. of LBFGS updates                      : unbounded
 variable cell method                           : fixed basis quality
 max. number of steps                           :        200
 estimated bulk modulus                         :  500.0       GPa
 estimated <frequency>                          :  1668.       cm-1
 geom line minimiser                            : on
 with line minimiser tolerance                  :     0.4000
 total energy convergence tolerance             : 0.1000E-08   eV/atom
        max ionic |force| tolerance             : 0.1000E-04   eV/A
 max ionic |displacement| tolerance             : 0.1000E-04   A
   max |stress component| tolerance             : 0.1000E-04   GPa
 convergence tolerance window                   :          2   steps
 backup results every                           :      14400   seconds
 write geom trajectory file                     : on

 *******************************************************************************
  

                           -------------------------------
                                      Unit Cell
                           -------------------------------
        Real Lattice(A)                      Reciprocal Lattice(1/A)
     2.8200261    -0.0000000     0.0000000        2.228059282   0.000000000  -0.000000000
    -0.0000000     5.2274529    -0.0000000        0.000000000   1.201959239   0.000000001
     0.0000000    -0.0000000     3.1364145       -0.000000000   0.000000002   2.003301953

                       Lattice parameters(A)       Cell Angles
                    a =      2.820026          alpha =   90.000000
                    b =      5.227453          beta  =   90.000000
                    c =      3.136415          gamma =   90.000000

                       Current cell volume =            46.235622       A**3
                                   density =             0.523202   AMU/A**3
                                           =             0.868797     g/cm^3

                           -------------------------------
                                     Cell Contents
                           -------------------------------
                         Total number of ions in cell =   24
                      Total number of species in cell =    1
                        Max number of any one species =   24

            xxxxxxxxxxxxxxxxxxxxxxxxxxxxxxxxxxxxxxxxxxxxxxxxxxxxxxxxxxxx
            x  Element    Atom        Fractional coordinates of atoms  x
            x            Number           u          v          w      x
            x----------------------------------------------------------x
            x  H            1        -0.000000   0.000337   0.121484   x 
            x  H            2        -0.000000   0.133553   0.455806   x 
            x  H            3        -0.000000   0.254408   0.326237   x 
            x  H            4         0.500000   0.254408   0.173763   x 
            x  H            5         0.500000   0.133553   0.044194   x 
            x  H            6         0.500000   0.000337   0.378516   x 
            x  H            7         0.500000   0.245592   0.673763   x 
            x  H            8         0.500000   0.366447   0.544194   x 
            x  H            9         0.500000   0.499663   0.878516   x 
            x  H           10         0.500000   0.745592   0.826237   x 
            x  H           11         0.500000   0.866447   0.955806   x 
            x  H           12         0.500000   0.999663   0.621484   x 
            x  H           13         0.500000   0.754408   0.326237   x 
            x  H           14         0.500000   0.633553   0.455806   x 
            x  H           15         0.500000   0.500337   0.121484   x 
            x  H           16        -0.000000   0.754408   0.173763   x 
            x  H           17        -0.000000   0.633553   0.044194   x 
            x  H           18         0.000000   0.500337   0.378516   x 
            x  H           19         0.000000   0.745592   0.673763   x 
            x  H           20        -0.000000   0.866447   0.544194   x 
            x  H           21        -0.000000   0.999663   0.878516   x 
            x  H           22        -0.000000   0.245592   0.826237   x 
            x  H           23        -0.000000   0.366447   0.955806   x 
            x  H           24         0.000000   0.499663   0.621484   x 
            xxxxxxxxxxxxxxxxxxxxxxxxxxxxxxxxxxxxxxxxxxxxxxxxxxxxxxxxxxxx


                         No user defined ionic velocities

                           -------------------------------
                                   Details of Species
                           -------------------------------

                               Mass of species in AMU
                                    H    1.0078250

                          Electric Quadrupole Moment (Barn)
                                    H    0.0028600 Isotope  2

                          Files used for pseudopotentials:
                                    H 1|0.6|13|15|17|10(qc=8)

                           -------------------------------
                              k-Points For BZ Sampling
                           -------------------------------
                       MP grid size for SCF calculation is 10 10 10
                            with an offset of   0.000  0.000  0.000
                       Number of kpoints used =           500

                           -------------------------------
                               Symmetry and Constraints
                           -------------------------------

                      Cell is a supercell containing 2 primitive cells
                      Maximum deviation from symmetry =  0.00000         ANG

                      Number of symmetry operations   =           1
                      Number of ionic constraints     =           3
                      Point group of crystal =     1: C1, 1, 1
                      Space group of crystal =    64: Cmce, -C 2bc 2

             Set iprint > 1 for details on symmetry rotations/translations

                         Centre of mass is constrained
             Set iprint > 1 for details of linear ionic constraints

                         Number of cell constraints= 0
                         Cell constraints are:  1 2 3 4 5 6

                         External pressure/stress (GPa)
                        120.00000   0.00000   0.00000
                                  120.00000   0.00000
                                            120.00000
  
+---------------- MEMORY AND SCRATCH DISK ESTIMATES PER PROCESS --------------+
|                                                     Memory          Disk    |
| Baseline code, static data and system overhead      411.0 MB         0.0 MB |
| BLAS internal memory storage                          0.0 MB         0.0 MB |
| Model and support data                               79.7 MB         0.0 MB |
| Electronic energy minimisation requirements          71.3 MB         0.0 MB |
| Force calculation requirements                        7.9 MB         0.0 MB |
| Stress calculation requirements                      10.0 MB         0.0 MB |
|                                               ----------------------------- |
| Approx. total storage required per process          562.0 MB         0.0 MB |
|                                                                             |
| Requirements will fluctuate during execution and may exceed these estimates |
+-----------------------------------------------------------------------------+
Calculating finite basis set correction with  3 cut-off energies.
Calculating total energy with cut-off of 1190.000 eV.
------------------------------------------------------------------------ <-- SCF
SCF loop      Energy                           Energy gain       Timer   <-- SCF
                                               per atom          (sec)   <-- SCF
------------------------------------------------------------------------ <-- SCF
Initial   5.85262178E+002                                          7.69  <-- SCF
      1  -2.97661584E+002                    3.67884900E+001      25.85  <-- SCF
      2  -3.56749448E+002                    2.46199435E+000      40.46  <-- SCF
      3  -3.56273081E+002                   -1.98486357E-002      58.41  <-- SCF
      4  -3.56238701E+002                   -1.43249522E-003      77.00  <-- SCF
      5  -3.56239448E+002                    3.11364174E-005      94.05  <-- SCF
      6  -3.56239512E+002                    2.65312355E-006     111.76  <-- SCF
      7  -3.56239512E+002                    2.68532504E-009     129.62  <-- SCF
      8  -3.56239512E+002                    2.71364657E-010     146.95  <-- SCF
      9  -3.56239512E+002                    8.75707702E-012     159.13  <-- SCF
     10  -3.56239512E+002                    3.02107073E-013     171.53  <-- SCF
------------------------------------------------------------------------ <-- SCF
 
Final energy =  -356.2395116984     eV
(energy not corrected for finite basis set)
 
Calculating total energy with cut-off of 1195.000 eV.
------------------------------------------------------------------------ <-- SCF
SCF loop      Energy                           Energy gain       Timer   <-- SCF
                                               per atom          (sec)   <-- SCF
------------------------------------------------------------------------ <-- SCF
Initial  -3.56239512E+002                                        176.40  <-- SCF
      1  -3.56239544E+002                    1.36325183E-006     193.08  <-- SCF
      2  -3.56239544E+002                    1.00299548E-012     205.59  <-- SCF
      3  -3.56239544E+002                    4.10664215E-010     218.10  <-- SCF
      4  -3.56239544E+002                    8.09244146E-012     230.61  <-- SCF
      5  -3.56239544E+002                    4.22949902E-014     241.89  <-- SCF
------------------------------------------------------------------------ <-- SCF
 
Final energy =  -356.2395444265     eV
(energy not corrected for finite basis set)
 
Calculating total energy with cut-off of 1200.000 eV.
------------------------------------------------------------------------ <-- SCF
SCF loop      Energy                           Energy gain       Timer   <-- SCF
                                               per atom          (sec)   <-- SCF
------------------------------------------------------------------------ <-- SCF
Initial  -3.56239544E+002                                        246.81  <-- SCF
      1  -3.56239579E+002                    1.44821094E-006     263.46  <-- SCF
      2  -3.56239579E+002                    1.16814735E-012     274.66  <-- SCF
      3  -3.56239579E+002                    4.49869656E-010     285.68  <-- SCF
      4  -3.56239579E+002                    8.34419736E-012     298.10  <-- SCF
      5  -3.56239579E+002                    9.06321219E-014     309.02  <-- SCF
------------------------------------------------------------------------ <-- SCF
 
Final energy =  -356.2395791946     eV
(energy not corrected for finite basis set)
 
 For future reference: finite basis dEtot/dlog(Ecut) =      -0.008119eV
 Total energy corrected for finite basis set =    -356.239580 eV
 
+---------------- MEMORY AND SCRATCH DISK ESTIMATES PER PROCESS --------------+
|                                                     Memory          Disk    |
| Model and support data                               87.5 MB         0.0 MB |
| Electronic energy minimisation requirements          71.3 MB         0.0 MB |
| Geometry minimisation requirements                   98.9 MB         0.0 MB |
|                                               ----------------------------- |
| Approx. total storage required per process          257.8 MB         0.0 MB |
|                                                                             |
| Requirements will fluctuate during execution and may exceed these estimates |
+-----------------------------------------------------------------------------+
 

 ************************************** Forces **************************************
 *                                                                                  *
 *                           Cartesian components (eV/A)                            *
 * -------------------------------------------------------------------------------- *
 *                         x                    y                    z              *
 *                                                                                  *
 * H               1      0.00000             -0.00000              0.00000         *
 * H               2     -0.00000              0.00000             -0.00000         *
 * H               3      0.00000             -0.00000              0.00000         *
 * H               4     -0.00000             -0.00000              0.00000         *
 * H               5     -0.00000             -0.00000             -0.00000         *
 * H               6     -0.00000             -0.00000             -0.00000         *
 * H               7      0.00000              0.00000             -0.00000         *
 * H               8     -0.00000             -0.00000              0.00000         *
 * H               9     -0.00000              0.00000              0.00000         *
 * H              10     -0.00000              0.00000              0.00000         *
 * H              11      0.00000             -0.00000             -0.00000         *
 * H              12      0.00000              0.00000              0.00000         *
 * H              13      0.00000              0.00000             -0.00000         *
 * H              14     -0.00000             -0.00000              0.00000         *
 * H              15      0.00000             -0.00000             -0.00000         *
 * H              16      0.00000             -0.00000             -0.00000         *
 * H              17     -0.00000              0.00000              0.00000         *
 * H              18      0.00000             -0.00000              0.00000         *
 * H              19     -0.00000              0.00000             -0.00000         *
 * H              20      0.00000             -0.00000              0.00000         *
 * H              21     -0.00000              0.00000             -0.00000         *
 * H              22      0.00000             -0.00000             -0.00000         *
 * H              23     -0.00000              0.00000              0.00000         *
 * H              24     -0.00000              0.00000             -0.00000         *
 *                                                                                  *
 ************************************************************************************

 ***************** Stress Tensor *****************
 *                                               *
 *          Cartesian components (GPa)           *
 * --------------------------------------------- *
 *             x             y             z     *
 *                                               *
 *  x   -149.998623     -0.000000      0.000000  *
 *  y     -0.000000   -149.998607      0.000000  *
 *  z      0.000000      0.000000   -149.998620  *
 *                                               *
 *  Pressure:  149.9986                          *
 *                                               *
 *************************************************
 LBFGS: finished iteration     0 with enthalpy= -3.21609972E+002 eV
  
 +-----------+-----------------+-----------------+------------+-----+ <-- LBFGS
 | Parameter |      value      |    tolerance    |    units   | OK? | <-- LBFGS
 +-----------+-----------------+-----------------+------------+-----+ <-- LBFGS
 |  dE/ion   |   0.000000E+000 |   1.000000E-009 |         eV | No  | <-- LBFGS
 |  |F|max   |   2.332705E-006 |   1.000000E-005 |       eV/A | Yes | <-- LBFGS
 |  |dR|max  |   0.000000E+000 |   1.000000E-005 |          A | No  | <-- LBFGS
 |   Smax    |   2.999862E+001 |   1.000000E-005 |        GPa | No  | <-- LBFGS
 +-----------+-----------------+-----------------+------------+-----+ <-- LBFGS
  

================================================================================
 Starting LBFGS iteration          1 ...
================================================================================
  
 +------------+-------------+-------------+-----------------+ <-- min LBFGS
 |    Step    |   lambda    |   F.delta'  |    enthalpy     | <-- min LBFGS
 +------------+-------------+-------------+-----------------+ <-- min LBFGS
 |  previous  |    0.000000 |    0.551033 |     -321.609972 | <-- min LBFGS
 +------------+-------------+-------------+-----------------+ <-- min LBFGS
  

--------------------------------------------------------------------------------
 LBFGS: starting iteration         1 with trial guess (lambda=  1.000000)
--------------------------------------------------------------------------------
 
+---------------- MEMORY AND SCRATCH DISK ESTIMATES PER PROCESS --------------+
|                                                     Memory          Disk    |
| Model and support data                               94.6 MB         0.0 MB |
| Electronic energy minimisation requirements          77.3 MB         0.0 MB |
| Geometry minimisation requirements                  106.9 MB         0.0 MB |
|                                               ----------------------------- |
| Approx. total storage required per process          278.8 MB         0.0 MB |
|                                                                             |
| Requirements will fluctuate during execution and may exceed these estimates |
+-----------------------------------------------------------------------------+
 

                           -------------------------------
                                      Unit Cell
                           -------------------------------
        Real Lattice(A)              Reciprocal Lattice(1/A)
     2.8764240    -0.0000000    -0.0000000        2.184373811   0.000000000   0.000000000
    -0.0000000     5.3319971    -0.0000000        0.000000000   1.178392484   0.000000001
    -0.0000000    -0.0000000     3.1991399        0.000000000   0.000000002   1.964023295

                       Lattice parameters(A)       Cell Angles
                    a =      2.876424          alpha =   90.000000
                    b =      5.331997          beta  =   90.000000
                    c =      3.199140          gamma =   90.000000

                Current cell volume =            49.065479 A**3

                           -------------------------------
                                     Cell Contents
                           -------------------------------

            xxxxxxxxxxxxxxxxxxxxxxxxxxxxxxxxxxxxxxxxxxxxxxxxxxxxxxxxxxxxxxxxx
            x  Element         Atom        Fractional coordinates of atoms  x
            x                 Number           u          v          w      x
            x---------------------------------------------------------------x
            x  H                 1         0.000000   0.000337   0.121484   x
            x  H                 2        -0.000000   0.133553   0.455806   x
            x  H                 3         0.000000   0.254408   0.326237   x
            x  H                 4         0.500000   0.254408   0.173763   x
            x  H                 5         0.500000   0.133553   0.044194   x
            x  H                 6         0.500000   0.000337   0.378516   x
            x  H                 7         0.500000   0.245592   0.673763   x
            x  H                 8         0.500000   0.366447   0.544194   x
            x  H                 9         0.500000   0.499663   0.878516   x
            x  H                10         0.500000   0.745592   0.826237   x
            x  H                11         0.500000   0.866447   0.955806   x
            x  H                12         0.500000   0.999663   0.621484   x
            x  H                13         0.500000   0.754408   0.326237   x
            x  H                14         0.500000   0.633553   0.455806   x
            x  H                15         0.500000   0.500337   0.121484   x
            x  H                16        -0.000000   0.754408   0.173763   x
            x  H                17        -0.000000   0.633553   0.044194   x
            x  H                18         0.000000   0.500337   0.378516   x
            x  H                19         0.000000   0.745592   0.673763   x
            x  H                20        -0.000000   0.866447   0.544194   x
            x  H                21        -0.000000   0.999663   0.878516   x
            x  H                22         0.000000   0.245592   0.826237   x
            x  H                23        -0.000000   0.366447   0.955806   x
            x  H                24        -0.000000   0.499663   0.621484   x
            xxxxxxxxxxxxxxxxxxxxxxxxxxxxxxxxxxxxxxxxxxxxxxxxxxxxxxxxxxxxxxxxx


------------------------------------------------------------------------ <-- SCF
SCF loop      Energy                           Energy gain       Timer   <-- SCF
                                               per atom          (sec)   <-- SCF
------------------------------------------------------------------------ <-- SCF
Initial  -3.58587292E+002                                        346.67  <-- SCF
      1  -3.58663903E+002                    3.19209416E-003     369.29  <-- SCF
      2  -3.58664108E+002                    8.54187850E-006     394.25  <-- SCF
      3  -3.58662347E+002                   -7.33641666E-005     418.79  <-- SCF
      4  -3.58662311E+002                   -1.51231544E-006     443.14  <-- SCF
      5  -3.58662312E+002                    5.74016470E-008     467.22  <-- SCF
      6  -3.58662312E+002                    5.40449816E-009     490.73  <-- SCF
      7  -3.58662312E+002                    2.74514627E-011     507.24  <-- SCF
      8  -3.58662312E+002                    1.81465648E-012     523.67  <-- SCF
      9  -3.58662312E+002                   -5.63933203E-014     539.49  <-- SCF
------------------------------------------------------------------------ <-- SCF
 
Final energy =  -358.6623121901     eV
(energy not corrected for finite basis set)
 

 ************************************** Forces **************************************
 *                                                                                  *
 *                           Cartesian components (eV/A)                            *
 * -------------------------------------------------------------------------------- *
 *                         x                    y                    z              *
 *                                                                                  *
 * H               1      0.00000              0.00641             -0.35971         *
 * H               2      0.00000              0.31322             -0.20862         *
 * H               3     -0.00000             -0.31029              0.19560         *
 * H               4      0.00000             -0.31029             -0.19561         *
 * H               5      0.00000              0.31322              0.20863         *
 * H               6     -0.00000              0.00640              0.35972         *
 * H               7      0.00000              0.31028             -0.19560         *
 * H               8     -0.00000             -0.31321              0.20862         *
 * H               9      0.00000             -0.00640              0.35971         *
 * H              10      0.00000              0.31028              0.19560         *
 * H              11     -0.00000             -0.31321             -0.20862         *
 * H              12     -0.00000             -0.00640             -0.35972         *
 * H              13      0.00000             -0.31030              0.19561         *
 * H              14     -0.00000              0.31323             -0.20863         *
 * H              15     -0.00000              0.00641             -0.35971         *
 * H              16     -0.00000             -0.31029             -0.19561         *
 * H              17      0.00000              0.31322              0.20862         *
 * H              18     -0.00000              0.00640              0.35971         *
 * H              19     -0.00000              0.31028             -0.19560         *
 * H              20     -0.00000             -0.31322              0.20862         *
 * H              21      0.00000             -0.00640              0.35972         *
 * H              22     -0.00000              0.31029              0.19561         *
 * H              23     -0.00000             -0.31322             -0.20863         *
 * H              24      0.00000             -0.00641             -0.35971         *
 *                                                                                  *
 ************************************************************************************

 ***************** Stress Tensor *****************
 *                                               *
 *          Cartesian components (GPa)           *
 * --------------------------------------------- *
 *             x             y             z     *
 *                                               *
 *  x   -129.718791      0.000000     -0.000000  *
 *  y      0.000000   -123.262468     -0.000005  *
 *  z     -0.000000     -0.000005   -122.465355  *
 *                                               *
 *  Pressure:  125.1489                          *
 *                                               *
 *************************************************
  
 +------------+-------------+-------------+-----------------+ <-- min LBFGS
 |    Step    |   lambda    |   F.delta'  |    enthalpy     | <-- min LBFGS
 +------------+-------------+-------------+-----------------+ <-- min LBFGS
 |  previous  |    0.000000 |    0.551033 |     -321.609972 | <-- min LBFGS
 | trial step |    1.000000 |    0.098398 |     -321.913196 | <-- min LBFGS
 +------------+-------------+-------------+-----------------+ <-- min LBFGS
  
 LBFGS: finished iteration     1 with enthalpy= -3.21913196E+002 eV
  
 +-----------+-----------------+-----------------+------------+-----+ <-- LBFGS
 | Parameter |      value      |    tolerance    |    units   | OK? | <-- LBFGS
 +-----------+-----------------+-----------------+------------+-----+ <-- LBFGS
 |  dE/ion   |   1.263431E-002 |   1.000000E-009 |         eV | No  | <-- LBFGS
 |  |F|max   |   3.763474E-001 |   1.000000E-005 |       eV/A | No  | <-- LBFGS
 |  |dR|max  |   2.308001E-007 |   1.000000E-005 |          A | Yes | <-- LBFGS
 |   Smax    |   9.718791E+000 |   1.000000E-005 |        GPa | No  | <-- LBFGS
 +-----------+-----------------+-----------------+------------+-----+ <-- LBFGS
  

================================================================================
 Starting LBFGS iteration          2 ...
================================================================================
  
 +------------+-------------+-------------+-----------------+ <-- min LBFGS
 |    Step    |   lambda    |   F.delta'  |    enthalpy     | <-- min LBFGS
 +------------+-------------+-------------+-----------------+ <-- min LBFGS
 |  previous  |    0.000000 |    0.268206 |     -321.913196 | <-- min LBFGS
 +------------+-------------+-------------+-----------------+ <-- min LBFGS
  

--------------------------------------------------------------------------------
 LBFGS: starting iteration         2 with trial guess (lambda=  1.000000)
--------------------------------------------------------------------------------
 
+---------------- MEMORY AND SCRATCH DISK ESTIMATES PER PROCESS --------------+
|                                                     Memory          Disk    |
| Model and support data                               98.2 MB         0.0 MB |
| Electronic energy minimisation requirements          82.2 MB         0.0 MB |
| Geometry minimisation requirements                  113.6 MB         0.0 MB |
|                                               ----------------------------- |
| Approx. total storage required per process          294.0 MB         0.0 MB |
|                                                                             |
| Requirements will fluctuate during execution and may exceed these estimates |
+-----------------------------------------------------------------------------+
 

                           -------------------------------
                                      Unit Cell
                           -------------------------------
        Real Lattice(A)              Reciprocal Lattice(1/A)
     2.9533244    -0.0000000     0.0000000        2.127495801   0.000000000  -0.000000000
    -0.0000000     5.4460486     0.0000000        0.000000000   1.153714519  -0.000000003
     0.0000000     0.0000000     3.2654585       -0.000000000  -0.000000005   1.924135680

                       Lattice parameters(A)       Cell Angles
                    a =      2.953324          alpha =   90.000000
                    b =      5.446049          beta  =   90.000000
                    c =      3.265459          gamma =   90.000000

                Current cell volume =            52.521466 A**3

                           -------------------------------
                                     Cell Contents
                           -------------------------------

            xxxxxxxxxxxxxxxxxxxxxxxxxxxxxxxxxxxxxxxxxxxxxxxxxxxxxxxxxxxxxxxxx
            x  Element         Atom        Fractional coordinates of atoms  x
            x                 Number           u          v          w      x
            x---------------------------------------------------------------x
            x  H                 1         0.000000   0.000484   0.107670   x
            x  H                 2        -0.000000   0.140770   0.447794   x
            x  H                 3         0.000000   0.247259   0.333749   x
            x  H                 4         0.500000   0.247259   0.166251   x
            x  H                 5         0.500000   0.140770   0.052206   x
            x  H                 6         0.500000   0.000484   0.392330   x
            x  H                 7         0.500000   0.252741   0.666251   x
            x  H                 8         0.500000   0.359230   0.552206   x
            x  H                 9         0.500000   0.499516   0.892330   x
            x  H                10         0.500000   0.752741   0.833749   x
            x  H                11         0.500000   0.859230   0.947794   x
            x  H                12         0.500000   0.999516   0.607670   x
            x  H                13         0.500000   0.747259   0.333749   x
            x  H                14         0.500000   0.640771   0.447794   x
            x  H                15         0.500000   0.500485   0.107670   x
            x  H                16        -0.000000   0.747259   0.166251   x
            x  H                17         0.000000   0.640770   0.052206   x
            x  H                18         0.000000   0.500484   0.392330   x
            x  H                19         0.000000   0.752741   0.666251   x
            x  H                20         0.000000   0.859230   0.552206   x
            x  H                21        -0.000000   0.999516   0.892330   x
            x  H                22         0.000000   0.252741   0.833749   x
            x  H                23        -0.000000   0.359230   0.947794   x
            x  H                24        -0.000000   0.499515   0.607670   x
            xxxxxxxxxxxxxxxxxxxxxxxxxxxxxxxxxxxxxxxxxxxxxxxxxxxxxxxxxxxxxxxxx


------------------------------------------------------------------------ <-- SCF
SCF loop      Energy                           Energy gain       Timer   <-- SCF
                                               per atom          (sec)   <-- SCF
------------------------------------------------------------------------ <-- SCF
Initial  -3.55975058E+002                                        580.53  <-- SCF
      1  -3.61279025E+002                    2.20998654E-001     601.45  <-- SCF
      2  -3.61303085E+002                    1.00249463E-003     625.45  <-- SCF
      3  -3.60647532E+002                   -2.73147169E-002     648.93  <-- SCF
      4  -3.60623174E+002                   -1.01489552E-003     672.71  <-- SCF
      5  -3.60623242E+002                    2.83081894E-006     695.69  <-- SCF
      6  -3.60623251E+002                    3.42741626E-007     719.16  <-- SCF
      7  -3.60623251E+002                    4.53009959E-009     742.73  <-- SCF
      8  -3.60623251E+002                    8.11864421E-010     766.38  <-- SCF
      9  -3.60623251E+002                    1.22272803E-011     783.04  <-- SCF
     10  -3.60623251E+002                    5.01497741E-013     798.81  <-- SCF
     11  -3.60623251E+002                    2.01404715E-014     815.13  <-- SCF
------------------------------------------------------------------------ <-- SCF
 
Final energy =  -360.6232507882     eV
(energy not corrected for finite basis set)
 

 ************************************** Forces **************************************
 *                                                                                  *
 *                           Cartesian components (eV/A)                            *
 * -------------------------------------------------------------------------------- *
 *                         x                    y                    z              *
 *                                                                                  *
 * H               1      0.00000             -0.00029              1.67479         *
 * H               2     -0.00000             -1.85574              1.21200         *
 * H               3      0.00000              1.63685             -1.02480         *
 * H               4     -0.00000              1.63688              1.02482         *
 * H               5      0.00000             -1.85576             -1.21201         *
 * H               6     -0.00000             -0.00029             -1.67480         *
 * H               7      0.00000             -1.63684              1.02480         *
 * H               8     -0.00000              1.85573             -1.21199         *
 * H               9     -0.00000              0.00029             -1.67478         *
 * H              10      0.00000             -1.63682             -1.02478         *
 * H              11     -0.00000              1.85571              1.21198         *
 * H              12      0.00000              0.00029              1.67480         *
 * H              13     -0.00000              1.63694             -1.02486         *
 * H              14      0.00000             -1.85583              1.21205         *
 * H              15      0.00000             -0.00029              1.67478         *
 * H              16      0.00000              1.63685              1.02481         *
 * H              17     -0.00000             -1.85574             -1.21200         *
 * H              18      0.00000             -0.00029             -1.67476         *
 * H              19     -0.00000             -1.63685              1.02480         *
 * H              20      0.00000              1.85574             -1.21200         *
 * H              21     -0.00000              0.00029             -1.67479         *
 * H              22      0.00000             -1.63690             -1.02484         *
 * H              23     -0.00000              1.85579              1.21203         *
 * H              24     -0.00000              0.00029              1.67476         *
 *                                                                                  *
 ************************************************************************************

 ***************** Stress Tensor *****************
 *                                               *
 *          Cartesian components (GPa)           *
 * --------------------------------------------- *
 *             x             y             z     *
 *                                               *
 *  x   -105.746007      0.000000     -0.000000  *
 *  y      0.000000   -136.662735      0.000030  *
 *  z     -0.000000      0.000030   -134.454785  *
 *                                               *
 *  Pressure:  125.6212                          *
 *                                               *
 *************************************************
  
 +------------+-------------+-------------+-----------------+ <-- min LBFGS
 |    Step    |   lambda    |   F.delta'  |    enthalpy     | <-- min LBFGS
 +------------+-------------+-------------+-----------------+ <-- min LBFGS
 |  previous  |    0.000000 |    0.268206 |     -321.913196 | <-- min LBFGS
 | trial step |    1.000000 |   -1.074193 |     -321.285665 | <-- min LBFGS
 +------------+-------------+-------------+-----------------+ <-- min LBFGS
  

--------------------------------------------------------------------------------
 LBFGS: improving iteration         2 with line minimization (lambda=  0.199796)
--------------------------------------------------------------------------------

                           -------------------------------
                                      Unit Cell
                           -------------------------------
        Real Lattice(A)              Reciprocal Lattice(1/A)
     2.8917884    -0.0000000    -0.0000000        2.172767969   0.000000000   0.000000000
    -0.0000000     5.3547842    -0.0000000        0.000000000   1.173377882   0.000000001
    -0.0000000    -0.0000000     3.2123901        0.000000000   0.000000001   1.955922240

                       Lattice parameters(A)       Cell Angles
                    a =      2.891788          alpha =   90.000000
                    b =      5.354784          beta  =   90.000000
                    c =      3.212390          gamma =   90.000000

                Current cell volume =            49.743550 A**3

                           -------------------------------
                                     Cell Contents
                           -------------------------------

            xxxxxxxxxxxxxxxxxxxxxxxxxxxxxxxxxxxxxxxxxxxxxxxxxxxxxxxxxxxxxxxxx
            x  Element         Atom        Fractional coordinates of atoms  x
            x                 Number           u          v          w      x
            x---------------------------------------------------------------x
            x  H                 1         0.000000   0.000366   0.118724   x
            x  H                 2        -0.000000   0.134995   0.454205   x
            x  H                 3         0.000000   0.252980   0.327738   x
            x  H                 4         0.500000   0.252980   0.172262   x
            x  H                 5         0.500000   0.134995   0.045795   x
            x  H                 6         0.500000   0.000366   0.381276   x
            x  H                 7         0.500000   0.247020   0.672262   x
            x  H                 8         0.500000   0.365005   0.545795   x
            x  H                 9         0.500000   0.499634   0.881276   x
            x  H                10         0.500000   0.747020   0.827738   x
            x  H                11         0.500000   0.865005   0.954205   x
            x  H                12         0.500000   0.999634   0.618724   x
            x  H                13         0.500000   0.752980   0.327738   x
            x  H                14         0.500000   0.634995   0.454205   x
            x  H                15         0.500000   0.500366   0.118724   x
            x  H                16        -0.000000   0.752980   0.172262   x
            x  H                17        -0.000000   0.634995   0.045795   x
            x  H                18         0.000000   0.500366   0.381276   x
            x  H                19         0.000000   0.747020   0.672262   x
            x  H                20        -0.000000   0.865005   0.545795   x
            x  H                21        -0.000000   0.999634   0.881276   x
            x  H                22         0.000000   0.247020   0.827738   x
            x  H                23        -0.000000   0.365005   0.954205   x
            x  H                24        -0.000000   0.499634   0.618724   x
            xxxxxxxxxxxxxxxxxxxxxxxxxxxxxxxxxxxxxxxxxxxxxxxxxxxxxxxxxxxxxxxxx


------------------------------------------------------------------------ <-- SCF
SCF loop      Energy                           Energy gain       Timer   <-- SCF
                                               per atom          (sec)   <-- SCF
------------------------------------------------------------------------ <-- SCF
Initial  -3.56043114E+002                                        859.04  <-- SCF
      1  -3.59672880E+002                    1.51240232E-001     880.08  <-- SCF
      2  -3.59688857E+002                    6.65714525E-004     903.71  <-- SCF
      3  -3.59249922E+002                   -1.82889388E-002     926.66  <-- SCF
      4  -3.59235662E+002                   -5.94192015E-004     950.47  <-- SCF
      5  -3.59235658E+002                   -1.75177509E-007     974.02  <-- SCF
      6  -3.59235659E+002                    7.46383882E-008     997.60  <-- SCF
      7  -3.59235659E+002                    2.74014942E-009    1021.15  <-- SCF
      8  -3.59235659E+002                    2.70124004E-010    1043.12  <-- SCF
      9  -3.59235659E+002                    1.33732731E-012    1058.71  <-- SCF
     10  -3.59235659E+002                    1.77236149E-013    1074.83  <-- SCF
------------------------------------------------------------------------ <-- SCF
 
Final energy =  -359.2356593687     eV
(energy not corrected for finite basis set)
 

 ************************************** Forces **************************************
 *                                                                                  *
 *                           Cartesian components (eV/A)                            *
 * -------------------------------------------------------------------------------- *
 *                         x                    y                    z              *
 *                                                                                  *
 * H               1     -0.00000              0.00285             -0.07056         *
 * H               2      0.00000             -0.01147              0.00232         *
 * H               3     -0.00000             -0.03727              0.02460         *
 * H               4     -0.00000             -0.03727             -0.02460         *
 * H               5      0.00000             -0.01147             -0.00232         *
 * H               6     -0.00000              0.00285              0.07056         *
 * H               7     -0.00000              0.03727             -0.02460         *
 * H               8      0.00000              0.01147             -0.00232         *
 * H               9      0.00000             -0.00285              0.07056         *
 * H              10      0.00000              0.03727              0.02460         *
 * H              11     -0.00000              0.01147              0.00232         *
 * H              12      0.00000             -0.00285             -0.07056         *
 * H              13      0.00000             -0.03727              0.02460         *
 * H              14     -0.00000             -0.01147              0.00232         *
 * H              15     -0.00000              0.00285             -0.07056         *
 * H              16      0.00000             -0.03727             -0.02460         *
 * H              17      0.00000             -0.01147             -0.00232         *
 * H              18     -0.00000              0.00285              0.07056         *
 * H              19     -0.00000              0.03727             -0.02460         *
 * H              20      0.00000              0.01147             -0.00232         *
 * H              21      0.00000             -0.00285              0.07056         *
 * H              22     -0.00000              0.03727              0.02460         *
 * H              23     -0.00000              0.01147              0.00232         *
 * H              24      0.00000             -0.00285             -0.07056         *
 *                                                                                  *
 ************************************************************************************

 ***************** Stress Tensor *****************
 *                                               *
 *          Cartesian components (GPa)           *
 * --------------------------------------------- *
 *             x             y             z     *
 *                                               *
 *  x   -124.622725     -0.000000      0.000000  *
 *  y     -0.000000   -124.881252      0.000001  *
 *  z      0.000000      0.000001   -123.713055  *
 *                                               *
 *  Pressure:  124.4057                          *
 *                                               *
 *************************************************
  
 +------------+-------------+-------------+-----------------+ <-- min LBFGS
 |    Step    |   lambda    |   F.delta'  |    enthalpy     | <-- min LBFGS
 +------------+-------------+-------------+-----------------+ <-- min LBFGS
 |  previous  |    0.000000 |    0.268206 |     -321.913196 | <-- min LBFGS
 | trial step |    1.000000 |   -1.074193 |     -321.285665 | <-- min LBFGS
 |  line step |    0.199796 |    0.068426 |     -321.978681 | <-- min LBFGS
 +------------+-------------+-------------+-----------------+ <-- min LBFGS
  
 LBFGS: finished iteration     2 with enthalpy= -3.21978681E+002 eV
  
 +-----------+-----------------+-----------------+------------+-----+ <-- LBFGS
 | Parameter |      value      |    tolerance    |    units   | OK? | <-- LBFGS
 +-----------+-----------------+-----------------+------------+-----+ <-- LBFGS
 |  dE/ion   |   2.728551E-003 |   1.000000E-009 |         eV | No  | <-- LBFGS
 |  |F|max   |   7.062146E-002 |   1.000000E-005 |       eV/A | No  | <-- LBFGS
 |  |dR|max  |   9.277156E-003 |   1.000000E-005 |          A | No  | <-- LBFGS
 |   Smax    |   4.881252E+000 |   1.000000E-005 |        GPa | No  | <-- LBFGS
 +-----------+-----------------+-----------------+------------+-----+ <-- LBFGS
  

================================================================================
 Starting LBFGS iteration          3 ...
================================================================================
  
 +------------+-------------+-------------+-----------------+ <-- min LBFGS
 |    Step    |   lambda    |   F.delta'  |    enthalpy     | <-- min LBFGS
 +------------+-------------+-------------+-----------------+ <-- min LBFGS
 |  previous  |    0.000000 |    0.084230 |     -321.978681 | <-- min LBFGS
 +------------+-------------+-------------+-----------------+ <-- min LBFGS
  

--------------------------------------------------------------------------------
 LBFGS: starting iteration         3 with trial guess (lambda=  1.000000)
--------------------------------------------------------------------------------

                           -------------------------------
                                      Unit Cell
                           -------------------------------
        Real Lattice(A)              Reciprocal Lattice(1/A)
     2.9072868     0.0000000    -0.0000000        2.161185242  -0.000000000   0.000000000
     0.0000000     5.3856375    -0.0000000       -0.000000000   1.166655826   0.000000002
    -0.0000000    -0.0000000     3.2275205        0.000000000   0.000000003   1.946753028

                       Lattice parameters(A)       Cell Angles
                    a =      2.907287          alpha =   90.000000
                    b =      5.385637          beta  =   90.000000
                    c =      3.227520          gamma =   90.000000

                Current cell volume =            50.535201 A**3

                           -------------------------------
                                     Cell Contents
                           -------------------------------

            xxxxxxxxxxxxxxxxxxxxxxxxxxxxxxxxxxxxxxxxxxxxxxxxxxxxxxxxxxxxxxxxx
            x  Element         Atom        Fractional coordinates of atoms  x
            x                 Number           u          v          w      x
            x---------------------------------------------------------------x
            x  H                 1         0.000000   0.000435   0.116126   x
            x  H                 2        -0.000000   0.134492   0.454537   x
            x  H                 3         0.000000   0.252237   0.328565   x
            x  H                 4         0.500000   0.252237   0.171435   x
            x  H                 5         0.500000   0.134492   0.045463   x
            x  H                 6         0.500000   0.000435   0.383874   x
            x  H                 7         0.500000   0.247763   0.671435   x
            x  H                 8         0.500000   0.365508   0.545463   x
            x  H                 9         0.500000   0.499565   0.883874   x
            x  H                10         0.500000   0.747763   0.828566   x
            x  H                11         0.500000   0.865508   0.954537   x
            x  H                12         0.500000   0.999565   0.616126   x
            x  H                13         0.500000   0.752237   0.328565   x
            x  H                14         0.500000   0.634492   0.454537   x
            x  H                15         0.500000   0.500435   0.116126   x
            x  H                16         0.000000   0.752237   0.171435   x
            x  H                17         0.000000   0.634492   0.045463   x
            x  H                18         0.000000   0.500435   0.383874   x
            x  H                19        -0.000000   0.747763   0.671435   x
            x  H                20         0.000000   0.865508   0.545463   x
            x  H                21        -0.000000   0.999565   0.883874   x
            x  H                22         0.000000   0.247763   0.828565   x
            x  H                23        -0.000000   0.365508   0.954537   x
            x  H                24        -0.000000   0.499565   0.616126   x
            xxxxxxxxxxxxxxxxxxxxxxxxxxxxxxxxxxxxxxxxxxxxxxxxxxxxxxxxxxxxxxxxx


------------------------------------------------------------------------ <-- SCF
SCF loop      Energy                           Energy gain       Timer   <-- SCF
                                               per atom          (sec)   <-- SCF
------------------------------------------------------------------------ <-- SCF
Initial  -3.59771673E+002                                       1116.67  <-- SCF
      1  -3.59841609E+002                    2.91399093E-003    1137.07  <-- SCF
      2  -3.59841881E+002                    1.13661308E-005    1159.20  <-- SCF
      3  -3.59835085E+002                   -2.83180762E-004    1181.41  <-- SCF
      4  -3.59834932E+002                   -6.39494197E-006    1203.60  <-- SCF
      5  -3.59834932E+002                    1.73992607E-008    1225.72  <-- SCF
      6  -3.59834932E+002                    2.90158940E-009    1249.47  <-- SCF
      7  -3.59834932E+002                    1.06605530E-010    1265.10  <-- SCF
      8  -3.59834932E+002                    4.80350246E-012    1280.97  <-- SCF
      9  -3.59834932E+002                    2.09460904E-013    1296.10  <-- SCF
------------------------------------------------------------------------ <-- SCF
 
Final energy =  -359.8349321390     eV
(energy not corrected for finite basis set)
 

 ************************************** Forces **************************************
 *                                                                                  *
 *                           Cartesian components (eV/A)                            *
 * -------------------------------------------------------------------------------- *
 *                         x                    y                    z              *
 *                                                                                  *
 * H               1     -0.00000              0.01018              0.29905         *
 * H               2     -0.00000              0.08755             -0.04378         *
 * H               3     -0.00000             -0.13091              0.07081         *
 * H               4     -0.00000             -0.13092             -0.07082         *
 * H               5      0.00000              0.08756              0.04379         *
 * H               6     -0.00000              0.01018             -0.29905         *
 * H               7      0.00000              0.13091             -0.07081         *
 * H               8     -0.00000             -0.08755              0.04378         *
 * H               9     -0.00000             -0.01018             -0.29905         *
 * H              10     -0.00000              0.13090              0.07081         *
 * H              11      0.00000             -0.08754             -0.04378         *
 * H              12      0.00000             -0.01018              0.29905         *
 * H              13      0.00000             -0.13093              0.07083         *
 * H              14     -0.00000              0.08757             -0.04380         *
 * H              15     -0.00000              0.01018              0.29905         *
 * H              16     -0.00000             -0.13092             -0.07082         *
 * H              17      0.00000              0.08756              0.04379         *
 * H              18      0.00000              0.01018             -0.29905         *
 * H              19      0.00000              0.13092             -0.07082         *
 * H              20     -0.00000             -0.08756              0.04379         *
 * H              21      0.00000             -0.01018             -0.29905         *
 * H              22     -0.00000              0.13093              0.07082         *
 * H              23      0.00000             -0.08757             -0.04379         *
 * H              24      0.00000             -0.01018              0.29905         *
 *                                                                                  *
 ************************************************************************************

 ***************** Stress Tensor *****************
 *                                               *
 *          Cartesian components (GPa)           *
 * --------------------------------------------- *
 *             x             y             z     *
 *                                               *
 *  x   -120.028645      0.000000      0.000000  *
 *  y      0.000000   -118.464507     -0.000011  *
 *  z      0.000000     -0.000011   -122.099233  *
 *                                               *
 *  Pressure:  120.1975                          *
 *                                               *
 *************************************************
  
 +------------+-------------+-------------+-----------------+ <-- min LBFGS
 |    Step    |   lambda    |   F.delta'  |    enthalpy     | <-- min LBFGS
 +------------+-------------+-------------+-----------------+ <-- min LBFGS
 |  previous  |    0.000000 |    0.084230 |     -321.978681 | <-- min LBFGS
 | trial step |    1.000000 |   -0.047871 |     -321.985022 | <-- min LBFGS
 +------------+-------------+-------------+-----------------+ <-- min LBFGS
  
 LBFGS: finished iteration     3 with enthalpy= -3.21985022E+002 eV
  
 +-----------+-----------------+-----------------+------------+-----+ <-- LBFGS
 | Parameter |      value      |    tolerance    |    units   | OK? | <-- LBFGS
 +-----------+-----------------+-----------------+------------+-----+ <-- LBFGS
 |  dE/ion   |   2.641852E-004 |   1.000000E-009 |         eV | No  | <-- LBFGS
 |  |F|max   |   2.992278E-001 |   1.000000E-005 |       eV/A | No  | <-- LBFGS
 |  |dR|max  |   8.395216E-003 |   1.000000E-005 |          A | No  | <-- LBFGS
 |   Smax    |   2.099233E+000 |   1.000000E-005 |        GPa | No  | <-- LBFGS
 +-----------+-----------------+-----------------+------------+-----+ <-- LBFGS
  

================================================================================
 Starting LBFGS iteration          4 ...
================================================================================
  
 +------------+-------------+-------------+-----------------+ <-- min LBFGS
 |    Step    |   lambda    |   F.delta'  |    enthalpy     | <-- min LBFGS
 +------------+-------------+-------------+-----------------+ <-- min LBFGS
 |  previous  |    0.000000 |    0.092462 |     -321.985022 | <-- min LBFGS
 +------------+-------------+-------------+-----------------+ <-- min LBFGS
  

--------------------------------------------------------------------------------
 LBFGS: starting iteration         4 with trial guess (lambda=  1.000000)
--------------------------------------------------------------------------------

                           -------------------------------
                                      Unit Cell
                           -------------------------------
        Real Lattice(A)              Reciprocal Lattice(1/A)
     2.9261610     0.0000000    -0.0000000        2.147245247  -0.000000000   0.000000000
     0.0000000     5.4197342     0.0000000       -0.000000000   1.159316128  -0.000000002
    -0.0000000     0.0000000     3.2487366        0.000000000  -0.000000004   1.934039641

                       Lattice parameters(A)       Cell Angles
                    a =      2.926161          alpha =   90.000000
                    b =      5.419734          beta  =   90.000000
                    c =      3.248737          gamma =   90.000000

                Current cell volume =            51.521762 A**3

                           -------------------------------
                                     Cell Contents
                           -------------------------------

            xxxxxxxxxxxxxxxxxxxxxxxxxxxxxxxxxxxxxxxxxxxxxxxxxxxxxxxxxxxxxxxxx
            x  Element         Atom        Fractional coordinates of atoms  x
            x                 Number           u          v          w      x
            x---------------------------------------------------------------x
            x  H                 1        -0.000000   0.000648   0.118841   x
            x  H                 2        -0.000000   0.134897   0.454091   x
            x  H                 3         0.000000   0.249687   0.331066   x
            x  H                 4         0.500000   0.249687   0.168934   x
            x  H                 5         0.500000   0.134897   0.045909   x
            x  H                 6         0.500000   0.000648   0.381159   x
            x  H                 7         0.500000   0.250313   0.668934   x
            x  H                 8         0.500000   0.365103   0.545909   x
            x  H                 9         0.500000   0.499352   0.881159   x
            x  H                10         0.500000   0.750313   0.831066   x
            x  H                11         0.500000   0.865103   0.954091   x
            x  H                12         0.500000   0.999352   0.618841   x
            x  H                13         0.500000   0.749687   0.331066   x
            x  H                14         0.500000   0.634897   0.454091   x
            x  H                15         0.500000   0.500648   0.118841   x
            x  H                16         0.000000   0.749687   0.168934   x
            x  H                17         0.000000   0.634897   0.045909   x
            x  H                18         0.000000   0.500648   0.381159   x
            x  H                19        -0.000000   0.750313   0.668934   x
            x  H                20         0.000000   0.865103   0.545909   x
            x  H                21         0.000000   0.999352   0.881159   x
            x  H                22         0.000000   0.250313   0.831066   x
            x  H                23        -0.000000   0.365103   0.954091   x
            x  H                24        -0.000000   0.499352   0.618841   x
            xxxxxxxxxxxxxxxxxxxxxxxxxxxxxxxxxxxxxxxxxxxxxxxxxxxxxxxxxxxxxxxxx


------------------------------------------------------------------------ <-- SCF
SCF loop      Energy                           Energy gain       Timer   <-- SCF
                                               per atom          (sec)   <-- SCF
------------------------------------------------------------------------ <-- SCF
Initial  -3.60358081E+002                                       1338.18  <-- SCF
      1  -3.60563757E+002                    8.56981603E-003    1359.42  <-- SCF
      2  -3.60564457E+002                    2.91630211E-005    1381.70  <-- SCF
      3  -3.60540964E+002                   -9.78868078E-004    1404.28  <-- SCF
      4  -3.60540578E+002                   -1.60793655E-005    1427.20  <-- SCF
      5  -3.60540579E+002                    3.13061133E-008    1450.99  <-- SCF
      6  -3.60540579E+002                    6.48369713E-009    1473.66  <-- SCF
      7  -3.60540579E+002                    1.89620525E-010    1490.85  <-- SCF
      8  -3.60540579E+002                    2.13045908E-011    1507.03  <-- SCF
      9  -3.60540579E+002                    7.27071022E-013    1523.32  <-- SCF
     10  -3.60540579E+002                   -1.14800688E-013    1539.65  <-- SCF
------------------------------------------------------------------------ <-- SCF
 
Final energy =  -360.5405788622     eV
(energy not corrected for finite basis set)
 

 ************************************** Forces **************************************
 *                                                                                  *
 *                           Cartesian components (eV/A)                            *
 * -------------------------------------------------------------------------------- *
 *                         x                    y                    z              *
 *                                                                                  *
 * H               1      0.00000             -0.02417             -0.43635         *
 * H               2     -0.00000             -0.25827              0.19630         *
 * H               3     -0.00000              0.28075             -0.14000         *
 * H               4      0.00000              0.28078              0.14002         *
 * H               5     -0.00000             -0.25829             -0.19631         *
 * H               6      0.00000             -0.02417              0.43635         *
 * H               7      0.00000             -0.28076              0.14000         *
 * H               8     -0.00000              0.25827             -0.19630         *
 * H               9      0.00000              0.02417              0.43635         *
 * H              10     -0.00000             -0.28074             -0.13999         *
 * H              11      0.00000              0.25825              0.19629         *
 * H              12      0.00000              0.02417             -0.43635         *
 * H              13     -0.00000              0.28080             -0.14003         *
 * H              14      0.00000             -0.25831              0.19633         *
 * H              15     -0.00000             -0.02417             -0.43635         *
 * H              16      0.00000              0.28076              0.14001         *
 * H              17     -0.00000             -0.25828             -0.19631         *
 * H              18     -0.00000             -0.02417              0.43635         *
 * H              19      0.00000             -0.28077              0.14001         *
 * H              20     -0.00000              0.25829             -0.19631         *
 * H              21     -0.00000              0.02417              0.43635         *
 * H              22     -0.00000             -0.28078             -0.14002         *
 * H              23      0.00000              0.25830              0.19632         *
 * H              24      0.00000              0.02417             -0.43635         *
 *                                                                                  *
 ************************************************************************************

 ***************** Stress Tensor *****************
 *                                               *
 *          Cartesian components (GPa)           *
 * --------------------------------------------- *
 *             x             y             z     *
 *                                               *
 *  x   -113.605203      0.000000     -0.000000  *
 *  y      0.000000   -119.358157      0.000021  *
 *  z     -0.000000      0.000021   -111.713761  *
 *                                               *
 *  Pressure:  114.8924                          *
 *                                               *
 *************************************************
  
 +------------+-------------+-------------+-----------------+ <-- min LBFGS
 |    Step    |   lambda    |   F.delta'  |    enthalpy     | <-- min LBFGS
 +------------+-------------+-------------+-----------------+ <-- min LBFGS
 |  previous  |    0.000000 |    0.092462 |     -321.985022 | <-- min LBFGS
 | trial step |    1.000000 |   -0.234257 |     -321.951753 | <-- min LBFGS
 +------------+-------------+-------------+-----------------+ <-- min LBFGS
  

--------------------------------------------------------------------------------
 LBFGS: improving iteration         4 with line minimization (lambda=  0.283001)
--------------------------------------------------------------------------------

                           -------------------------------
                                      Unit Cell
                           -------------------------------
        Real Lattice(A)              Reciprocal Lattice(1/A)
     2.9126282     0.0000000    -0.0000000        2.157221874  -0.000000000   0.000000000
     0.0000000     5.3952869    -0.0000000       -0.000000000   1.164569269   0.000000001
    -0.0000000    -0.0000000     3.2335247        0.000000000   0.000000001   1.943138196

                       Lattice parameters(A)       Cell Angles
                    a =      2.912628          alpha =   90.000000
                    b =      5.395287          beta  =   90.000000
                    c =      3.233525          gamma =   90.000000

                Current cell volume =            50.813110 A**3

                           -------------------------------
                                     Cell Contents
                           -------------------------------

            xxxxxxxxxxxxxxxxxxxxxxxxxxxxxxxxxxxxxxxxxxxxxxxxxxxxxxxxxxxxxxxxx
            x  Element         Atom        Fractional coordinates of atoms  x
            x                 Number           u          v          w      x
            x---------------------------------------------------------------x
            x  H                 1        -0.000000   0.000495   0.116894   x
            x  H                 2        -0.000000   0.134607   0.454411   x
            x  H                 3         0.000000   0.251515   0.329273   x
            x  H                 4         0.500000   0.251515   0.170727   x
            x  H                 5         0.500000   0.134607   0.045589   x
            x  H                 6         0.500000   0.000495   0.383106   x
            x  H                 7         0.500000   0.248485   0.670727   x
            x  H                 8         0.500000   0.365393   0.545589   x
            x  H                 9         0.500000   0.499505   0.883106   x
            x  H                10         0.500000   0.748485   0.829273   x
            x  H                11         0.500000   0.865393   0.954411   x
            x  H                12         0.500000   0.999505   0.616894   x
            x  H                13         0.500000   0.751515   0.329273   x
            x  H                14         0.500000   0.634607   0.454411   x
            x  H                15         0.500000   0.500495   0.116894   x
            x  H                16         0.000000   0.751515   0.170727   x
            x  H                17         0.000000   0.634607   0.045589   x
            x  H                18         0.000000   0.500495   0.383106   x
            x  H                19        -0.000000   0.748485   0.670727   x
            x  H                20         0.000000   0.865393   0.545589   x
            x  H                21        -0.000000   0.999505   0.883106   x
            x  H                22         0.000000   0.248485   0.829273   x
            x  H                23        -0.000000   0.365393   0.954411   x
            x  H                24        -0.000000   0.499505   0.616894   x
            xxxxxxxxxxxxxxxxxxxxxxxxxxxxxxxxxxxxxxxxxxxxxxxxxxxxxxxxxxxxxxxxx


[...]
      H     1      S                    1.000
      H     2      S                    1.026
      H     3      S                    0.973
      H     4      S                    0.973
      H     5      S                    1.026
      H     6      S                    1.000
      H     7      S                    0.973
      H     8      S                    1.026
      H     9      S                    1.000
      H    10      S                    0.973
      H    11      S                    1.026
      H    12      S                    1.000
      H    13      S                    0.973
      H    14      S                    1.026
      H    15      S                    1.000
      H    16      S                    0.973
      H    17      S                    1.026
      H    18      S                    1.000
      H    19      S                    0.973
      H    20      S                    1.026
      H    21      S                    1.000
      H    22      S                    0.973
      H    23      S                    1.026
      H    24      S                    1.000
  -------------------------------------------
                           Total:      24.000
  -------------------------------------------

     Atomic Populations (Mulliken)
     -----------------------------
Species          Ion     s      p      d      f     Total  Charge (e)
=====================================================================
  H               1     1.00   0.00   0.00   0.00   1.00    -0.00
  H               2     1.03   0.00   0.00   0.00   1.03    -0.03
  H               3     0.97   0.00   0.00   0.00   0.97     0.03
  H               4     0.97   0.00   0.00   0.00   0.97     0.03
  H               5     1.03   0.00   0.00   0.00   1.03    -0.03
  H               6     1.00   0.00   0.00   0.00   1.00    -0.00
  H               7     0.97   0.00   0.00   0.00   0.97     0.03
  H               8     1.03   0.00   0.00   0.00   1.03    -0.03
  H               9     1.00   0.00   0.00   0.00   1.00    -0.00
  H              10     0.97   0.00   0.00   0.00   0.97     0.03
  H              11     1.03   0.00   0.00   0.00   1.03    -0.03
  H              12     1.00   0.00   0.00   0.00   1.00    -0.00
  H              13     0.97   0.00   0.00   0.00   0.97     0.03
  H              14     1.03   0.00   0.00   0.00   1.03    -0.03
  H              15     1.00   0.00   0.00   0.00   1.00    -0.00
  H              16     0.97   0.00   0.00   0.00   0.97     0.03
  H              17     1.03   0.00   0.00   0.00   1.03    -0.03
  H              18     1.00   0.00   0.00   0.00   1.00    -0.00
  H              19     0.97   0.00   0.00   0.00   0.97     0.03
  H              20     1.03   0.00   0.00   0.00   1.03    -0.03
  H              21     1.00   0.00   0.00   0.00   1.00    -0.00
  H              22     0.97   0.00   0.00   0.00   0.97     0.03
  H              23     1.03   0.00   0.00   0.00   1.03    -0.03
  H              24     1.00   0.00   0.00   0.00   1.00    -0.00
=====================================================================

                 Bond                   Population      Length (A)
======================================================================
              H 7  -- H 8                    1.56        0.74896
              H 4  -- H 5                    1.56        0.74896
              H 10 -- H 11                   1.56        0.74896
              H 13 -- H 14                   1.56        0.74896
              H 22 -- H 23                   1.56        0.74896
              H 2  -- H 3                    1.56        0.74896
              H 16 -- H 17                   1.56        0.74896
              H 19 -- H 20                   1.56        0.74896
              H 18 -- H 24                   1.45        0.75814
              H 6  -- H 12                   1.45        0.75814
              H 9  -- H 15                   1.45        0.75814
              H 1  -- H 21                   1.45        0.75814
              H 20 -- H 21                   0.02        1.31142
              H 8  -- H 9                    0.02        1.31142
              H 1  -- H 2                    0.02        1.31142
              H 14 -- H 15                   0.02        1.31142
              H 5  -- H 6                    0.02        1.31142
              H 11 -- H 12                   0.02        1.31142
              H 23 -- H 24                   0.02        1.31142
              H 17 -- H 18                   0.02        1.31142
              H 17 -- H 19                  -0.11        1.35502
              H 16 -- H 20                  -0.11        1.35502
              H 2  -- H 22                  -0.11        1.35502
              H 4  -- H 8                   -0.11        1.35502
              H 5  -- H 7                   -0.11        1.35502
              H 10 -- H 14                  -0.11        1.35502
              H 11 -- H 13                  -0.11        1.35502
              H 3  -- H 23                  -0.11        1.35502
              H 1  -- H 16                   0.08        1.35866
              H 19 -- H 24                   0.08        1.35866
              H 21 -- H 22                   0.08        1.35866
              H 4  -- H 15                   0.08        1.35866
              H 3  -- H 18                   0.08        1.35866
              H 7  -- H 12                   0.08        1.35866
              H 9  -- H 10                   0.08        1.35866
              H 6  -- H 13                   0.08        1.35866
              H 2  -- H 20                  -0.04        1.47308
              H 17 -- H 23                  -0.04        1.47308
              H 5  -- H 11                  -0.04        1.47308
              H 8  -- H 14                  -0.04        1.47308
              H 1  -- H 3                   -0.09        1.51265
              H 13 -- H 15                  -0.09        1.51265
              H 10 -- H 12                  -0.09        1.51265
              H 4  -- H 6                   -0.09        1.51265
              H 7  -- H 9                   -0.09        1.51265
              H 19 -- H 21                  -0.09        1.51265
              H 22 -- H 24                  -0.09        1.51265
              H 16 -- H 18                  -0.09        1.51265
              H 10 -- H 19                  -0.00        1.54243
              H 13 -- H 16                  -0.00        1.54243
              H 3  -- H 4                   -0.00        1.54243
              H 7  -- H 22                  -0.00        1.54243
              H 2  -- H 21                  -0.19        1.55266
              H 9  -- H 14                  -0.19        1.55266
              H 6  -- H 11                  -0.19        1.55266
              H 1  -- H 20                  -0.19        1.55266
              H 8  -- H 15                  -0.19        1.55266
              H 18 -- H 23                  -0.19        1.55266
              H 5  -- H 12                  -0.19        1.55266
              H 17 -- H 24                  -0.19        1.55266
              H 4  -- H 7                   -0.24        1.61308
              H 3  -- H 22                  -0.24        1.61308
              H 10 -- H 13                  -0.24        1.61308
              H 16 -- H 19                  -0.24        1.61308
              H 3  -- H 24                  -0.15        1.63217
              H 18 -- H 19                  -0.15        1.63217
              H 12 -- H 13                  -0.15        1.63217
              H 6  -- H 7                   -0.15        1.63217
              H 1  -- H 22                  -0.15        1.63217
              H 16 -- H 21                  -0.15        1.63217
              H 10 -- H 15                  -0.15        1.63217
              H 4  -- H 9                   -0.15        1.63217
              H 12 -- H 20                  -0.12        1.63993
              H 8  -- H 24                  -0.12        1.63993
              H 2  -- H 6                   -0.12        1.63993
              H 14 -- H 18                  -0.12        1.63993
              H 9  -- H 23                  -0.12        1.63993
              H 11 -- H 21                  -0.12        1.63993
              H 1  -- H 5                   -0.12        1.63993
              H 15 -- H 17                  -0.12        1.63993
              H 1  -- H 6                   -0.14        1.68601
              H 12 -- H 21                  -0.14        1.68601
              H 15 -- H 18                  -0.14        1.68601
              H 9  -- H 24                  -0.14        1.68601
              H 14 -- H 24                  -0.12        1.70482
              H 2  -- H 12                  -0.12        1.70482
              H 6  -- H 20                  -0.12        1.70482
              H 8  -- H 18                  -0.12        1.70482
              H 1  -- H 11                  -0.12        1.70482
              H 15 -- H 23                  -0.12        1.70482
              H 9  -- H 17                  -0.12        1.70482
              H 5  -- H 21                  -0.12        1.70482
              H 14 -- H 19                  -0.18        1.72348
              H 2  -- H 7                   -0.18        1.72348
              H 5  -- H 22                  -0.18        1.72348
              H 10 -- H 17                  -0.18        1.72348
              H 11 -- H 16                  -0.18        1.72348
              H 3  -- H 8                   -0.18        1.72348
              H 13 -- H 20                  -0.18        1.72348
              H 4  -- H 23                  -0.18        1.72348
              H 3  -- H 7                   -0.25        1.82014
              H 4  -- H 22                  -0.25        1.82014
              H 13 -- H 19                  -0.25        1.82014
              H 10 -- H 16                  -0.25        1.82014
              H 8  -- H 22                  -0.21        1.83396
              H 3  -- H 5                   -0.21        1.83396
              H 13 -- H 17                  -0.21        1.83396
              H 10 -- H 20                  -0.21        1.83396
              H 2  -- H 4                   -0.21        1.83396
              H 7  -- H 23                  -0.21        1.83396
              H 11 -- H 19                  -0.21        1.83396
              H 14 -- H 16                  -0.21        1.83396
              H 2  -- H 8                   -0.19        1.93641
              H 5  -- H 23                  -0.19        1.93641
              H 11 -- H 17                  -0.19        1.93641
              H 14 -- H 20                  -0.19        1.93641
              H 8  -- H 23                  -0.34        1.97393
              H 11 -- H 20                  -0.34        1.97393
              H 2  -- H 5                   -0.34        1.97393
              H 14 -- H 17                  -0.34        1.97393
              H 18 -- H 22                  -0.27        1.97888
              H 16 -- H 24                  -0.27        1.97888
              H 4  -- H 12                  -0.27        1.97888
              H 6  -- H 10                  -0.27        1.97888
              H 9  -- H 13                  -0.27        1.97888
              H 3  -- H 21                  -0.27        1.97888
              H 7  -- H 15                  -0.27        1.97888
              H 1  -- H 19                  -0.27        1.97888
              H 10 -- H 21                  -0.22        1.98940
              H 1  -- H 4                   -0.22        1.98940
              H 3  -- H 6                   -0.22        1.98940
              H 13 -- H 18                  -0.22        1.98940
              H 9  -- H 22                  -0.22        1.98940
              H 7  -- H 24                  -0.22        1.98940
              H 15 -- H 16                  -0.22        1.98940
              H 12 -- H 19                  -0.22        1.98940
              H 5  -- H 15                  -0.11        1.98985
              H 8  -- H 12                  -0.11        1.98985
              H 1  -- H 17                  -0.11        1.98985
              H 2  -- H 18                  -0.11        1.98985
              H 6  -- H 14                  -0.11        1.98985
              H 9  -- H 11                  -0.11        1.98985
              H 20 -- H 24                  -0.11        1.98985
              H 21 -- H 23                  -0.11        1.98985
              H 2  -- H 24                  -0.18        2.03733
              H 12 -- H 14                  -0.18        2.03733
              H 6  -- H 8                   -0.18        2.03733
              H 5  -- H 9                   -0.18        2.03733
              H 17 -- H 21                  -0.18        2.03733
              H 18 -- H 20                  -0.18        2.03733
              H 1  -- H 23                  -0.18        2.03733
              H 11 -- H 15                  -0.18        2.03733
              H 5  -- H 8                   -0.23        2.04039
              H 17 -- H 20                  -0.23        2.04039
              H 2  -- H 23                  -0.23        2.04039
              H 11 -- H 14                  -0.23        2.04039
              H 9  -- H 19                  -0.04        2.09755
              H 6  -- H 16                  -0.04        2.09755
              H 7  -- H 21                  -0.04        2.09755
              H 4  -- H 18                  -0.04        2.09755
              H 3  -- H 15                  -0.04        2.09755
              H 1  -- H 13                  -0.04        2.09755
              H 12 -- H 22                  -0.04        2.09755
              H 10 -- H 24                  -0.04        2.09755
              H 15 -- H 24                  -0.23        2.17111
              H 9  -- H 18                  -0.23        2.17111
              H 1  -- H 12                  -0.23        2.17111
              H 6  -- H 21                  -0.23        2.17111
              H 3  -- H 20                  -0.07        2.18461
              H 4  -- H 11                  -0.07        2.18461
              H 7  -- H 14                  -0.07        2.18461
              H 5  -- H 10                  -0.07        2.18461
              H 8  -- H 13                  -0.07        2.18461
              H 17 -- H 22                  -0.07        2.18461
              H 16 -- H 23                  -0.07        2.18461
              H 2  -- H 19                  -0.07        2.18461
              H 13 -- H 24                  -0.19        2.19124
              H 7  -- H 18                  -0.19        2.19124
              H 3  -- H 12                  -0.19        2.19124
              H 1  -- H 10                  -0.19        2.19124
              H 15 -- H 22                  -0.19        2.19124
              H 4  -- H 21                  -0.19        2.19124
              H 6  -- H 19                  -0.19        2.19124
              H 9  -- H 16                  -0.19        2.19124
              H 19 -- H 23                  -0.03        2.26708
              H 2  -- H 16                  -0.03        2.26708
              H 7  -- H 11                  -0.03        2.26708
              H 20 -- H 22                  -0.03        2.26708
              H 4  -- H 14                  -0.03        2.26708
              H 3  -- H 17                  -0.03        2.26708
              H 8  -- H 10                  -0.03        2.26708
              H 5  -- H 13                  -0.03        2.26708
              H 12 -- H 16                  -0.06        2.44985
              H 4  -- H 24                  -0.06        2.44985
              H 15 -- H 19                  -0.06        2.44985
              H 6  -- H 22                  -0.06        2.44985
              H 10 -- H 18                  -0.06        2.44985
              H 1  -- H 7                   -0.06        2.44985
              H 3  -- H 9                   -0.06        2.44985
              H 13 -- H 21                  -0.06        2.44985
              H 8  -- H 19                  -0.01        2.56136
              H 7  -- H 20                  -0.01        2.56136
              H 5  -- H 16                  -0.01        2.56136
              H 11 -- H 22                  -0.01        2.56136
              H 10 -- H 23                  -0.01        2.56136
              H 2  -- H 13                  -0.01        2.56136
              H 3  -- H 14                  -0.01        2.56136
              H 4  -- H 17                  -0.01        2.56136
              H 14 -- H 23                  -0.02        2.60900
              H 2  -- H 11                  -0.02        2.60900
              H 5  -- H 20                  -0.02        2.60900
              H 8  -- H 17                  -0.02        2.60900
              H 8  -- H 21                   0.04        2.68577
              H 6  -- H 17                   0.04        2.68577
              H 9  -- H 20                   0.04        2.68577
              H 5  -- H 18                   0.04        2.68577
              H 2  -- H 15                   0.04        2.68577
              H 1  -- H 14                   0.04        2.68577
              H 12 -- H 23                   0.04        2.68577
              H 11 -- H 24                   0.04        2.68577
              H 3  -- H 16                  -0.02        2.74539
              H 19 -- H 22                  -0.02        2.74539
              H 7  -- H 10                  -0.02        2.74539
              H 4  -- H 13                  -0.02        2.74539
              H 2  -- H 10                   0.04        2.80386
              H 3  -- H 11                   0.04        2.80386
              H 14 -- H 22                   0.04        2.80386
              H 13 -- H 23                   0.04        2.80386
              H 4  -- H 20                   0.04        2.80386
              H 7  -- H 17                   0.04        2.80386
              H 5  -- H 19                   0.04        2.80386
              H 8  -- H 16                   0.04        2.80386
              H 14 -- H 21                   0.03        2.80686
              H 1  -- H 8                    0.03        2.80686
              H 2  -- H 9                    0.03        2.80686
              H 15 -- H 20                   0.03        2.80686
              H 12 -- H 17                   0.03        2.80686
              H 5  -- H 24                   0.03        2.80686
              H 6  -- H 23                   0.03        2.80686
              H 11 -- H 18                   0.03        2.80686
              H 9  -- H 12                   0.01        2.82856
              H 1  -- H 18                   0.01        2.82856
              H 6  -- H 15                   0.01        2.82856
              H 21 -- H 24                   0.01        2.82856
              H 3  -- H 19                  -0.02        2.90604
              H 16 -- H 22                  -0.02        2.90604
              H 7  -- H 13                  -0.02        2.90604
              H 4  -- H 10                  -0.02        2.90604
======================================================================


Writing analysis data to Cmca-12.castep_bin

Writing model to Cmca-12.check
 
 A BibTeX formatted list of references used in this run has been written to 
 Cmca-12.bib
 
Initialisation time =      4.90 s
Calculation time    =   6919.36 s
Finalisation time   =      8.96 s
Total time          =   6933.22 s
Peak Memory Use     = 703372 kB
  
Overall parallel efficiency rating: Good (78%)                                  
  
Data was distributed by:-
k-point (16-way); efficiency rating: Good (78%)                                 
