 +-------------------------------------------------+
 |                                                 |
 |      CCC   AA    SSS  TTTTT  EEEEE  PPPP        |
 |     C     A  A  S       T    E      P   P       |
 |     C     AAAA   SS     T    EEE    PPPP        |
 |     C     A  A     S    T    E      P           |
 |      CCC  A  A  SSS     T    EEEEE  P           |
 |                                                 |
 +-------------------------------------------------+
 |                                                 |
 | Welcome to Academic Release CASTEP version 18.1 |          
 | Ab Initio Total Energy Program                  |
 |                                                 |
 | Authors:                                        |
 | M. Segall, M. Probert, C. Pickard, P. Hasnip,   |
 | S. Clark, K. Refson, J. R. Yates, M. Payne      |
 |                                                 |
 | Contributors:                                   |
 | P. Lindan, P. Haynes, J. White, V. Milman,      |
 | N. Govind, M. Gibson, P. Tulip, V. Cocula,      |
 | B. Montanari, D. Quigley, M. Glover,            |
 | L. Bernasconi, A. Perlov, M. Plummer,           |
 | E. McNellis, J. Meyer, J. Gale, D. Jochym       |
 | J. Aarons, B. Walker, R. Gillen, D. Jones       |
 | T. Green, I. J. Bush, C. J. Armstrong,          |
 | E. J. Higgins, E. L. Brown, M. S. McFly,        |
 | J. Wilkins, B-C. Shih, P. J. P. Byrne           |
 |                                                 |
 | Copyright (c) 2000 - 2017                       |
 |                                                 |
 |     Distributed under the terms of an           |
 |     Agreement between the United Kingdom        |
 |     Car-Parrinello (UKCP) Consortium,           |
 |     Daresbury Laboratory and Accelrys, Inc.     |
 |                                                 |
 | Please cite                                     |
 |                                                 |
 |     "First principles methods using CASTEP"     |
 |                                                 |
 |         Zeitschrift fuer Kristallographie       |
 |           220(5-6) pp. 567-570 (2005)           |
 |                                                 |
 | S. J. Clark, M. D. Segall, C. J. Pickard,       |
 | P. J. Hasnip, M. J. Probert, K. Refson,         |
 | M. C. Payne                                     |
 |                                                 |
 |       in all publications arising from          |
 |              your use of CASTEP                 |
 |                                                 |
 +-------------------------------------------------+


 Compiled for linux_x86_64_gfortran4.8 on Thu, 19 Jul 2018 15:42:32 +0100
 from code version 70483bd0ad64+  Sun, 10 Dec 2017 12:18:29 +0000
 Compiler: GNU Fortran 4.8.5; Optimisation: fast
 MATHLIBS: Intel MKL(2018.0.0) (LAPACK version 3.7.0)
 FFT Lib : mkl
 Fundamental constants values: CODATA 2014

 Run started: Sat, 15 Aug 2020 16:57:39 +0100

 Atomic calculation performed for H: 1s1

 Converged in 41 iterations to an ae energy of -12.488 eV

   ============================================================                
   | Pseudopotential Report - Date of generation 15-08-2020   |                
   ------------------------------------------------------------                
   | Element: H Ionic charge:  1.00 Level of theory: PBE      |                
   | Atomic Solver: Koelling-Harmon                           |                
   |                                                          |                
   |               Reference Electronic Structure             |                
   |         Orbital         Occupation         Energy        |                
   |            1s              1.000           -0.239        |                
   |                                                          |                
   |                 Pseudopotential Definition               |                
   |        Beta     l      e      Rc     scheme   norm       |                
   |          1      0   -0.239   0.599     qc      0         |                
   |          2      0    0.250   0.599     qc      0         |                
   |         loc     1    0.000   0.599     pn      0         |                
   |                                                          |                
   | Augmentation charge Rinner = 0.421                       |                
   | No partial core correction                               |                
   ------------------------------------------------------------                
   | "1|0.6|13|15|17|10(qc=8)"                                |                
   ------------------------------------------------------------                
   |      Author: Chris J. Pickard, Cambridge University      |                
   ============================================================                

 Pseudo atomic calculation performed for H 1s1

 Converged in 24 iterations to a total energy of -12.4866 eV

 Calculation parallelised over 16 processes.
 Data is distributed by k-point(16-way)

 ************************************ Title ************************************
 

 ***************************** General Parameters ******************************
  
 output verbosity                               : normal  (1)
 write checkpoint data to                       : Cmca-12.check
 type of calculation                            : geometry optimization
 stress calculation                             : on
 density difference calculation                 : off
 electron localisation func (ELF) calculation   : off
 Hirshfeld analysis                             : off
 unlimited duration calculation
 timing information                             : on
 memory usage estimate                          : on
 write extra output files                       : on
 write final potential to formatted file        : off
 write final density to formatted file          : off
 write structure in CELL formatted file         : on
 write BibTeX reference list                    : on
 write OTFG pseudopotential files               : on
 write electrostatic potential file             : on
 write bands file                               : on
 checkpoint writing                             : both castep_bin and check files
  
 output         length unit                     : A
 output           mass unit                     : amu
 output           time unit                     : ps
 output         charge unit                     : e
 output           spin unit                     : hbar/2
 output         energy unit                     : eV
 output          force unit                     : eV/A
 output       velocity unit                     : A/ps
 output       pressure unit                     : GPa
 output     inv_length unit                     : 1/A
 output      frequency unit                     : cm-1
 output force constant unit                     : eV/A**2
 output         volume unit                     : A**3
 output   IR intensity unit                     : (D/A)**2/amu
 output         dipole unit                     : D
 output         efield unit                     : eV/A/e
 output        entropy unit                     : J/mol/K
  
 wavefunctions paging                           : none
 random number generator seed                   : randomised (165739222)
 data distribution                              : optimal for this architecture
 optimization strategy                          : maximize speed(+++)

 *********************** Exchange-Correlation Parameters ***********************
  
 using functional                               : Perdew Burke Ernzerhof
 relativistic treatment                         : Koelling-Harmon
 DFT+D: Semi-empirical dispersion correction    : off

 ************************* Pseudopotential Parameters **************************
  
 pseudopotential representation                 : reciprocal space
 <beta|phi> representation                      : reciprocal space
 spin-orbit coupling                            : off

 **************************** Basis Set Parameters *****************************
  
 plane wave basis set cut-off                   :  1200.0000   eV
 size of standard grid                          :     2.0000
 size of   fine   gmax                          :    35.4943   1/A
 finite basis set correction                    : automatic
 number of sample energies                      :          3
           sample  spacing                      :     5.0000   eV

 **************************** Electronic Parameters ****************************
  
 number of  electrons                           :  24.00    
 net charge of system                           :  0.000    
 treating system as non-spin-polarized
 number of bands                                :         12

 ********************* Electronic Minimization Parameters **********************
  
 Method: Treating system as non-metallic,
         and number of  SD  steps               :          1
         and number of  CG  steps               :          4
  
 total energy / atom convergence tol.           : 0.1000E-10   eV
 eigen-energy convergence tolerance             : 0.2000E-10   eV
 max force / atom convergence tol.              : ignored
 convergence tolerance window                   :          3   cycles
 max. number of SCF cycles                      :        100
 periodic dipole correction                     : NONE

 ************************** Density Mixing Parameters **************************
  
 density-mixing scheme                          : Broyden
 max. length of mixing history                  :         20
 charge density mixing amplitude                : 0.8000    
 cut-off energy for mixing                      :  1200.       eV

 *********************** Population Analysis Parameters ************************
  
 Population analysis with cutoff                :  3.000       A
 Population analysis output                     : summary and pdos components

 ********************** Geometry Optimization Parameters ***********************
  
 optimization method                            : LBFGS
 max. no. of LBFGS updates                      : unbounded
 variable cell method                           : fixed basis quality
 max. number of steps                           :        200
 estimated bulk modulus                         :  500.0       GPa
 estimated <frequency>                          :  1668.       cm-1
 geom line minimiser                            : on
 with line minimiser tolerance                  :     0.4000
 total energy convergence tolerance             : 0.1000E-08   eV/atom
        max ionic |force| tolerance             : 0.1000E-04   eV/A
 max ionic |displacement| tolerance             : 0.1000E-04   A
   max |stress component| tolerance             : 0.1000E-04   GPa
 convergence tolerance window                   :          2   steps
 backup results every                           :      14400   seconds
 write geom trajectory file                     : on

 *******************************************************************************
  

                           -------------------------------
                                      Unit Cell
                           -------------------------------
        Real Lattice(A)                      Reciprocal Lattice(1/A)
     2.9873309     0.0000000     0.0000000        2.103277332   0.000000000  -0.000000000
    -0.0000000     8.8548534     0.0057963       -0.000000000   0.709575003   0.000464462
     0.0000000    -0.0019458     2.9726269       -0.000000000  -0.001383585   2.113680199

                       Lattice parameters(A)       Cell Angles
                    a =      2.987331          alpha =   89.999999
                    b =      8.854855          beta  =   90.000000
                    c =      2.972628          gamma =   90.000000

                       Current cell volume =            78.633081       A**3
                                   density =             0.307638   AMU/A**3
                                           =             0.510846     g/cm^3

                           -------------------------------
                                     Cell Contents
                           -------------------------------
                         Total number of ions in cell =   24
                      Total number of species in cell =    1
                        Max number of any one species =   24

            xxxxxxxxxxxxxxxxxxxxxxxxxxxxxxxxxxxxxxxxxxxxxxxxxxxxxxxxxxxx
            x  Element    Atom        Fractional coordinates of atoms  x
            x            Number           u          v          w      x
            x----------------------------------------------------------x
            x  H            1        -0.000000   0.030058   0.085803   x 
            x  H            2        -0.000000   0.136610   0.585803   x 
            x  H            3         0.000000   0.196724   0.414197   x 
            x  H            4         0.500000   0.196724   0.085804   x 
            x  H            5         0.500000   0.136610  -0.085804   x 
            x  H            6         0.500000   0.030057   0.414196   x 
            x  H            7         0.500000   0.303276   0.585803   x 
            x  H            8         0.500000   0.363390   0.414196   x 
            x  H            9         0.500000   0.469943   0.914196   x 
            x  H           10         0.500000   0.803277   0.914196   x 
            x  H           11         0.500000   0.863390   1.085804   x 
            x  H           12         0.500000   0.969943   0.585804   x 
            x  H           13         0.500000   0.696724   0.414196   x 
            x  H           14         0.500000   0.636609   0.585804   x 
            x  H           15         0.500000   0.530057   0.085804   x 
            x  H           16        -0.000000   0.696724   0.085803   x 
            x  H           17         0.000000   0.636610  -0.085803   x 
            x  H           18         0.000000   0.530057   0.414196   x 
            x  H           19        -0.000000   0.803276   0.585803   x 
            x  H           20         0.000000   0.863391   0.414198   x 
            x  H           21         0.000000   0.969943   0.914197   x 
            x  H           22         0.000000   0.303276   0.914197   x 
            x  H           23        -0.000000   0.363390   1.085803   x 
            x  H           24        -0.000000   0.469943   0.585803   x 
            xxxxxxxxxxxxxxxxxxxxxxxxxxxxxxxxxxxxxxxxxxxxxxxxxxxxxxxxxxxx


                         No user defined ionic velocities

                           -------------------------------
                                   Details of Species
                           -------------------------------

                               Mass of species in AMU
                                    H    1.0078250

                          Electric Quadrupole Moment (Barn)
                                    H    0.0028600 Isotope  2

                          Files used for pseudopotentials:
                                    H 1|0.6|13|15|17|10(qc=8)

                           -------------------------------
                              k-Points For BZ Sampling
                           -------------------------------
                       MP grid size for SCF calculation is 10 10 10
                            with an offset of   0.000  0.000  0.000
                       Number of kpoints used =           500

                           -------------------------------
                               Symmetry and Constraints
                           -------------------------------

                      Cell is a supercell containing 6 primitive cells
                      Maximum deviation from symmetry =  0.00000         ANG

                      Number of symmetry operations   =           1
                      Number of ionic constraints     =           3
                      Point group of crystal =     1: C1, 1, 1
                      Space group of crystal =    64: Cmce, -C 2bc 2

             Set iprint > 1 for details on symmetry rotations/translations

                         Centre of mass is constrained
             Set iprint > 1 for details of linear ionic constraints

                         Number of cell constraints= 0
                         Cell constraints are:  1 2 3 4 5 6

                         External pressure/stress (GPa)
                         30.00000   0.00000   0.00000
                                   30.00000   0.00000
                                             30.00000
  
+---------------- MEMORY AND SCRATCH DISK ESTIMATES PER PROCESS --------------+
|                                                     Memory          Disk    |
| Baseline code, static data and system overhead      411.0 MB         0.0 MB |
| BLAS internal memory storage                          0.0 MB         0.0 MB |
| Model and support data                              156.0 MB         0.0 MB |
| Electronic energy minimisation requirements         122.7 MB         0.0 MB |
| Force calculation requirements                       16.0 MB         0.0 MB |
| Stress calculation requirements                      20.3 MB         0.0 MB |
|                                               ----------------------------- |
| Approx. total storage required per process          689.8 MB         0.0 MB |
|                                                                             |
| Requirements will fluctuate during execution and may exceed these estimates |
+-----------------------------------------------------------------------------+
Calculating finite basis set correction with  3 cut-off energies.
Calculating total energy with cut-off of 1190.000 eV.
------------------------------------------------------------------------ <-- SCF
SCF loop      Energy                           Energy gain       Timer   <-- SCF
                                               per atom          (sec)   <-- SCF
------------------------------------------------------------------------ <-- SCF
Initial   6.49793923E+002                                         10.41  <-- SCF
      1  -2.96647145E+002                    3.94350445E+001      40.17  <-- SCF
      2  -3.73994814E+002                    3.22281953E+000      61.21  <-- SCF
      3  -3.75248851E+002                    5.22515398E-002      79.82  <-- SCF
      4  -3.72554175E+002                   -1.12278152E-001     105.43  <-- SCF
      5  -3.72475927E+002                   -3.26035055E-003     131.64  <-- SCF
      6  -3.72480998E+002                    2.11281719E-004     157.22  <-- SCF
      7  -3.72481641E+002                    2.68206199E-005     182.74  <-- SCF
      8  -3.72481644E+002                    1.09260312E-007     208.17  <-- SCF
      9  -3.72481644E+002                    1.02964475E-008     233.56  <-- SCF
     10  -3.72481644E+002                    5.15575931E-011     251.67  <-- SCF
     11  -3.72481644E+002                    2.18524116E-012     269.87  <-- SCF
     12  -3.72481644E+002                   -6.04214146E-014     287.98  <-- SCF
------------------------------------------------------------------------ <-- SCF
 
Final energy =  -372.4816443195     eV
(energy not corrected for finite basis set)
 
Calculating total energy with cut-off of 1195.000 eV.
------------------------------------------------------------------------ <-- SCF
SCF loop      Energy                           Energy gain       Timer   <-- SCF
                                               per atom          (sec)   <-- SCF
------------------------------------------------------------------------ <-- SCF
Initial  -3.72481644E+002                                        296.07  <-- SCF
      1  -3.72481678E+002                    1.41068584E-006     319.70  <-- SCF
      2  -3.72481678E+002                    9.60700492E-013     338.85  <-- SCF
      3  -3.72481678E+002                    7.30166613E-010     357.99  <-- SCF
      4  -3.72481678E+002                    2.40477230E-011     377.20  <-- SCF
      5  -3.72481678E+002                    9.26461690E-014     396.37  <-- SCF
      6  -3.72481678E+002                   -2.73910413E-013     415.47  <-- SCF
------------------------------------------------------------------------ <-- SCF
 
Final energy =  -372.4816781941     eV
(energy not corrected for finite basis set)
 
Calculating total energy with cut-off of 1200.000 eV.
------------------------------------------------------------------------ <-- SCF
SCF loop      Energy                           Energy gain       Timer   <-- SCF
                                               per atom          (sec)   <-- SCF
------------------------------------------------------------------------ <-- SCF
Initial  -3.72481678E+002                                        423.77  <-- SCF
      1  -3.72481714E+002                    1.47524734E-006     450.15  <-- SCF
      2  -3.72481714E+002                    8.82152653E-013     470.50  <-- SCF
      3  -3.72481714E+002                    7.60717694E-010     490.76  <-- SCF
      4  -3.72481714E+002                    2.48513278E-011     511.15  <-- SCF
      5  -3.72481714E+002                    1.47025442E-013     531.45  <-- SCF
      6  -3.72481714E+002                    3.34331827E-013     551.78  <-- SCF
------------------------------------------------------------------------ <-- SCF
 
Final energy =  -372.4817136189     eV
(energy not corrected for finite basis set)
 
 For future reference: finite basis dEtot/dlog(Ecut) =      -0.008324eV
 Total energy corrected for finite basis set =    -372.481714 eV
 
+---------------- MEMORY AND SCRATCH DISK ESTIMATES PER PROCESS --------------+
|                                                     Memory          Disk    |
| Model and support data                              160.6 MB         0.0 MB |
| Electronic energy minimisation requirements         122.7 MB         0.0 MB |
| Geometry minimisation requirements                  169.4 MB         0.0 MB |
|                                               ----------------------------- |
| Approx. total storage required per process          452.8 MB         0.0 MB |
|                                                                             |
| Requirements will fluctuate during execution and may exceed these estimates |
+-----------------------------------------------------------------------------+
 

 ************************************** Forces **************************************
 *                                                                                  *
 *                           Cartesian components (eV/A)                            *
 * -------------------------------------------------------------------------------- *
 *                         x                    y                    z              *
 *                                                                                  *
 * H               1     -0.00000             -0.00000              0.00000         *
 * H               2     -0.00000             -0.00000             -0.00000         *
 * H               3      0.00000             -0.00000              0.00000         *
 * H               4      0.00000              0.00000             -0.00000         *
 * H               5     -0.00000             -0.00000              0.00000         *
 * H               6     -0.00000              0.00000             -0.00000         *
 * H               7      0.00000             -0.00000              0.00000         *
 * H               8     -0.00000             -0.00000             -0.00000         *
 * H               9     -0.00000              0.00000             -0.00000         *
 * H              10     -0.00000             -0.00000              0.00000         *
 * H              11      0.00000             -0.00000             -0.00000         *
 * H              12      0.00000             -0.00000              0.00000         *
 * H              13     -0.00000              0.00000             -0.00000         *
 * H              14      0.00000              0.00000              0.00000         *
 * H              15      0.00000              0.00000             -0.00000         *
 * H              16     -0.00000             -0.00000             -0.00000         *
 * H              17      0.00000             -0.00000              0.00000         *
 * H              18      0.00000              0.00000              0.00000         *
 * H              19     -0.00000              0.00000              0.00000         *
 * H              20      0.00000              0.00000             -0.00000         *
 * H              21      0.00000             -0.00000              0.00000         *
 * H              22      0.00000              0.00000              0.00000         *
 * H              23     -0.00000             -0.00000             -0.00000         *
 * H              24     -0.00000              0.00000              0.00000         *
 *                                                                                  *
 ************************************************************************************

 ***************** Stress Tensor *****************
 *                                               *
 *          Cartesian components (GPa)           *
 * --------------------------------------------- *
 *             x             y             z     *
 *                                               *
 *  x    -40.001214      0.000000      0.000000  *
 *  y      0.000000    -40.001218      0.000003  *
 *  z      0.000000      0.000003    -40.001215  *
 *                                               *
 *  Pressure:   40.0012                          *
 *                                               *
 *************************************************
 LBFGS: finished iteration     0 with enthalpy= -3.57758041E+002 eV
  
 +-----------+-----------------+-----------------+------------+-----+ <-- LBFGS
 | Parameter |      value      |    tolerance    |    units   | OK? | <-- LBFGS
 +-----------+-----------------+-----------------+------------+-----+ <-- LBFGS
 |  dE/ion   |   0.000000E+000 |   1.000000E-009 |         eV | No  | <-- LBFGS
 |  |F|max   |   5.120905E-006 |   1.000000E-005 |       eV/A | Yes | <-- LBFGS
 |  |dR|max  |   0.000000E+000 |   1.000000E-005 |          A | No  | <-- LBFGS
 |   Smax    |   1.000122E+001 |   1.000000E-005 |        GPa | No  | <-- LBFGS
 +-----------+-----------------+-----------------+------------+-----+ <-- LBFGS
  

================================================================================
 Starting LBFGS iteration          1 ...
================================================================================
  
 +------------+-------------+-------------+-----------------+ <-- min LBFGS
 |    Step    |   lambda    |   F.delta'  |    enthalpy     | <-- min LBFGS
 +------------+-------------+-------------+-----------------+ <-- min LBFGS
 |  previous  |    0.000000 |    0.312434 |     -357.758041 | <-- min LBFGS
 +------------+-------------+-------------+-----------------+ <-- min LBFGS
  

--------------------------------------------------------------------------------
 LBFGS: starting iteration         1 with trial guess (lambda=  1.000000)
--------------------------------------------------------------------------------
 
+---------------- MEMORY AND SCRATCH DISK ESTIMATES PER PROCESS --------------+
|                                                     Memory          Disk    |
| Model and support data                              162.3 MB         0.0 MB |
| Electronic energy minimisation requirements         124.9 MB         0.0 MB |
| Geometry minimisation requirements                  172.5 MB         0.0 MB |
|                                               ----------------------------- |
| Approx. total storage required per process          459.8 MB         0.0 MB |
|                                                                             |
| Requirements will fluctuate during execution and may exceed these estimates |
+-----------------------------------------------------------------------------+
 

                           -------------------------------
                                      Unit Cell
                           -------------------------------
        Real Lattice(A)              Reciprocal Lattice(1/A)
     3.0072488     0.0000000     0.0000000        2.089346663   0.000000000  -0.000000000
    -0.0000000     8.9138929     0.0058349       -0.000000000   0.704875262   0.000461387
     0.0000000    -0.0019588     2.9924468       -0.000000000  -0.001374417   2.099680627

                       Lattice parameters(A)       Cell Angles
                    a =      3.007249          alpha =   89.999999
                    b =      8.913895          beta  =   90.000000
                    c =      2.992447          gamma =   90.000000

                Current cell volume =            80.216444 A**3

                           -------------------------------
                                     Cell Contents
                           -------------------------------

            xxxxxxxxxxxxxxxxxxxxxxxxxxxxxxxxxxxxxxxxxxxxxxxxxxxxxxxxxxxxxxxxx
            x  Element         Atom        Fractional coordinates of atoms  x
            x                 Number           u          v          w      x
            x---------------------------------------------------------------x
            x  H                 1        -0.000000   0.030057   0.085803   x
            x  H                 2        -0.000000   0.136610   0.585803   x
            x  H                 3         0.000000   0.196724   0.414197   x
            x  H                 4         0.500000   0.196724   0.085804   x
            x  H                 5         0.500000   0.136610  -0.085804   x
            x  H                 6         0.500000   0.030057   0.414196   x
            x  H                 7         0.500000   0.303276   0.585803   x
            x  H                 8         0.500000   0.363390   0.414196   x
            x  H                 9         0.500000   0.469943   0.914196   x
            x  H                10         0.500000   0.803276   0.914196   x
            x  H                11         0.500000   0.863390   1.085804   x
            x  H                12         0.500000   0.969943   0.585804   x
            x  H                13         0.500000   0.696724   0.414196   x
            x  H                14         0.500000   0.636609   0.585804   x
            x  H                15         0.500000   0.530057   0.085804   x
            x  H                16        -0.000000   0.696724   0.085803   x
            x  H                17         0.000000   0.636610  -0.085803   x
            x  H                18         0.000000   0.530057   0.414197   x
            x  H                19        -0.000000   0.803276   0.585803   x
            x  H                20         0.000000   0.863391   0.414198   x
            x  H                21         0.000000   0.969943   0.914197   x
            x  H                22         0.000000   0.303276   0.914197   x
            x  H                23        -0.000000   0.363390   1.085803   x
            x  H                24        -0.000000   0.469943   0.585803   x
            xxxxxxxxxxxxxxxxxxxxxxxxxxxxxxxxxxxxxxxxxxxxxxxxxxxxxxxxxxxxxxxxx


------------------------------------------------------------------------ <-- SCF
SCF loop      Energy                           Energy gain       Timer   <-- SCF
                                               per atom          (sec)   <-- SCF
------------------------------------------------------------------------ <-- SCF
Initial  -3.72851365E+002                                        611.30  <-- SCF
      1  -3.72862665E+002                    4.70833174E-004     637.49  <-- SCF
      2  -3.72862685E+002                    8.48441914E-007     666.03  <-- SCF
      3  -3.72861915E+002                   -3.20694342E-005     694.59  <-- SCF
      4  -3.72861896E+002                   -8.11972350E-007     723.15  <-- SCF
      5  -3.72861897E+002                    4.53408619E-008     751.71  <-- SCF
      6  -3.72861897E+002                    5.36456766E-009     780.27  <-- SCF
      7  -3.72861897E+002                    2.69076700E-011     800.50  <-- SCF
      8  -3.72861897E+002                    2.88008743E-012     820.76  <-- SCF
      9  -3.72861897E+002                    4.67258940E-013     840.96  <-- SCF
------------------------------------------------------------------------ <-- SCF
 
Final energy =  -372.8618971182     eV
(energy not corrected for finite basis set)
 

 ************************************** Forces **************************************
 *                                                                                  *
 *                           Cartesian components (eV/A)                            *
 * -------------------------------------------------------------------------------- *
 *                         x                    y                    z              *
 *                                                                                  *
 * H               1      0.00000             -0.10995             -0.10547         *
 * H               2      0.00000              0.11008             -0.10532         *
 * H               3     -0.00000             -0.11008              0.10532         *
 * H               4     -0.00000             -0.10994             -0.10547         *
 * H               5      0.00000              0.10994              0.10547         *
 * H               6      0.00000             -0.11009              0.10534         *
 * H               7     -0.00000              0.11009             -0.10534         *
 * H               8      0.00000             -0.11009              0.10534         *
 * H               9      0.00000              0.10994              0.10547         *
 * H              10      0.00000              0.10994              0.10547         *
 * H              11     -0.00000             -0.10994             -0.10547         *
 * H              12     -0.00000              0.11009             -0.10534         *
 * H              13      0.00000             -0.11009              0.10533         *
 * H              14     -0.00000              0.11009             -0.10533         *
 * H              15     -0.00000             -0.10994             -0.10547         *
 * H              16      0.00000             -0.10994             -0.10547         *
 * H              17     -0.00000              0.10994              0.10547         *
 * H              18     -0.00000             -0.11008              0.10532         *
 * H              19      0.00000              0.11009             -0.10533         *
 * H              20     -0.00000             -0.11009              0.10533         *
 * H              21     -0.00000              0.10994              0.10547         *
 * H              22     -0.00000              0.10994              0.10547         *
 * H              23      0.00000             -0.10994             -0.10547         *
 * H              24      0.00000              0.11008             -0.10532         *
 *                                                                                  *
 ************************************************************************************

 ***************** Stress Tensor *****************
 *                                               *
 *          Cartesian components (GPa)           *
 * --------------------------------------------- *
 *             x             y             z     *
 *                                               *
 *  x    -37.901417      0.000000      0.000000  *
 *  y      0.000000    -36.450458      0.000034  *
 *  z      0.000000      0.000034    -36.565848  *
 *                                               *
 *  Pressure:   36.9726                          *
 *                                               *
 *************************************************
  
 +------------+-------------+-------------+-----------------+ <-- min LBFGS
 |    Step    |   lambda    |   F.delta'  |    enthalpy     | <-- min LBFGS
 +------------+-------------+-------------+-----------------+ <-- min LBFGS
 |  previous  |    0.000000 |    0.312434 |     -357.758041 | <-- min LBFGS
 | trial step |    1.000000 |    0.220734 |     -357.841747 | <-- min LBFGS
 +------------+-------------+-------------+-----------------+ <-- min LBFGS
  

--------------------------------------------------------------------------------
 LBFGS: improving iteration         1 with line minimization (lambda=  3.407158)
--------------------------------------------------------------------------------
 
+---------------- MEMORY AND SCRATCH DISK ESTIMATES PER PROCESS --------------+
|                                                     Memory          Disk    |
| Model and support data                              166.4 MB         0.0 MB |
| Electronic energy minimisation requirements         130.3 MB         0.0 MB |
| Geometry minimisation requirements                  180.0 MB         0.0 MB |
|                                               ----------------------------- |
| Approx. total storage required per process          476.6 MB         0.0 MB |
|                                                                             |
| Requirements will fluctuate during execution and may exceed these estimates |
+-----------------------------------------------------------------------------+
 

                           -------------------------------
                                      Unit Cell
                           -------------------------------
        Real Lattice(A)              Reciprocal Lattice(1/A)
     3.0551945     0.0000000     0.0000000        2.056558208   0.000000000  -0.000000000
    -0.0000000     9.0560104     0.0059279       -0.000000000   0.693813536   0.000454149
     0.0000000    -0.0019900     3.0401565       -0.000000000  -0.001352839   2.066729994

                       Lattice parameters(A)       Cell Angles
                    a =      3.055194          alpha =   89.999999
                    b =      9.056012          beta  =   90.000000
                    c =      3.040157          gamma =   90.000000

                Current cell volume =            84.114700 A**3

                           -------------------------------
                                     Cell Contents
                           -------------------------------

            xxxxxxxxxxxxxxxxxxxxxxxxxxxxxxxxxxxxxxxxxxxxxxxxxxxxxxxxxxxxxxxxx
            x  Element         Atom        Fractional coordinates of atoms  x
            x                 Number           u          v          w      x
            x---------------------------------------------------------------x
            x  H                 1        -0.000000   0.030057   0.085803   x
            x  H                 2        -0.000000   0.136610   0.585803   x
            x  H                 3         0.000000   0.196724   0.414197   x
            x  H                 4         0.500000   0.196724   0.085804   x
            x  H                 5         0.500000   0.136610  -0.085804   x
            x  H                 6         0.500000   0.030057   0.414196   x
            x  H                 7         0.500000   0.303276   0.585804   x
            x  H                 8         0.500000   0.363390   0.414196   x
            x  H                 9         0.500000   0.469943   0.914196   x
            x  H                10         0.500000   0.803276   0.914196   x
            x  H                11         0.500000   0.863390   1.085804   x
            x  H                12         0.500000   0.969943   0.585804   x
            x  H                13         0.500000   0.696724   0.414196   x
            x  H                14         0.500000   0.636610   0.585804   x
            x  H                15         0.500000   0.530057   0.085804   x
            x  H                16        -0.000000   0.696724   0.085803   x
            x  H                17         0.000000   0.636609  -0.085803   x
            x  H                18         0.000000   0.530057   0.414197   x
            x  H                19        -0.000000   0.803276   0.585803   x
            x  H                20         0.000000   0.863391   0.414197   x
            x  H                21         0.000000   0.969943   0.914197   x
            x  H                22         0.000000   0.303276   0.914197   x
            x  H                23        -0.000000   0.363390   1.085803   x
            x  H                24        -0.000000   0.469943   0.585803   x
            xxxxxxxxxxxxxxxxxxxxxxxxxxxxxxxxxxxxxxxxxxxxxxxxxxxxxxxxxxxxxxxxx


------------------------------------------------------------------------ <-- SCF
SCF loop      Energy                           Energy gain       Timer   <-- SCF
                                               per atom          (sec)   <-- SCF
------------------------------------------------------------------------ <-- SCF
Initial  -3.73619892E+002                                        901.28  <-- SCF
      1  -3.73682932E+002                    2.62669339E-003     928.24  <-- SCF
      2  -3.73683051E+002                    4.96411381E-006     958.22  <-- SCF
      3  -3.73678659E+002                   -1.83000308E-004     987.46  <-- SCF
      4  -3.73678548E+002                   -4.62692004E-006    1016.71  <-- SCF
      5  -3.73678555E+002                    2.84813661E-007    1045.91  <-- SCF
      6  -3.73678556E+002                    3.46349284E-008    1075.14  <-- SCF
      7  -3.73678556E+002                    1.80168602E-010    1098.08  <-- SCF
      8  -3.73678556E+002                    2.14214055E-011    1118.81  <-- SCF
      9  -3.73678556E+002                   -7.25056975E-014    1139.50  <-- SCF
     10  -3.73678556E+002                    9.26461690E-014    1160.20  <-- SCF
------------------------------------------------------------------------ <-- SCF
 
Final energy =  -373.6785560063     eV
(energy not corrected for finite basis set)
 

 ************************************** Forces **************************************
 *                                                                                  *
 *                           Cartesian components (eV/A)                            *
 * -------------------------------------------------------------------------------- *
 *                         x                    y                    z              *
 *                                                                                  *
 * H               1      0.00000             -0.36196             -0.34723         *
 * H               2      0.00000              0.36239             -0.34674         *
 * H               3     -0.00000             -0.36240              0.34674         *
 * H               4     -0.00000             -0.36194             -0.34722         *
 * H               5      0.00000              0.36194              0.34722         *
 * H               6      0.00000             -0.36245              0.34680         *
 * H               7     -0.00000              0.36245             -0.34680         *
 * H               8      0.00000             -0.36245              0.34680         *
 * H               9      0.00000              0.36194              0.34722         *
 * H              10      0.00000              0.36194              0.34723         *
 * H              11     -0.00000             -0.36194             -0.34723         *
 * H              12     -0.00000              0.36245             -0.34680         *
 * H              13      0.00000             -0.36242              0.34677         *
 * H              14     -0.00000              0.36242             -0.34677         *
 * H              15     -0.00000             -0.36194             -0.34722         *
 * H              16      0.00000             -0.36194             -0.34721         *
 * H              17     -0.00000              0.36194              0.34721         *
 * H              18     -0.00000             -0.36239              0.34674         *
 * H              19      0.00000              0.36243             -0.34677         *
 * H              20     -0.00000             -0.36243              0.34677         *
 * H              21     -0.00000              0.36196              0.34723         *
 * H              22     -0.00000              0.36194              0.34721         *
 * H              23      0.00000             -0.36194             -0.34721         *
 * H              24      0.00000              0.36239             -0.34674         *
 *                                                                                  *
 ************************************************************************************

 ***************** Stress Tensor *****************
 *                                               *
 *          Cartesian components (GPa)           *
 * --------------------------------------------- *
 *             x             y             z     *
 *                                               *
 *  x    -33.300885      0.000000      0.000000  *
 *  y      0.000000    -28.674985      0.000104  *
 *  z      0.000000      0.000104    -29.043020  *
 *                                               *
 *  Pressure:   30.3396                          *
 *                                               *
 *************************************************
  
 +------------+-------------+-------------+-----------------+ <-- min LBFGS
 |    Step    |   lambda    |   F.delta'  |    enthalpy     | <-- min LBFGS
 +------------+-------------+-------------+-----------------+ <-- min LBFGS
 |  previous  |    0.000000 |    0.312434 |     -357.758041 | <-- min LBFGS
 | trial step |    1.000000 |    0.220734 |     -357.841747 | <-- min LBFGS
 |  line step |    3.407158 |    0.011097 |     -357.928476 | <-- min LBFGS
 +------------+-------------+-------------+-----------------+ <-- min LBFGS
  
 LBFGS: finished iteration     1 with enthalpy= -3.57928476E+002 eV
  
 +-----------+-----------------+-----------------+------------+-----+ <-- LBFGS
 | Parameter |      value      |    tolerance    |    units   | OK? | <-- LBFGS
 +-----------+-----------------+-----------------+------------+-----+ <-- LBFGS
 |  dE/ion   |   7.101455E-003 |   1.000000E-009 |         eV | No  | <-- LBFGS
 |  |F|max   |   5.016372E-001 |   1.000000E-005 |       eV/A | No  | <-- LBFGS
 |  |dR|max  |   1.730896E-006 |   1.000000E-005 |          A | Yes | <-- LBFGS
 |   Smax    |   3.300885E+000 |   1.000000E-005 |        GPa | No  | <-- LBFGS
 +-----------+-----------------+-----------------+------------+-----+ <-- LBFGS
  

================================================================================
 Starting LBFGS iteration          2 ...
================================================================================
  
 +------------+-------------+-------------+-----------------+ <-- min LBFGS
 |    Step    |   lambda    |   F.delta'  |    enthalpy     | <-- min LBFGS
 +------------+-------------+-------------+-----------------+ <-- min LBFGS
 |  previous  |    0.000000 |    0.241485 |     -357.928476 | <-- min LBFGS
 +------------+-------------+-------------+-----------------+ <-- min LBFGS
  

--------------------------------------------------------------------------------
 LBFGS: starting iteration         2 with trial guess (lambda=  0.668459)
--------------------------------------------------------------------------------
 
+---------------- MEMORY AND SCRATCH DISK ESTIMATES PER PROCESS --------------+
|                                                     Memory          Disk    |
| Model and support data                              174.8 MB         0.0 MB |
| Electronic energy minimisation requirements         141.4 MB         0.0 MB |
| Geometry minimisation requirements                  195.5 MB         0.0 MB |
|                                               ----------------------------- |
| Approx. total storage required per process          511.6 MB         0.0 MB |
|                                                                             |
| Requirements will fluctuate during execution and may exceed these estimates |
+-----------------------------------------------------------------------------+
 

                           -------------------------------
                                      Unit Cell
                           -------------------------------
        Real Lattice(A)              Reciprocal Lattice(1/A)
     3.1511363     0.0000000     0.0000000        1.993942735   0.000000000  -0.000000000
    -0.0000000     9.3205990     0.0061016       -0.000000000   0.674117901   0.000441221
     0.0000000    -0.0020483     3.1295091       -0.000000000  -0.001314322   2.007721444

                       Lattice parameters(A)       Cell Angles
                    a =      3.151136          alpha =   89.999993
                    b =      9.320601          beta  =   90.000000
                    c =      3.129510          gamma =   90.000000

                Current cell volume =            91.915218 A**3

                           -------------------------------
                                     Cell Contents
                           -------------------------------

            xxxxxxxxxxxxxxxxxxxxxxxxxxxxxxxxxxxxxxxxxxxxxxxxxxxxxxxxxxxxxxxxx
            x  Element         Atom        Fractional coordinates of atoms  x
            x                 Number           u          v          w      x
            x---------------------------------------------------------------x
            x  H                 1        -0.000000   0.027245   0.077777   x
            x  H                 2        -0.000000   0.139422   0.577777   x
            x  H                 3         0.000000   0.193912   0.422222   x
            x  H                 4         0.500000   0.193912   0.077778   x
            x  H                 5         0.500000   0.139422  -0.077778   x
            x  H                 6         0.500000   0.027245   0.422222   x
            x  H                 7         0.500000   0.306089   0.577778   x
            x  H                 8         0.500000   0.360578   0.422223   x
            x  H                 9         0.500000   0.472755   0.922222   x
            x  H                10         0.500000   0.806089   0.922222   x
            x  H                11         0.500000   0.860578   1.077778   x
            x  H                12         0.500000   0.972756   0.577777   x
            x  H                13         0.500000   0.693911   0.422222   x
            x  H                14         0.500000   0.639422   0.577778   x
            x  H                15         0.500000   0.527245   0.077777   x
            x  H                16        -0.000000   0.693912   0.077777   x
            x  H                17         0.000000   0.639422  -0.077777   x
            x  H                18         0.000000   0.527245   0.422223   x
            x  H                19        -0.000000   0.806089   0.577777   x
            x  H                20         0.000000   0.860578   0.422223   x
            x  H                21         0.000000   0.972755   0.922223   x
            x  H                22         0.000000   0.306088   0.922222   x
            x  H                23        -0.000000   0.360578   1.077777   x
            x  H                24        -0.000000   0.472755   0.577778   x
            xxxxxxxxxxxxxxxxxxxxxxxxxxxxxxxxxxxxxxxxxxxxxxxxxxxxxxxxxxxxxxxxx


------------------------------------------------------------------------ <-- SCF
SCF loop      Energy                           Energy gain       Timer   <-- SCF
                                               per atom          (sec)   <-- SCF
------------------------------------------------------------------------ <-- SCF
Initial  -3.71998062E+002                                       1222.73  <-- SCF
      1  -3.75169476E+002                    1.32142254E-001    1251.16  <-- SCF
      2  -3.75177069E+002                    3.16368890E-004    1282.59  <-- SCF
      3  -3.74843723E+002                   -1.38894027E-002    1313.42  <-- SCF
      4  -3.74832955E+002                   -4.48671872E-004    1345.01  <-- SCF
      5  -3.74833277E+002                    1.34188739E-005    1375.84  <-- SCF
      6  -3.74833319E+002                    1.76618339E-006    1406.68  <-- SCF
      7  -3.74833320E+002                    1.33576320E-008    1437.53  <-- SCF
      8  -3.74833320E+002                    1.28218874E-009    1467.93  <-- SCF
      9  -3.74833320E+002                    1.37378156E-011    1489.64  <-- SCF
     10  -3.74833320E+002                    1.13793664E-012    1511.32  <-- SCF
     11  -3.74833320E+002                    1.18828782E-013    1533.13  <-- SCF
------------------------------------------------------------------------ <-- SCF
 
Final energy =  -374.8333195818     eV
(energy not corrected for finite basis set)
 

 ************************************** Forces **************************************
 *                                                                                  *
 *                           Cartesian components (eV/A)                            *
 * -------------------------------------------------------------------------------- *
 *                         x                    y                    z              *
 *                                                                                  *
 * H               1     -0.00000              1.04304              1.00161         *
 * H               2     -0.00000             -1.04429              1.00020         *
 * H               3      0.00000              1.04429             -1.00020         *
 * H               4      0.00000              1.04298              1.00157         *
 * H               5     -0.00000             -1.04298             -1.00157         *
 * H               6     -0.00000              1.04447             -1.00038         *
 * H               7      0.00000             -1.04446              1.00037         *
 * H               8     -0.00000              1.04446             -1.00037         *
 * H               9     -0.00000             -1.04299             -1.00158         *
 * H              10     -0.00000             -1.04299             -1.00158         *
 * H              11      0.00000              1.04299              1.00158         *
 * H              12      0.00000             -1.04447              1.00038         *
 * H              13     -0.00000              1.04439             -1.00030         *
 * H              14      0.00000             -1.04438              1.00030         *
 * H              15      0.00000              1.04299              1.00158         *
 * H              16     -0.00000              1.04297              1.00155         *
 * H              17      0.00000             -1.04297             -1.00155         *
 * H              18      0.00000              1.04428             -1.00019         *
 * H              19     -0.00000             -1.04438              1.00028         *
 * H              20      0.00000              1.04438             -1.00028         *
 * H              21      0.00000             -1.04304             -1.00161         *
 * H              22      0.00000             -1.04297             -1.00156         *
 * H              23     -0.00000              1.04297              1.00156         *
 * H              24     -0.00000             -1.04428              1.00019         *
 *                                                                                  *
 ************************************************************************************

 ***************** Stress Tensor *****************
 *                                               *
 *          Cartesian components (GPa)           *
 * --------------------------------------------- *
 *             x             y             z     *
 *                                               *
 *  x    -24.826514     -0.000000     -0.000000  *
 *  y     -0.000000    -36.068728     -0.000176  *
 *  z     -0.000000     -0.000176    -35.203553  *
 *                                               *
 *  Pressure:   32.0329                          *
 *                                               *
 *************************************************
  
 +------------+-------------+-------------+-----------------+ <-- min LBFGS
 |    Step    |   lambda    |   F.delta'  |    enthalpy     | <-- min LBFGS
 +------------+-------------+-------------+-----------------+ <-- min LBFGS
 |  previous  |    0.000000 |    0.241485 |     -357.928476 | <-- min LBFGS
 | trial step |    0.668459 |   -0.634434 |     -357.622629 | <-- min LBFGS
 +------------+-------------+-------------+-----------------+ <-- min LBFGS
  

--------------------------------------------------------------------------------
 LBFGS: improving iteration         2 with line minimization (lambda=  0.184290)
--------------------------------------------------------------------------------

                           -------------------------------
                                      Unit Cell
                           -------------------------------
        Real Lattice(A)              Reciprocal Lattice(1/A)
     3.0816450     0.0000000     0.0000000        2.038906267   0.000000000  -0.000000000
    -0.0000000     9.1289557     0.0059758       -0.000000000   0.688269591   0.000450510
     0.0000000    -0.0020061     3.0647904       -0.000000000  -0.001341996   2.050118198

                       Lattice parameters(A)       Cell Angles
                    a =      3.081645          alpha =   89.999998
                    b =      9.128958          beta  =   90.000000
                    c =      3.064791          gamma =   90.000000

                Current cell volume =            86.219336 A**3

                           -------------------------------
                                     Cell Contents
                           -------------------------------

            xxxxxxxxxxxxxxxxxxxxxxxxxxxxxxxxxxxxxxxxxxxxxxxxxxxxxxxxxxxxxxxxx
            x  Element         Atom        Fractional coordinates of atoms  x
            x                 Number           u          v          w      x
            x---------------------------------------------------------------x
            x  H                 1        -0.000000   0.029282   0.083590   x
            x  H                 2        -0.000000   0.137385   0.583590   x
            x  H                 3         0.000000   0.195949   0.416409   x
            x  H                 4         0.500000   0.195948   0.083591   x
            x  H                 5         0.500000   0.137385  -0.083591   x
            x  H                 6         0.500000   0.029282   0.416409   x
            x  H                 7         0.500000   0.304052   0.583591   x
            x  H                 8         0.500000   0.362615   0.416409   x
            x  H                 9         0.500000   0.470718   0.916409   x
            x  H                10         0.500000   0.804052   0.916409   x
            x  H                11         0.500000   0.862615   1.083591   x
            x  H                12         0.500000   0.970718   0.583591   x
            x  H                13         0.500000   0.695948   0.416409   x
            x  H                14         0.500000   0.637385   0.583591   x
            x  H                15         0.500000   0.529282   0.083591   x
            x  H                16        -0.000000   0.695948   0.083590   x
            x  H                17         0.000000   0.637385  -0.083590   x
            x  H                18         0.000000   0.529282   0.416409   x
            x  H                19        -0.000000   0.804051   0.583590   x
            x  H                20         0.000000   0.862615   0.416410   x
            x  H                21         0.000000   0.970718   0.916410   x
            x  H                22         0.000000   0.304051   0.916409   x
            x  H                23        -0.000000   0.362615   1.083591   x
            x  H                24        -0.000000   0.470718   0.583591   x
            xxxxxxxxxxxxxxxxxxxxxxxxxxxxxxxxxxxxxxxxxxxxxxxxxxxxxxxxxxxxxxxxx


------------------------------------------------------------------------ <-- SCF
SCF loop      Energy                           Energy gain       Timer   <-- SCF
                                               per atom          (sec)   <-- SCF
------------------------------------------------------------------------ <-- SCF
Initial  -3.72522892E+002                                       1600.15  <-- SCF
      1  -3.74331616E+002                    7.53634909E-002    1627.21  <-- SCF
      2  -3.74335446E+002                    1.59591768E-004    1657.45  <-- SCF
      3  -3.74149280E+002                   -7.75691520E-003    1686.81  <-- SCF
      4  -3.74143436E+002                   -2.43506472E-004    1716.17  <-- SCF
      5  -3.74143550E+002                    4.75763046E-006    1746.03  <-- SCF
      6  -3.74143564E+002                    5.57787731E-007    1775.37  <-- SCF
      7  -3.74143564E+002                    3.71875278E-009    1804.68  <-- SCF
      8  -3.74143564E+002                    4.18426352E-010    1832.03  <-- SCF
      9  -3.74143564E+002                    3.55076513E-012    1852.75  <-- SCF
     10  -3.74143564E+002                    6.04214146E-013    1873.26  <-- SCF
------------------------------------------------------------------------ <-- SCF
 
Final energy =  -374.1435638450     eV
(energy not corrected for finite basis set)
 

 ************************************** Forces **************************************
 *                                                                                  *
 *                           Cartesian components (eV/A)                            *
 * -------------------------------------------------------------------------------- *
 *                         x                    y                    z              *
 *                                                                                  *
 * H               1     -0.00000             -0.03415             -0.03252         *
 * H               2     -0.00000              0.03418             -0.03247         *
 * H               3      0.00000             -0.03419              0.03247         *
 * H               4      0.00000             -0.03414             -0.03252         *
 * H               5     -0.00000              0.03414              0.03252         *
 * H               6     -0.00000             -0.03419              0.03247         *
 * H               7      0.00000              0.03419             -0.03247         *
 * H               8     -0.00000             -0.03419              0.03247         *
 * H               9     -0.00000              0.03414              0.03252         *
 * H              10     -0.00000              0.03414              0.03251         *
 * H              11      0.00000             -0.03414             -0.03252         *
 * H              12      0.00000              0.03419             -0.03247         *
 * H              13     -0.00000             -0.03419              0.03247         *
 * H              14      0.00000              0.03419             -0.03247         *
 * H              15      0.00000             -0.03414             -0.03251         *
 * H              16     -0.00000             -0.03414             -0.03251         *
 * H              17      0.00000              0.03414              0.03251         *
 * H              18      0.00000             -0.03418              0.03247         *
 * H              19     -0.00000              0.03419             -0.03247         *
 * H              20      0.00000             -0.03419              0.03247         *
 * H              21      0.00000              0.03415              0.03251         *
 * H              22      0.00000              0.03414              0.03251         *
 * H              23     -0.00000             -0.03414             -0.03251         *
 * H              24     -0.00000              0.03418             -0.03247         *
 *                                                                                  *
 ************************************************************************************

 ***************** Stress Tensor *****************
 *                                               *
 *          Cartesian components (GPa)           *
 * --------------------------------------------- *
 *             x             y             z     *
 *                                               *
 *  x    -30.751802      0.000000     -0.000000  *
 *  y      0.000000    -30.323129      0.000027  *
 *  z     -0.000000      0.000027    -30.372076  *
 *                                               *
 *  Pressure:   30.4823                          *
 *                                               *
 *************************************************
  
 +------------+-------------+-------------+-----------------+ <-- min LBFGS
 |    Step    |   lambda    |   F.delta'  |    enthalpy     | <-- min LBFGS
 +------------+-------------+-------------+-----------------+ <-- min LBFGS
 |  previous  |    0.000000 |    0.241485 |     -357.928476 | <-- min LBFGS
 | trial step |    0.668459 |   -0.634434 |     -357.622629 | <-- min LBFGS
 |  line step |    0.184290 |    0.034656 |     -357.999401 | <-- min LBFGS
 +------------+-------------+-------------+-----------------+ <-- min LBFGS
  
 LBFGS: finished iteration     2 with enthalpy= -3.57999401E+002 eV
  
 +-----------+-----------------+-----------------+------------+-----+ <-- LBFGS
 | Parameter |      value      |    tolerance    |    units   | OK? | <-- LBFGS
 +-----------+-----------------+-----------------+------------+-----+ <-- LBFGS
 |  dE/ion   |   2.955202E-003 |   1.000000E-009 |         eV | No  | <-- LBFGS
 |  |F|max   |   4.715542E-002 |   1.000000E-005 |       eV/A | No  | <-- LBFGS
 |  |dR|max  |   9.803332E-003 |   1.000000E-005 |          A | No  | <-- LBFGS
 |   Smax    |   7.518022E-001 |   1.000000E-005 |        GPa | No  | <-- LBFGS
 +-----------+-----------------+-----------------+------------+-----+ <-- LBFGS
  

================================================================================
 Starting LBFGS iteration          3 ...
================================================================================
  
 +------------+-------------+-------------+-----------------+ <-- min LBFGS
 |    Step    |   lambda    |   F.delta'  |    enthalpy     | <-- min LBFGS
 +------------+-------------+-------------+-----------------+ <-- min LBFGS
 |  previous  |    0.000000 |    0.028577 |     -357.999401 | <-- min LBFGS
 +------------+-------------+-------------+-----------------+ <-- min LBFGS
  

--------------------------------------------------------------------------------
 LBFGS: starting iteration         3 with trial guess (lambda=  1.000000)
--------------------------------------------------------------------------------

                           -------------------------------
                                      Unit Cell
                           -------------------------------
        Real Lattice(A)              Reciprocal Lattice(1/A)
     3.0899310     0.0000000     0.0000000        2.033438717   0.000000000  -0.000000000
    -0.0000000     9.1526072     0.0059912       -0.000000000   0.686491018   0.000449349
     0.0000000    -0.0020113     3.0727912       -0.000000000  -0.001338494   2.044780197

                       Lattice parameters(A)       Cell Angles
                    a =      3.089931          alpha =   89.999998
                    b =      9.152609          beta  =   90.000000
                    c =      3.072792          gamma =   90.000000

                Current cell volume =            86.901414 A**3

                           -------------------------------
                                     Cell Contents
                           -------------------------------

            xxxxxxxxxxxxxxxxxxxxxxxxxxxxxxxxxxxxxxxxxxxxxxxxxxxxxxxxxxxxxxxxx
            x  Element         Atom        Fractional coordinates of atoms  x
            x                 Number           u          v          w      x
            x---------------------------------------------------------------x
            x  H                 1        -0.000000   0.029148   0.083218   x
            x  H                 2        -0.000000   0.137519   0.583218   x
            x  H                 3         0.000000   0.195815   0.416782   x
            x  H                 4         0.500000   0.195815   0.083219   x
            x  H                 5         0.500000   0.137519  -0.083219   x
            x  H                 6         0.500000   0.029148   0.416781   x
            x  H                 7         0.500000   0.304185   0.583219   x
            x  H                 8         0.500000   0.362481   0.416781   x
            x  H                 9         0.500000   0.470852   0.916781   x
            x  H                10         0.500000   0.804185   0.916781   x
            x  H                11         0.500000   0.862481   1.083219   x
            x  H                12         0.500000   0.970852   0.583219   x
            x  H                13         0.500000   0.695815   0.416781   x
            x  H                14         0.500000   0.637519   0.583219   x
            x  H                15         0.500000   0.529148   0.083219   x
            x  H                16        -0.000000   0.695815   0.083218   x
            x  H                17         0.000000   0.637518  -0.083218   x
            x  H                18         0.000000   0.529148   0.416782   x
            x  H                19        -0.000000   0.804185   0.583218   x
            x  H                20         0.000000   0.862482   0.416782   x
            x  H                21         0.000000   0.970852   0.916782   x
            x  H                22         0.000000   0.304185   0.916782   x
            x  H                23        -0.000000   0.362481   1.083218   x
            x  H                24        -0.000000   0.470852   0.583218   x
            xxxxxxxxxxxxxxxxxxxxxxxxxxxxxxxxxxxxxxxxxxxxxxxxxxxxxxxxxxxxxxxxx


------------------------------------------------------------------------ <-- SCF
SCF loop      Energy                           Energy gain       Timer   <-- SCF
                                               per atom          (sec)   <-- SCF
------------------------------------------------------------------------ <-- SCF
Initial  -3.74264500E+002                                       1937.29  <-- SCF
      1  -3.74274319E+002                    4.09106996E-004    1965.94  <-- SCF
      2  -3.74274342E+002                    9.90496924E-007    1996.91  <-- SCF
      3  -3.74273281E+002                   -4.42169390E-005    2027.97  <-- SCF
      4  -3.74273245E+002                   -1.49465371E-006    2059.06  <-- SCF
      5  -3.74273246E+002                    3.52326171E-008    2090.15  <-- SCF
      6  -3.74273246E+002                    4.41226776E-009    2121.19  <-- SCF
      7  -3.74273246E+002                    2.10830456E-011    2143.12  <-- SCF
      8  -3.74273246E+002                    2.43498301E-012    2165.05  <-- SCF
      9  -3.74273246E+002                   -8.25759333E-014    2187.02  <-- SCF
------------------------------------------------------------------------ <-- SCF
 
Final energy =  -374.2732463717     eV
(energy not corrected for finite basis set)
 

 ************************************** Forces **************************************
 *                                                                                  *
 *                           Cartesian components (eV/A)                            *
 * -------------------------------------------------------------------------------- *
 *                         x                    y                    z              *
 *                                                                                  *
 * H               1     -0.00000              0.00488              0.00495         *
 * H               2     -0.00000             -0.00488              0.00494         *
 * H               3      0.00000              0.00488             -0.00494         *
 * H               4      0.00000              0.00489              0.00496         *
 * H               5     -0.00000             -0.00489             -0.00496         *
 * H               6     -0.00000              0.00489             -0.00494         *
 * H               7      0.00000             -0.00489              0.00494         *
 * H               8     -0.00000              0.00489             -0.00494         *
 * H               9     -0.00000             -0.00488             -0.00495         *
 * H              10     -0.00000             -0.00489             -0.00495         *
 * H              11      0.00000              0.00489              0.00495         *
 * H              12      0.00000             -0.00489              0.00494         *
 * H              13     -0.00000              0.00488             -0.00494         *
 * H              14      0.00000             -0.00488              0.00494         *
 * H              15      0.00000              0.00488              0.00495         *
 * H              16     -0.00000              0.00487              0.00494         *
 * H              17      0.00000             -0.00487             -0.00494         *
 * H              18      0.00000              0.00487             -0.00493         *
 * H              19     -0.00000             -0.00488              0.00494         *
 * H              20      0.00000              0.00488             -0.00494         *
 * H              21      0.00000             -0.00488             -0.00495         *
 * H              22      0.00000             -0.00487             -0.00494         *
 * H              23     -0.00000              0.00487              0.00494         *
 * H              24     -0.00000             -0.00487              0.00493         *
 *                                                                                  *
 ************************************************************************************

 ***************** Stress Tensor *****************
 *                                               *
 *          Cartesian components (GPa)           *
 * --------------------------------------------- *
 *             x             y             z     *
 *                                               *
 *  x    -30.027517     -0.000000      0.000000  *
 *  y     -0.000000    -30.072344     -0.000023  *
 *  z      0.000000     -0.000023    -30.084918  *
 *                                               *
 *  Pressure:   30.0616                          *
 *                                               *
 *************************************************
  
 +------------+-------------+-------------+-----------------+ <-- min LBFGS
 |    Step    |   lambda    |   F.delta'  |    enthalpy     | <-- min LBFGS
 +------------+-------------+-------------+-----------------+ <-- min LBFGS
 |  previous  |    0.000000 |    0.028577 |     -357.999401 | <-- min LBFGS
 | trial step |    1.000000 |   -0.000129 |     -358.001367 | <-- min LBFGS
 +------------+-------------+-------------+-----------------+ <-- min LBFGS
  
 LBFGS: finished iteration     3 with enthalpy= -3.58001367E+002 eV
  
 +-----------+-----------------+-----------------+------------+-----+ <-- LBFGS
 | Parameter |      value      |    tolerance    |    units   | OK? | <-- LBFGS
 +-----------+-----------------+-----------------+------------+-----+ <-- LBFGS
 |  dE/ion   |   8.194088E-005 |   1.000000E-009 |         eV | No  | <-- LBFGS
 |  |F|max   |   6.964153E-003 |   1.000000E-005 |       eV/A | No  | <-- LBFGS
 |  |dR|max  |   1.675763E-003 |   1.000000E-005 |          A | No  | <-- LBFGS
 |   Smax    |   8.491756E-002 |   1.000000E-005 |        GPa | No  | <-- LBFGS
 +-----------+-----------------+-----------------+------------+-----+ <-- LBFGS
  

================================================================================
 Starting LBFGS iteration          4 ...
================================================================================
  
 +------------+-------------+-------------+-----------------+ <-- min LBFGS
 |    Step    |   lambda    |   F.delta'  |    enthalpy     | <-- min LBFGS
 +------------+-------------+-------------+-----------------+ <-- min LBFGS
 |  previous  |    0.000000 |    0.003816 |     -358.001367 | <-- min LBFGS
 +------------+-------------+-------------+-----------------+ <-- min LBFGS
  

--------------------------------------------------------------------------------
 LBFGS: starting iteration         4 with trial guess (lambda=  1.000000)
--------------------------------------------------------------------------------

                           -------------------------------
                                      Unit Cell
                           -------------------------------
        Real Lattice(A)              Reciprocal Lattice(1/A)
     3.0902421     0.0000000     0.0000000        2.033233979   0.000000000  -0.000000000
    -0.0000000     9.1534500     0.0059920       -0.000000000   0.686427807   0.000449292
     0.0000000    -0.0020115     3.0731103       -0.000000000  -0.001338401   2.044567908

                       Lattice parameters(A)       Cell Angles
                    a =      3.090242          alpha =   89.999996
                    b =      9.153452          beta  =   90.000000
                    c =      3.073111          gamma =   90.000000

                Current cell volume =            86.927192 A**3

                           -------------------------------
                                     Cell Contents
                           -------------------------------

            xxxxxxxxxxxxxxxxxxxxxxxxxxxxxxxxxxxxxxxxxxxxxxxxxxxxxxxxxxxxxxxxx
            x  Element         Atom        Fractional coordinates of atoms  x
            x                 Number           u          v          w      x
            x---------------------------------------------------------------x
            x  H                 1        -0.000000   0.029152   0.083238   x
            x  H                 2        -0.000000   0.137515   0.583237   x
            x  H                 3         0.000000   0.195818   0.416762   x
            x  H                 4         0.500000   0.195818   0.083239   x
            x  H                 5         0.500000   0.137515  -0.083239   x
            x  H                 6         0.500000   0.029152   0.416761   x
            x  H                 7         0.500000   0.304182   0.583238   x
            x  H                 8         0.500000   0.362485   0.416762   x
            x  H                 9         0.500000   0.470848   0.916762   x
            x  H                10         0.500000   0.804182   0.916761   x
[...]
    -0.0000000    -0.0020118     3.0734557        0.000000000  -0.001338146   2.044338110

                       Lattice parameters(A)       Cell Angles
                    a =      3.090551          alpha =   90.000001
                    b =      9.151603          beta  =   90.000000
                    c =      3.073456          gamma =   90.000000

                Current cell volume =            86.928077 A**3

                           -------------------------------
                                     Cell Contents
                           -------------------------------

            xxxxxxxxxxxxxxxxxxxxxxxxxxxxxxxxxxxxxxxxxxxxxxxxxxxxxxxxxxxxxxxxx
            x  Element         Atom        Fractional coordinates of atoms  x
            x                 Number           u          v          w      x
            x---------------------------------------------------------------x
            x  H                 1        -0.000000   0.029127   0.083326   x
            x  H                 2        -0.000000   0.137540   0.583326   x
            x  H                 3         0.000000   0.195793   0.416674   x
            x  H                 4         0.500000   0.195793   0.083326   x
            x  H                 5         0.500000   0.137540  -0.083326   x
            x  H                 6         0.500000   0.029127   0.416674   x
            x  H                 7         0.500000   0.304207   0.583326   x
            x  H                 8         0.500000   0.362460   0.416674   x
            x  H                 9         0.500000   0.470873   0.916674   x
            x  H                10         0.500000   0.804207   0.916674   x
            x  H                11         0.500000   0.862460   1.083326   x
            x  H                12         0.500000   0.970873   0.583326   x
            x  H                13         0.500000   0.695793   0.416674   x
            x  H                14         0.500000   0.637540   0.583326   x
            x  H                15         0.500000   0.529127   0.083326   x
            x  H                16        -0.000000   0.695793   0.083326   x
            x  H                17         0.000000   0.637540  -0.083326   x
            x  H                18         0.000000   0.529127   0.416675   x
            x  H                19        -0.000000   0.804207   0.583326   x
            x  H                20         0.000000   0.862460   0.416674   x
            x  H                21         0.000000   0.970873   0.916674   x
            x  H                22         0.000000   0.304207   0.916674   x
            x  H                23        -0.000000   0.362460   1.083325   x
            x  H                24        -0.000000   0.470873   0.583326   x
            xxxxxxxxxxxxxxxxxxxxxxxxxxxxxxxxxxxxxxxxxxxxxxxxxxxxxxxxxxxxxxxxx


 LBFGS: Final Enthalpy     = -3.58001380E+002 eV
 LBFGS: Final <frequency>  =     627.32826 cm-1
 LBFGS: Final bulk modulus =      85.37405 GPa

 ************************************** Forces **************************************
 *                                                                                  *
 *                           Cartesian components (eV/A)                            *
 * -------------------------------------------------------------------------------- *
 *                         x                    y                    z              *
 *                                                                                  *
 * H               1     -0.00000              0.00000              0.00000         *
 * H               2     -0.00000             -0.00000              0.00000         *
 * H               3      0.00000             -0.00000             -0.00000         *
 * H               4      0.00000             -0.00000             -0.00000         *
 * H               5     -0.00000              0.00000              0.00000         *
 * H               6     -0.00000             -0.00000              0.00000         *
 * H               7      0.00000              0.00000             -0.00000         *
 * H               8     -0.00000             -0.00000              0.00000         *
 * H               9     -0.00000             -0.00000             -0.00000         *
 * H              10     -0.00000              0.00000              0.00000         *
 * H              11      0.00000             -0.00000             -0.00000         *
 * H              12      0.00000              0.00000             -0.00000         *
 * H              13     -0.00000              0.00000             -0.00000         *
 * H              14      0.00000             -0.00000              0.00000         *
 * H              15      0.00000              0.00000              0.00000         *
 * H              16     -0.00000             -0.00000             -0.00000         *
 * H              17      0.00000              0.00000              0.00000         *
 * H              18      0.00000             -0.00000              0.00000         *
 * H              19     -0.00000             -0.00000              0.00000         *
 * H              20      0.00000              0.00000              0.00000         *
 * H              21      0.00000             -0.00000             -0.00000         *
 * H              22      0.00000             -0.00000              0.00000         *
 * H              23     -0.00000              0.00000              0.00000         *
 * H              24     -0.00000              0.00000             -0.00000         *
 *                                                                                  *
 ************************************************************************************

 ***************** Stress Tensor *****************
 *                                               *
 *          Cartesian components (GPa)           *
 * --------------------------------------------- *
 *             x             y             z     *
 *                                               *
 *  x    -29.999991      0.000000     -0.000000  *
 *  y      0.000000    -30.000002     -0.000001  *
 *  z     -0.000000     -0.000001    -30.000009  *
 *                                               *
 *  Pressure:   30.0000                          *
 *                                               *
 *************************************************

 Pseudo atomic calculation performed for H 1s1

 Converged in 24 iterations to a total energy of -12.4866 eV

Charge spilling parameter for spin component 1 = 0.76%

            Orbital Populations       
     Ion    Atom   Orbital             Charge
  -------------------------------------------
      H     1      S                    1.000
      H     2      S                    1.000
      H     3      S                    1.000
      H     4      S                    1.000
      H     5      S                    1.000
      H     6      S                    1.000
      H     7      S                    1.000
      H     8      S                    1.000
      H     9      S                    1.000
      H    10      S                    1.000
      H    11      S                    1.000
      H    12      S                    1.000
      H    13      S                    1.000
      H    14      S                    1.000
      H    15      S                    1.000
      H    16      S                    1.000
      H    17      S                    1.000
      H    18      S                    1.000
      H    19      S                    1.000
      H    20      S                    1.000
      H    21      S                    1.000
      H    22      S                    1.000
      H    23      S                    1.000
      H    24      S                    1.000
  -------------------------------------------
                           Total:      24.000
  -------------------------------------------

     Atomic Populations (Mulliken)
     -----------------------------
Species          Ion     s      p      d      f     Total  Charge (e)
=====================================================================
  H               1     1.00   0.00   0.00   0.00   1.00     0.00
  H               2     1.00   0.00   0.00   0.00   1.00    -0.00
  H               3     1.00   0.00   0.00   0.00   1.00    -0.00
  H               4     1.00   0.00   0.00   0.00   1.00     0.00
  H               5     1.00   0.00   0.00   0.00   1.00     0.00
  H               6     1.00   0.00   0.00   0.00   1.00    -0.00
  H               7     1.00   0.00   0.00   0.00   1.00    -0.00
  H               8     1.00   0.00   0.00   0.00   1.00    -0.00
  H               9     1.00   0.00   0.00   0.00   1.00     0.00
  H              10     1.00   0.00   0.00   0.00   1.00     0.00
  H              11     1.00   0.00   0.00   0.00   1.00     0.00
  H              12     1.00   0.00   0.00   0.00   1.00    -0.00
  H              13     1.00   0.00   0.00   0.00   1.00    -0.00
  H              14     1.00   0.00   0.00   0.00   1.00    -0.00
  H              15     1.00   0.00   0.00   0.00   1.00     0.00
  H              16     1.00   0.00   0.00   0.00   1.00     0.00
  H              17     1.00   0.00   0.00   0.00   1.00     0.00
  H              18     1.00   0.00   0.00   0.00   1.00    -0.00
  H              19     1.00   0.00   0.00   0.00   1.00    -0.00
  H              20     1.00   0.00   0.00   0.00   1.00    -0.00
  H              21     1.00   0.00   0.00   0.00   1.00     0.00
  H              22     1.00   0.00   0.00   0.00   1.00     0.00
  H              23     1.00   0.00   0.00   0.00   1.00     0.00
  H              24     1.00   0.00   0.00   0.00   1.00    -0.00
=====================================================================

                 Bond                   Population      Length (A)
======================================================================
              H 13 -- H 14                   1.32        0.73929
              H 1  -- H 21                   1.32        0.73929
              H 9  -- H 15                   1.32        0.73929
              H 19 -- H 20                   1.32        0.73929
              H 22 -- H 23                   1.32        0.73929
              H 18 -- H 24                   1.32        0.73929
              H 2  -- H 3                    1.32        0.73929
              H 7  -- H 8                    1.32        0.73929
              H 10 -- H 11                   1.32        0.73929
              H 4  -- H 5                    1.32        0.73929
              H 16 -- H 17                   1.32        0.73929
              H 6  -- H 12                   1.32        0.73929
              H 17 -- H 18                  -0.11        1.82918
              H 14 -- H 15                  -0.11        1.82918
              H 23 -- H 24                  -0.11        1.82918
              H 8  -- H 9                   -0.11        1.82918
              H 16 -- H 19                  -0.11        1.82918
              H 10 -- H 13                  -0.11        1.82918
              H 3  -- H 22                  -0.11        1.82918
              H 20 -- H 21                  -0.11        1.82918
              H 4  -- H 7                   -0.11        1.82918
              H 11 -- H 12                  -0.11        1.82918
              H 5  -- H 6                   -0.11        1.82918
              H 1  -- H 2                   -0.11        1.82918
              H 9  -- H 14                  -0.10        1.83742
              H 17 -- H 24                  -0.10        1.83742
              H 13 -- H 15                  -0.10        1.83742
              H 16 -- H 18                  -0.10        1.83742
              H 16 -- H 20                  -0.10        1.83742
              H 11 -- H 13                  -0.10        1.83742
              H 7  -- H 9                   -0.10        1.83742
              H 22 -- H 24                  -0.10        1.83742
              H 6  -- H 11                  -0.10        1.83742
              H 8  -- H 15                  -0.10        1.83742
              H 10 -- H 14                  -0.10        1.83742
              H 17 -- H 19                  -0.10        1.83742
              H 2  -- H 22                  -0.10        1.83742
              H 18 -- H 23                  -0.10        1.83742
              H 5  -- H 7                   -0.10        1.83742
              H 4  -- H 8                   -0.10        1.83742
              H 10 -- H 12                  -0.10        1.83742
              H 1  -- H 20                  -0.10        1.83742
              H 3  -- H 23                  -0.10        1.83742
              H 5  -- H 12                  -0.10        1.83742
              H 19 -- H 21                  -0.10        1.83742
              H 4  -- H 6                   -0.10        1.83742
              H 1  -- H 3                   -0.10        1.83742
              H 2  -- H 21                  -0.10        1.83742
              H 11 -- H 20                  -0.17        1.85406
              H 1  -- H 6                   -0.17        1.85406
              H 7  -- H 22                  -0.17        1.85406
              H 3  -- H 4                   -0.17        1.85406
              H 12 -- H 21                  -0.17        1.85406
              H 2  -- H 5                   -0.17        1.85406
              H 14 -- H 17                  -0.17        1.85406
              H 10 -- H 19                  -0.17        1.85406
              H 9  -- H 24                  -0.17        1.85406
              H 13 -- H 16                  -0.17        1.85406
              H 15 -- H 18                  -0.17        1.85406
              H 8  -- H 23                  -0.17        1.85406
              H 14 -- H 18                  -0.10        1.90646
              H 15 -- H 17                  -0.10        1.90646
              H 8  -- H 24                  -0.10        1.90646
              H 13 -- H 19                  -0.10        1.90646
              H 9  -- H 23                  -0.10        1.90646
              H 10 -- H 16                  -0.10        1.90646
              H 3  -- H 7                   -0.10        1.90646
              H 4  -- H 22                  -0.10        1.90646
              H 11 -- H 21                  -0.10        1.90646
              H 1  -- H 5                   -0.10        1.90646
              H 12 -- H 20                  -0.10        1.90646
              H 2  -- H 6                   -0.10        1.90646
              H 13 -- H 18                  -0.09        2.17125
              H 9  -- H 17                  -0.09        2.17125
              H 15 -- H 16                  -0.09        2.17125
              H 14 -- H 24                  -0.09        2.17125
              H 11 -- H 16                  -0.09        2.17125
              H 13 -- H 20                  -0.09        2.17125
              H 7  -- H 24                  -0.09        2.17125
              H 15 -- H 23                  -0.09        2.17125
              H 14 -- H 19                  -0.09        2.17125
              H 9  -- H 22                  -0.09        2.17125
              H 8  -- H 18                  -0.09        2.17125
              H 10 -- H 17                  -0.09        2.17125
              H 2  -- H 7                   -0.09        2.17125
              H 3  -- H 8                   -0.09        2.17125
              H 5  -- H 22                  -0.09        2.17125
              H 10 -- H 21                  -0.09        2.17125
              H 6  -- H 20                  -0.09        2.17125
              H 4  -- H 23                  -0.09        2.17125
              H 1  -- H 11                  -0.09        2.17125
              H 12 -- H 19                  -0.09        2.17125
              H 2  -- H 12                  -0.09        2.17125
              H 5  -- H 21                  -0.09        2.17125
              H 1  -- H 4                   -0.09        2.17125
              H 3  -- H 6                   -0.09        2.17125
              H 6  -- H 21                  -0.18        2.24357
              H 11 -- H 19                  -0.18        2.24357
              H 7  -- H 23                  -0.18        2.24357
              H 10 -- H 20                  -0.18        2.24357
              H 1  -- H 12                  -0.18        2.24357
              H 8  -- H 22                  -0.18        2.24357
              H 9  -- H 18                  -0.18        2.24357
              H 13 -- H 17                  -0.18        2.24357
              H 2  -- H 4                   -0.18        2.24357
              H 15 -- H 24                  -0.18        2.24357
              H 3  -- H 5                   -0.18        2.24357
              H 14 -- H 16                  -0.18        2.24357
              H 9  -- H 13                  -0.09        2.56874
              H 11 -- H 14                  -0.09        2.56874
              H 16 -- H 24                  -0.09        2.56874
              H 7  -- H 15                  -0.09        2.56874
              H 17 -- H 20                  -0.09        2.56874
              H 18 -- H 22                  -0.09        2.56875
              H 6  -- H 10                  -0.09        2.56875
              H 2  -- H 23                  -0.09        2.56875
              H 5  -- H 8                   -0.09        2.56875
              H 1  -- H 19                  -0.09        2.56875
              H 4  -- H 12                  -0.09        2.56875
              H 3  -- H 21                  -0.09        2.56875
              H 18 -- H 19                  -0.00        2.56900
              H 17 -- H 23                  -0.00        2.56900
              H 8  -- H 14                  -0.00        2.56900
              H 10 -- H 15                  -0.00        2.56900
              H 3  -- H 24                  -0.00        2.56900
              H 16 -- H 21                  -0.00        2.56900
              H 4  -- H 9                   -0.00        2.56900
              H 12 -- H 13                  -0.00        2.56900
              H 1  -- H 22                  -0.00        2.56900
              H 5  -- H 11                  -0.00        2.56900
              H 6  -- H 7                   -0.00        2.56900
              H 2  -- H 20                  -0.00        2.56900
              H 9  -- H 16                  -0.07        2.62434
              H 13 -- H 24                  -0.07        2.62434
              H 14 -- H 20                  -0.07        2.62434
              H 15 -- H 22                  -0.07        2.62434
              H 11 -- H 17                  -0.07        2.62434
              H 7  -- H 18                  -0.07        2.62434
              H 2  -- H 8                   -0.07        2.62434
              H 1  -- H 10                  -0.07        2.62434
              H 5  -- H 23                  -0.07        2.62434
              H 6  -- H 19                  -0.07        2.62434
              H 3  -- H 12                  -0.07        2.62434
              H 4  -- H 21                  -0.07        2.62434
======================================================================


Writing analysis data to Cmca-12.castep_bin

Writing model to Cmca-12.check
 
 A BibTeX formatted list of references used in this run has been written to 
 Cmca-12.bib
 
Initialisation time =      5.87 s
Calculation time    =   9589.47 s
Finalisation time   =     11.37 s
Total time          =   9606.70 s
Peak Memory Use     = 808520 kB
  
Overall parallel efficiency rating: Excellent (97%)                             
  
Data was distributed by:-
k-point (16-way); efficiency rating: Excellent (97%)                            
