 +-------------------------------------------------+
 |                                                 |
 |      CCC   AA    SSS  TTTTT  EEEEE  PPPP        |
 |     C     A  A  S       T    E      P   P       |
 |     C     AAAA   SS     T    EEE    PPPP        |
 |     C     A  A     S    T    E      P           |
 |      CCC  A  A  SSS     T    EEEEE  P           |
 |                                                 |
 +-------------------------------------------------+
 |                                                 |
 | Welcome to Academic Release CASTEP version 18.1 |          
 | Ab Initio Total Energy Program                  |
 |                                                 |
 | Authors:                                        |
 | M. Segall, M. Probert, C. Pickard, P. Hasnip,   |
 | S. Clark, K. Refson, J. R. Yates, M. Payne      |
 |                                                 |
 | Contributors:                                   |
 | P. Lindan, P. Haynes, J. White, V. Milman,      |
 | N. Govind, M. Gibson, P. Tulip, V. Cocula,      |
 | B. Montanari, D. Quigley, M. Glover,            |
 | L. Bernasconi, A. Perlov, M. Plummer,           |
 | E. McNellis, J. Meyer, J. Gale, D. Jochym       |
 | J. Aarons, B. Walker, R. Gillen, D. Jones       |
 | T. Green, I. J. Bush, C. J. Armstrong,          |
 | E. J. Higgins, E. L. Brown, M. S. McFly,        |
 | J. Wilkins, B-C. Shih, P. J. P. Byrne           |
 |                                                 |
 | Copyright (c) 2000 - 2017                       |
 |                                                 |
 |     Distributed under the terms of an           |
 |     Agreement between the United Kingdom        |
 |     Car-Parrinello (UKCP) Consortium,           |
 |     Daresbury Laboratory and Accelrys, Inc.     |
 |                                                 |
 | Please cite                                     |
 |                                                 |
 |     "First principles methods using CASTEP"     |
 |                                                 |
 |         Zeitschrift fuer Kristallographie       |
 |           220(5-6) pp. 567-570 (2005)           |
 |                                                 |
 | S. J. Clark, M. D. Segall, C. J. Pickard,       |
 | P. J. Hasnip, M. J. Probert, K. Refson,         |
 | M. C. Payne                                     |
 |                                                 |
 |       in all publications arising from          |
 |              your use of CASTEP                 |
 |                                                 |
 +-------------------------------------------------+


 Compiled for linux_x86_64_gfortran4.8 on Thu, 19 Jul 2018 15:42:32 +0100
 from code version 70483bd0ad64+  Sun, 10 Dec 2017 12:18:29 +0000
 Compiler: GNU Fortran 4.8.5; Optimisation: fast
 MATHLIBS: Intel MKL(2018.0.0) (LAPACK version 3.7.0)
 FFT Lib : mkl
 Fundamental constants values: CODATA 2014

 Run started: Thu, 13 Aug 2020 21:41:12 +0100

 Atomic calculation performed for H: 1s1

 Converged in 41 iterations to an ae energy of -12.488 eV

   ============================================================                
   | Pseudopotential Report - Date of generation 13-08-2020   |                
   ------------------------------------------------------------                
   | Element: H Ionic charge:  1.00 Level of theory: PBE      |                
   | Atomic Solver: Koelling-Harmon                           |                
   |                                                          |                
   |               Reference Electronic Structure             |                
   |         Orbital         Occupation         Energy        |                
   |            1s              1.000           -0.239        |                
   |                                                          |                
   |                 Pseudopotential Definition               |                
   |        Beta     l      e      Rc     scheme   norm       |                
   |          1      0   -0.239   0.599     qc      0         |                
   |          2      0    0.250   0.599     qc      0         |                
   |         loc     1    0.000   0.599     pn      0         |                
   |                                                          |                
   | Augmentation charge Rinner = 0.421                       |                
   | No partial core correction                               |                
   ------------------------------------------------------------                
   | "1|0.6|13|15|17|10(qc=8)"                                |                
   ------------------------------------------------------------                
   |      Author: Chris J. Pickard, Cambridge University      |                
   ============================================================                

 Pseudo atomic calculation performed for H 1s1

 Converged in 24 iterations to a total energy of -12.4866 eV

 Calculation parallelised over 16 processes.
 Data is distributed by k-point(16-way)

 ************************************ Title ************************************
 

 ***************************** General Parameters ******************************
  
 output verbosity                               : normal  (1)
 write checkpoint data to                       : Cmca-12.check
 type of calculation                            : geometry optimization
 stress calculation                             : on
 density difference calculation                 : off
 electron localisation func (ELF) calculation   : off
 Hirshfeld analysis                             : off
 unlimited duration calculation
 timing information                             : on
 memory usage estimate                          : on
 write extra output files                       : on
 write final potential to formatted file        : off
 write final density to formatted file          : off
 write structure in CELL formatted file         : on
 write BibTeX reference list                    : on
 write OTFG pseudopotential files               : on
 write electrostatic potential file             : on
 write bands file                               : on
 checkpoint writing                             : both castep_bin and check files
  
 output         length unit                     : A
 output           mass unit                     : amu
 output           time unit                     : ps
 output         charge unit                     : e
 output           spin unit                     : hbar/2
 output         energy unit                     : eV
 output          force unit                     : eV/A
 output       velocity unit                     : A/ps
 output       pressure unit                     : GPa
 output     inv_length unit                     : 1/A
 output      frequency unit                     : cm-1
 output force constant unit                     : eV/A**2
 output         volume unit                     : A**3
 output   IR intensity unit                     : (D/A)**2/amu
 output         dipole unit                     : D
 output         efield unit                     : eV/A/e
 output        entropy unit                     : J/mol/K
  
 wavefunctions paging                           : none
 random number generator seed                   : randomised (214112756)
 data distribution                              : optimal for this architecture
 optimization strategy                          : maximize speed(+++)

 *********************** Exchange-Correlation Parameters ***********************
  
 using functional                               : Perdew Burke Ernzerhof
 relativistic treatment                         : Koelling-Harmon
 DFT+D: Semi-empirical dispersion correction    : off

 ************************* Pseudopotential Parameters **************************
  
 pseudopotential representation                 : reciprocal space
 <beta|phi> representation                      : reciprocal space
 spin-orbit coupling                            : off

 **************************** Basis Set Parameters *****************************
  
 plane wave basis set cut-off                   :  1200.0000   eV
 size of standard grid                          :     2.0000
 size of   fine   gmax                          :    35.4943   1/A
 finite basis set correction                    : automatic
 number of sample energies                      :          3
           sample  spacing                      :     5.0000   eV

 **************************** Electronic Parameters ****************************
  
 number of  electrons                           :  24.00    
 net charge of system                           :  0.000    
 treating system as non-spin-polarized
 number of bands                                :         12

 ********************* Electronic Minimization Parameters **********************
  
 Method: Treating system as non-metallic,
         and number of  SD  steps               :          1
         and number of  CG  steps               :          4
  
 total energy / atom convergence tol.           : 0.1000E-10   eV
 eigen-energy convergence tolerance             : 0.2000E-10   eV
 max force / atom convergence tol.              : ignored
 convergence tolerance window                   :          3   cycles
 max. number of SCF cycles                      :        100
 periodic dipole correction                     : NONE

 ************************** Density Mixing Parameters **************************
  
 density-mixing scheme                          : Broyden
 max. length of mixing history                  :         20
 charge density mixing amplitude                : 0.8000    
 cut-off energy for mixing                      :  1200.       eV

 *********************** Population Analysis Parameters ************************
  
 Population analysis with cutoff                :  3.000       A
 Population analysis output                     : summary and pdos components

 ********************** Geometry Optimization Parameters ***********************
  
 optimization method                            : LBFGS
 max. no. of LBFGS updates                      : unbounded
 variable cell method                           : fixed basis quality
 max. number of steps                           :        200
 estimated bulk modulus                         :  500.0       GPa
 estimated <frequency>                          :  1668.       cm-1
 geom line minimiser                            : on
 with line minimiser tolerance                  :     0.4000
 total energy convergence tolerance             : 0.1000E-08   eV/atom
        max ionic |force| tolerance             : 0.1000E-04   eV/A
 max ionic |displacement| tolerance             : 0.1000E-04   A
   max |stress component| tolerance             : 0.1000E-04   GPa
 convergence tolerance window                   :          2   steps
 backup results every                           :      14400   seconds
 write geom trajectory file                     : on

 *******************************************************************************
  

                           -------------------------------
                                      Unit Cell
                           -------------------------------
        Real Lattice(A)                      Reciprocal Lattice(1/A)
     2.5986234     0.0000000    -0.0000000        2.417889939  -0.000000000   0.000000000
     0.0000000     4.8242351    -0.0000000       -0.000000000   1.302421033   0.000000000
    -0.0000000    -0.0000000     2.9062701        0.000000000   0.000000001   2.161941286

                       Lattice parameters(A)       Cell Angles
                    a =      2.598623          alpha =   90.000000
                    b =      4.824235          beta  =   90.000000
                    c =      2.906270          gamma =   90.000000

                       Current cell volume =            36.434078       A**3
                                   density =             0.663954   AMU/A**3
                                           =             1.102522     g/cm^3

                           -------------------------------
                                     Cell Contents
                           -------------------------------
                         Total number of ions in cell =   24
                      Total number of species in cell =    1
                        Max number of any one species =   24

            xxxxxxxxxxxxxxxxxxxxxxxxxxxxxxxxxxxxxxxxxxxxxxxxxxxxxxxxxxxx
            x  Element    Atom        Fractional coordinates of atoms  x
            x            Number           u          v          w      x
            x----------------------------------------------------------x
            x  H            1        -0.000000   0.003015   0.132680   x 
            x  H            2         0.000000   0.132113   0.455113   x 
            x  H            3        -0.000000   0.265143   0.317836   x 
            x  H            4         0.500000   0.265143   0.182164   x 
            x  H            5         0.500000   0.132113   0.044886   x 
            x  H            6         0.500000   0.003015   0.367320   x 
            x  H            7         0.500000   0.234857   0.682164   x 
            x  H            8         0.500000   0.367887   0.544886   x 
            x  H            9         0.500000   0.496985   0.867320   x 
            x  H           10         0.500000   0.734857   0.817836   x 
            x  H           11         0.500000   0.867887   0.955114   x 
            x  H           12         0.500000   0.996985   0.632680   x 
            x  H           13         0.500000   0.765143   0.317836   x 
            x  H           14         0.500000   0.632113   0.455114   x 
            x  H           15         0.500000   0.503015   0.132680   x 
            x  H           16        -0.000000   0.765143   0.182164   x 
            x  H           17         0.000000   0.632113   0.044886   x 
            x  H           18         0.000000   0.503015   0.367320   x 
            x  H           19        -0.000000   0.734857   0.682164   x 
            x  H           20         0.000000   0.867887   0.544887   x 
            x  H           21         0.000000   0.996985   0.867320   x 
            x  H           22         0.000000   0.234857   0.817836   x 
            x  H           23        -0.000000   0.367887   0.955114   x 
            x  H           24        -0.000000   0.496985   0.632680   x 
            xxxxxxxxxxxxxxxxxxxxxxxxxxxxxxxxxxxxxxxxxxxxxxxxxxxxxxxxxxxx


                         No user defined ionic velocities

                           -------------------------------
                                   Details of Species
                           -------------------------------

                               Mass of species in AMU
                                    H    1.0078250

                          Electric Quadrupole Moment (Barn)
                                    H    0.0028600 Isotope  2

                          Files used for pseudopotentials:
                                    H 1|0.6|13|15|17|10(qc=8)

                           -------------------------------
                              k-Points For BZ Sampling
                           -------------------------------
                       MP grid size for SCF calculation is 10 10 10
                            with an offset of   0.000  0.000  0.000
                       Number of kpoints used =           500

                           -------------------------------
                               Symmetry and Constraints
                           -------------------------------

                      Cell is a supercell containing 2 primitive cells
                      Maximum deviation from symmetry =  0.00000         ANG

                      Number of symmetry operations   =           1
                      Number of ionic constraints     =           3
                      Point group of crystal =     1: C1, 1, 1
                      Space group of crystal =    64: Cmce, -C 2bc 2

             Set iprint > 1 for details on symmetry rotations/translations

                         Centre of mass is constrained
             Set iprint > 1 for details of linear ionic constraints

                         Number of cell constraints= 0
                         Cell constraints are:  1 2 3 4 5 6

                         External pressure/stress (GPa)
                        240.00000   0.00000   0.00000
                                  240.00000   0.00000
                                            240.00000
  
+---------------- MEMORY AND SCRATCH DISK ESTIMATES PER PROCESS --------------+
|                                                     Memory          Disk    |
| Baseline code, static data and system overhead      411.0 MB         0.0 MB |
| BLAS internal memory storage                          0.0 MB         0.0 MB |
| Model and support data                               68.4 MB         0.0 MB |
| Electronic energy minimisation requirements          57.3 MB         0.0 MB |
| Force calculation requirements                        7.4 MB         0.0 MB |
| Stress calculation requirements                       9.4 MB         0.0 MB |
|                                               ----------------------------- |
| Approx. total storage required per process          536.8 MB         0.0 MB |
|                                                                             |
| Requirements will fluctuate during execution and may exceed these estimates |
+-----------------------------------------------------------------------------+
Calculating finite basis set correction with  3 cut-off energies.
Calculating total energy with cut-off of 1190.000 eV.
------------------------------------------------------------------------ <-- SCF
SCF loop      Energy                           Energy gain       Timer   <-- SCF
                                               per atom          (sec)   <-- SCF
------------------------------------------------------------------------ <-- SCF
Initial   5.46868994E+002                                          7.21  <-- SCF
      1  -2.91416359E+002                    3.49285564E+001      24.03  <-- SCF
      2  -3.44055151E+002                    2.19328297E+000      36.89  <-- SCF
      3  -3.43895220E+002                   -6.66378616E-003      52.26  <-- SCF
      4  -3.43882898E+002                   -5.13413697E-004      67.72  <-- SCF
      5  -3.43883189E+002                    1.21180517E-005      82.28  <-- SCF
      6  -3.43883211E+002                    9.18502202E-007      97.35  <-- SCF
      7  -3.43883211E+002                    2.46571133E-009     111.76  <-- SCF
      8  -3.43883211E+002                    1.98909311E-010     125.69  <-- SCF
      9  -3.43883211E+002                    3.66556582E-012     136.03  <-- SCF
     10  -3.43883211E+002                    5.53862967E-013     146.47  <-- SCF
------------------------------------------------------------------------ <-- SCF
 
Final energy =  -343.8832109713     eV
(energy not corrected for finite basis set)
 
Calculating total energy with cut-off of 1195.000 eV.
------------------------------------------------------------------------ <-- SCF
SCF loop      Energy                           Energy gain       Timer   <-- SCF
                                               per atom          (sec)   <-- SCF
------------------------------------------------------------------------ <-- SCF
Initial  -3.43883211E+002                                        150.96  <-- SCF
      1  -3.43883257E+002                    1.93211906E-006     163.78  <-- SCF
      2  -3.43883257E+002                    1.13189450E-012     173.83  <-- SCF
      3  -3.43883257E+002                    5.20832594E-010     183.73  <-- SCF
      4  -3.43883257E+002                    7.87492437E-012     193.70  <-- SCF
      5  -3.43883257E+002                    1.08758546E-013     203.92  <-- SCF
------------------------------------------------------------------------ <-- SCF
 
Final energy =  -343.8832573549     eV
(energy not corrected for finite basis set)
 
Calculating total energy with cut-off of 1200.000 eV.
------------------------------------------------------------------------ <-- SCF
SCF loop      Energy                           Energy gain       Timer   <-- SCF
                                               per atom          (sec)   <-- SCF
------------------------------------------------------------------------ <-- SCF
Initial  -3.43883257E+002                                        208.50  <-- SCF
      1  -3.43883305E+002                    1.98842442E-006     221.75  <-- SCF
      2  -3.43883305E+002                    1.25273733E-012     231.98  <-- SCF
      3  -3.43883305E+002                    5.33724510E-010     241.90  <-- SCF
      4  -3.43883305E+002                    7.70977250E-012     251.86  <-- SCF
      5  -3.43883305E+002                   -3.04121120E-013     262.13  <-- SCF
------------------------------------------------------------------------ <-- SCF
 
Final energy =  -343.8833050901     eV
(energy not corrected for finite basis set)
 
 For future reference: finite basis dEtot/dlog(Ecut) =      -0.011270eV
 Total energy corrected for finite basis set =    -343.883305 eV
 
+---------------- MEMORY AND SCRATCH DISK ESTIMATES PER PROCESS --------------+
|                                                     Memory          Disk    |
| Model and support data                               76.4 MB         0.0 MB |
| Electronic energy minimisation requirements          57.3 MB         0.0 MB |
| Geometry minimisation requirements                   79.5 MB         0.0 MB |
|                                               ----------------------------- |
| Approx. total storage required per process          213.3 MB         0.0 MB |
|                                                                             |
| Requirements will fluctuate during execution and may exceed these estimates |
+-----------------------------------------------------------------------------+
 

 ************************************** Forces **************************************
 *                                                                                  *
 *                           Cartesian components (eV/A)                            *
 * -------------------------------------------------------------------------------- *
 *                         x                    y                    z              *
 *                                                                                  *
 * H               1      0.00000             -0.00000             -0.00000         *
 * H               2     -0.00000              0.00000              0.00000         *
 * H               3      0.00000              0.00000              0.00000         *
 * H               4      0.00000             -0.00000             -0.00000         *
 * H               5     -0.00000              0.00000              0.00000         *
 * H               6      0.00000              0.00000              0.00000         *
 * H               7     -0.00000              0.00000             -0.00000         *
 * H               8      0.00000             -0.00000              0.00000         *
 * H               9     -0.00000             -0.00000             -0.00000         *
 * H              10      0.00000             -0.00000             -0.00000         *
 * H              11     -0.00000              0.00000              0.00000         *
 * H              12     -0.00000              0.00000             -0.00000         *
 * H              13      0.00000              0.00000             -0.00000         *
 * H              14     -0.00000             -0.00000              0.00000         *
 * H              15      0.00000              0.00000              0.00000         *
 * H              16      0.00000              0.00000              0.00000         *
 * H              17     -0.00000             -0.00000             -0.00000         *
 * H              18     -0.00000             -0.00000             -0.00000         *
 * H              19      0.00000              0.00000             -0.00000         *
 * H              20     -0.00000             -0.00000              0.00000         *
 * H              21     -0.00000             -0.00000              0.00000         *
 * H              22     -0.00000              0.00000              0.00000         *
 * H              23     -0.00000              0.00000             -0.00000         *
 * H              24      0.00000             -0.00000              0.00000         *
 *                                                                                  *
 ************************************************************************************

 ***************** Stress Tensor *****************
 *                                               *
 *          Cartesian components (GPa)           *
 * --------------------------------------------- *
 *             x             y             z     *
 *                                               *
 *  x   -269.996923      0.000000     -0.000000  *
 *  y      0.000000   -269.996919     -0.000000  *
 *  z     -0.000000     -0.000000   -269.996923  *
 *                                               *
 *  Pressure:  269.9969                          *
 *                                               *
 *************************************************
 LBFGS: finished iteration     0 with enthalpy= -2.89306434E+002 eV
  
 +-----------+-----------------+-----------------+------------+-----+ <-- LBFGS
 | Parameter |      value      |    tolerance    |    units   | OK? | <-- LBFGS
 +-----------+-----------------+-----------------+------------+-----+ <-- LBFGS
 |  dE/ion   |   0.000000E+000 |   1.000000E-009 |         eV | No  | <-- LBFGS
 |  |F|max   |   5.544358E-007 |   1.000000E-005 |       eV/A | Yes | <-- LBFGS
 |  |dR|max  |   0.000000E+000 |   1.000000E-005 |          A | No  | <-- LBFGS
 |   Smax    |   2.999692E+001 |   1.000000E-005 |        GPa | No  | <-- LBFGS
 +-----------+-----------------+-----------------+------------+-----+ <-- LBFGS
  

================================================================================
 Starting LBFGS iteration          1 ...
================================================================================
  
 +------------+-------------+-------------+-----------------+ <-- min LBFGS
 |    Step    |   lambda    |   F.delta'  |    enthalpy     | <-- min LBFGS
 +------------+-------------+-------------+-----------------+ <-- min LBFGS
 |  previous  |    0.000000 |    0.434194 |     -289.306434 | <-- min LBFGS
 +------------+-------------+-------------+-----------------+ <-- min LBFGS
  

--------------------------------------------------------------------------------
 LBFGS: starting iteration         1 with trial guess (lambda=  1.000000)
--------------------------------------------------------------------------------
 
+---------------- MEMORY AND SCRATCH DISK ESTIMATES PER PROCESS --------------+
|                                                     Memory          Disk    |
| Model and support data                               78.9 MB         0.0 MB |
| Electronic energy minimisation requirements          60.5 MB         0.0 MB |
| Geometry minimisation requirements                   83.9 MB         0.0 MB |
|                                               ----------------------------- |
| Approx. total storage required per process          223.3 MB         0.0 MB |
|                                                                             |
| Requirements will fluctuate during execution and may exceed these estimates |
+-----------------------------------------------------------------------------+
 

                           -------------------------------
                                      Unit Cell
                           -------------------------------
        Real Lattice(A)              Reciprocal Lattice(1/A)
     2.6505905     0.0000000    -0.0000000        2.370485099  -0.000000000   0.000000000
     0.0000000     4.9207099    -0.0000000       -0.000000000   1.276885937   0.000000000
    -0.0000000    -0.0000000     2.9643895        0.000000000   0.000000000   2.119554543

                       Lattice parameters(A)       Cell Angles
                    a =      2.650591          alpha =   90.000000
                    b =      4.920710          beta  =   90.000000
                    c =      2.964390          gamma =   90.000000

                Current cell volume =            38.663901 A**3

                           -------------------------------
                                     Cell Contents
                           -------------------------------

            xxxxxxxxxxxxxxxxxxxxxxxxxxxxxxxxxxxxxxxxxxxxxxxxxxxxxxxxxxxxxxxxx
            x  Element         Atom        Fractional coordinates of atoms  x
            x                 Number           u          v          w      x
            x---------------------------------------------------------------x
            x  H                 1         0.000000   0.003015   0.132680   x
            x  H                 2        -0.000000   0.132113   0.455114   x
            x  H                 3         0.000000   0.265143   0.317836   x
            x  H                 4         0.500000   0.265143   0.182164   x
            x  H                 5         0.500000   0.132113   0.044887   x
            x  H                 6         0.500000   0.003015   0.367320   x
            x  H                 7         0.500000   0.234857   0.682164   x
            x  H                 8         0.500000   0.367887   0.544886   x
            x  H                 9         0.500000   0.496985   0.867320   x
            x  H                10         0.500000   0.734857   0.817836   x
            x  H                11         0.500000   0.867887   0.955114   x
            x  H                12         0.500000   0.996985   0.632680   x
            x  H                13         0.500000   0.765143   0.317836   x
            x  H                14         0.500000   0.632113   0.455114   x
            x  H                15         0.500000   0.503015   0.132680   x
            x  H                16         0.000000   0.765143   0.182164   x
            x  H                17        -0.000000   0.632113   0.044886   x
            x  H                18         0.000000   0.503015   0.367320   x
            x  H                19         0.000000   0.734857   0.682164   x
            x  H                20        -0.000000   0.867887   0.544887   x
            x  H                21        -0.000000   0.996985   0.867320   x
            x  H                22        -0.000000   0.234857   0.817836   x
            x  H                23        -0.000000   0.367887   0.955114   x
            x  H                24         0.000000   0.496985   0.632680   x
            xxxxxxxxxxxxxxxxxxxxxxxxxxxxxxxxxxxxxxxxxxxxxxxxxxxxxxxxxxxxxxxxx


------------------------------------------------------------------------ <-- SCF
SCF loop      Energy                           Energy gain       Timer   <-- SCF
                                               per atom          (sec)   <-- SCF
------------------------------------------------------------------------ <-- SCF
Initial  -3.47280042E+002                                        292.18  <-- SCF
      1  -3.47347773E+002                    2.82214171E-003     306.34  <-- SCF
      2  -3.47347971E+002                    8.21662185E-006     321.83  <-- SCF
      3  -3.47347748E+002                   -9.29662484E-006     336.71  <-- SCF
      4  -3.47347769E+002                    8.92427599E-007     351.37  <-- SCF
      5  -3.47347769E+002                    1.74044066E-008     366.87  <-- SCF
      6  -3.47347769E+002                    1.70940238E-009     381.73  <-- SCF
      7  -3.47347769E+002                    1.08416158E-011     391.96  <-- SCF
      8  -3.47347769E+002                    1.05133261E-012     402.35  <-- SCF
      9  -3.47347769E+002                   -2.98078979E-013     412.87  <-- SCF
------------------------------------------------------------------------ <-- SCF
 
Final energy =  -347.3477694205     eV
(energy not corrected for finite basis set)
 

 ************************************** Forces **************************************
 *                                                                                  *
 *                           Cartesian components (eV/A)                            *
 * -------------------------------------------------------------------------------- *
 *                         x                    y                    z              *
 *                                                                                  *
 * H               1     -0.00000             -0.00836             -0.28860         *
 * H               2      0.00000              0.26731             -0.17821         *
 * H               3     -0.00000             -0.25584              0.15423         *
 * H               4      0.00000             -0.25584             -0.15422         *
 * H               5     -0.00000              0.26730              0.17821         *
 * H               6     -0.00000             -0.00836              0.28860         *
 * H               7      0.00000              0.25584             -0.15423         *
 * H               8     -0.00000             -0.26730              0.17821         *
 * H               9      0.00000              0.00836              0.28860         *
 * H              10     -0.00000              0.25584              0.15423         *
 * H              11      0.00000             -0.26731             -0.17821         *
 * H              12      0.00000              0.00836             -0.28860         *
 * H              13     -0.00000             -0.25584              0.15423         *
 * H              14      0.00000              0.26731             -0.17821         *
 * H              15     -0.00000             -0.00836             -0.28860         *
 * H              16      0.00000             -0.25584             -0.15423         *
 * H              17      0.00000              0.26731              0.17821         *
 * H              18     -0.00000             -0.00836              0.28860         *
 * H              19      0.00000              0.25584             -0.15422         *
 * H              20      0.00000             -0.26730              0.17821         *
 * H              21      0.00000              0.00836              0.28860         *
 * H              22      0.00000              0.25584              0.15423         *
 * H              23      0.00000             -0.26730             -0.17821         *
 * H              24      0.00000              0.00836             -0.28860         *
 *                                                                                  *
 ************************************************************************************

 ***************** Stress Tensor *****************
 *                                               *
 *          Cartesian components (GPa)           *
 * --------------------------------------------- *
 *             x             y             z     *
 *                                               *
 *  x   -234.816732      0.000000     -0.000000  *
 *  y      0.000000   -226.641041      0.000001  *
 *  z     -0.000000      0.000001   -226.038700  *
 *                                               *
 *  Pressure:  229.1655                          *
 *                                               *
 *************************************************
  
 +------------+-------------+-------------+-----------------+ <-- min LBFGS
 |    Step    |   lambda    |   F.delta'  |    enthalpy     | <-- min LBFGS
 +------------+-------------+-------------+-----------------+ <-- min LBFGS
 |  previous  |    0.000000 |    0.434194 |     -289.306434 | <-- min LBFGS
 | trial step |    1.000000 |   -0.163161 |     -289.430707 | <-- min LBFGS
 +------------+-------------+-------------+-----------------+ <-- min LBFGS
  
 LBFGS: finished iteration     1 with enthalpy= -2.89430707E+002 eV
  
 +-----------+-----------------+-----------------+------------+-----+ <-- LBFGS
 | Parameter |      value      |    tolerance    |    units   | OK? | <-- LBFGS
 +-----------+-----------------+-----------------+------------+-----+ <-- LBFGS
 |  dE/ion   |   5.178019E-003 |   1.000000E-009 |         eV | No  | <-- LBFGS
 |  |F|max   |   3.212683E-001 |   1.000000E-005 |       eV/A | No  | <-- LBFGS
 |  |dR|max  |   5.485636E-008 |   1.000000E-005 |          A | Yes | <-- LBFGS
 |   Smax    |   1.396130E+001 |   1.000000E-005 |        GPa | No  | <-- LBFGS
 +-----------+-----------------+-----------------+------------+-----+ <-- LBFGS
  

================================================================================
 Starting LBFGS iteration          2 ...
================================================================================
  
 +------------+-------------+-------------+-----------------+ <-- min LBFGS
 |    Step    |   lambda    |   F.delta'  |    enthalpy     | <-- min LBFGS
 +------------+-------------+-------------+-----------------+ <-- min LBFGS
 |  previous  |    0.000000 |    0.196720 |     -289.430707 | <-- min LBFGS
 +------------+-------------+-------------+-----------------+ <-- min LBFGS
  

--------------------------------------------------------------------------------
 LBFGS: starting iteration         2 with trial guess (lambda=  1.000000)
--------------------------------------------------------------------------------
 
+---------------- MEMORY AND SCRATCH DISK ESTIMATES PER PROCESS --------------+
|                                                     Memory          Disk    |
| Model and support data                               79.7 MB         0.0 MB |
| Electronic energy minimisation requirements          61.0 MB         0.0 MB |
| Geometry minimisation requirements                   84.4 MB         0.0 MB |
|                                               ----------------------------- |
| Approx. total storage required per process          225.1 MB         0.0 MB |
|                                                                             |
| Requirements will fluctuate during execution and may exceed these estimates |
+-----------------------------------------------------------------------------+
 

                           -------------------------------
                                      Unit Cell
                           -------------------------------
        Real Lattice(A)              Reciprocal Lattice(1/A)
     2.6592686    -0.0000000     0.0000000        2.362749416   0.000000000  -0.000000000
    -0.0000000     4.9169360    -0.0000000        0.000000000   1.277865984   0.000000001
     0.0000000    -0.0000000     2.9612335       -0.000000000   0.000000001   2.121813543

                       Lattice parameters(A)       Cell Angles
                    a =      2.659269          alpha =   90.000000
                    b =      4.916936          beta  =   90.000000
                    c =      2.961233          gamma =   90.000000

                Current cell volume =            38.719471 A**3

                           -------------------------------
                                     Cell Contents
                           -------------------------------

            xxxxxxxxxxxxxxxxxxxxxxxxxxxxxxxxxxxxxxxxxxxxxxxxxxxxxxxxxxxxxxxxx
            x  Element         Atom        Fractional coordinates of atoms  x
            x                 Number           u          v          w      x
            x---------------------------------------------------------------x
            x  H                 1         0.000000   0.002890   0.125539   x
            x  H                 2         0.000000   0.136098   0.450704   x
            x  H                 3        -0.000000   0.261329   0.321652   x
            x  H                 4         0.500000   0.261329   0.178348   x
            x  H                 5         0.500000   0.136098   0.049296   x
            x  H                 6         0.500000   0.002890   0.374461   x
            x  H                 7         0.500000   0.238671   0.678348   x
            x  H                 8         0.500000   0.363902   0.549296   x
            x  H                 9         0.500000   0.497110   0.874461   x
            x  H                10         0.500000   0.738671   0.821652   x
            x  H                11         0.500000   0.863902   0.950704   x
            x  H                12         0.500000   0.997110   0.625539   x
            x  H                13         0.500000   0.761329   0.321652   x
            x  H                14         0.500000   0.636098   0.450704   x
            x  H                15         0.500000   0.502890   0.125539   x
            x  H                16         0.000000   0.761329   0.178348   x
            x  H                17        -0.000000   0.636098   0.049296   x
            x  H                18        -0.000000   0.502890   0.374461   x
            x  H                19         0.000000   0.738671   0.678348   x
            x  H                20        -0.000000   0.863902   0.549296   x
            x  H                21        -0.000000   0.997110   0.874461   x
            x  H                22        -0.000000   0.238671   0.821652   x
            x  H                23         0.000000   0.363902   0.950704   x
            x  H                24         0.000000   0.497110   0.625539   x
            xxxxxxxxxxxxxxxxxxxxxxxxxxxxxxxxxxxxxxxxxxxxxxxxxxxxxxxxxxxxxxxxx


------------------------------------------------------------------------ <-- SCF
SCF loop      Energy                           Energy gain       Timer   <-- SCF
                                               per atom          (sec)   <-- SCF
------------------------------------------------------------------------ <-- SCF
Initial  -3.46275967E+002                                        443.73  <-- SCF
      1  -3.47486788E+002                    5.04508656E-002     459.12  <-- SCF
      2  -3.47491645E+002                    2.02372502E-004     475.15  <-- SCF
      3  -3.47332017E+002                   -6.65114377E-003     491.06  <-- SCF
      4  -3.47327610E+002                   -1.83619270E-004     507.66  <-- SCF
      5  -3.47327602E+002                   -3.50773312E-007     523.69  <-- SCF
      6  -3.47327602E+002                    8.24555940E-009     539.42  <-- SCF
      7  -3.47327602E+002                    4.05280666E-010     555.17  <-- SCF
      8  -3.47327602E+002                    1.89884366E-011     566.23  <-- SCF
      9  -3.47327602E+002                    2.59812083E-013     577.72  <-- SCF
     10  -3.47327602E+002                    3.52458252E-013     588.87  <-- SCF
------------------------------------------------------------------------ <-- SCF
 
Final energy =  -347.3276020856     eV
(energy not corrected for finite basis set)
 

 ************************************** Forces **************************************
 *                                                                                  *
 *                           Cartesian components (eV/A)                            *
 * -------------------------------------------------------------------------------- *
 *                         x                    y                    z              *
 *                                                                                  *
 * H               1     -0.00000             -0.01721              0.55038         *
 * H               2     -0.00000             -0.80960              0.47870         *
 * H               3      0.00000              0.62379             -0.38350         *
 * H               4     -0.00000              0.62378              0.38350         *
 * H               5      0.00000             -0.80960             -0.47870         *
 * H               6     -0.00000             -0.01721             -0.55038         *
 * H               7      0.00000             -0.62379              0.38350         *
 * H               8      0.00000              0.80960             -0.47870         *
 * H               9     -0.00000              0.01721             -0.55038         *
 * H              10     -0.00000             -0.62379             -0.38351         *
 * H              11     -0.00000              0.80961              0.47870         *
 * H              12      0.00000              0.01721              0.55037         *
 * H              13      0.00000              0.62379             -0.38350         *
 * H              14      0.00000             -0.80960              0.47870         *
 * H              15     -0.00000             -0.01721              0.55038         *
 * H              16      0.00000              0.62379              0.38350         *
 * H              17      0.00000             -0.80960             -0.47870         *
 * H              18      0.00000             -0.01721             -0.55038         *
 * H              19      0.00000             -0.62378              0.38350         *
 * H              20     -0.00000              0.80960             -0.47870         *
 * H              21     -0.00000              0.01721             -0.55038         *
 * H              22      0.00000             -0.62379             -0.38350         *
 * H              23     -0.00000              0.80960              0.47870         *
 * H              24     -0.00000              0.01721              0.55038         *
 *                                                                                  *
 ************************************************************************************

 ***************** Stress Tensor *****************
 *                                               *
 *          Cartesian components (GPa)           *
 * --------------------------------------------- *
 *             x             y             z     *
 *                                               *
 *  x   -229.547495      0.000000      0.000000  *
 *  y      0.000000   -248.820897     -0.000002  *
 *  z      0.000000     -0.000002   -245.839083  *
 *                                               *
 *  Pressure:  241.4025                          *
 *                                               *
 *************************************************
  
 +------------+-------------+-------------+-----------------+ <-- min LBFGS
 |    Step    |   lambda    |   F.delta'  |    enthalpy     | <-- min LBFGS
 +------------+-------------+-------------+-----------------+ <-- min LBFGS
 |  previous  |    0.000000 |    0.196720 |     -289.430707 | <-- min LBFGS
 | trial step |    1.000000 |   -0.491831 |     -289.327299 | <-- min LBFGS
 +------------+-------------+-------------+-----------------+ <-- min LBFGS
  

--------------------------------------------------------------------------------
 LBFGS: improving iteration         2 with line minimization (lambda=  0.285702)
--------------------------------------------------------------------------------

                           -------------------------------
                                      Unit Cell
                           -------------------------------
        Real Lattice(A)              Reciprocal Lattice(1/A)
     2.6530699    -0.0000000    -0.0000000        2.368269837   0.000000000   0.000000000
    -0.0000000     4.9196317    -0.0000000        0.000000000   1.277165785   0.000000000
    -0.0000000    -0.0000000     2.9634878        0.000000000   0.000000001   2.120199452

                       Lattice parameters(A)       Cell Angles
                    a =      2.653070          alpha =   90.000000
                    b =      4.919632          beta  =   90.000000
                    c =      2.963488          gamma =   90.000000

                Current cell volume =            38.679819 A**3

                           -------------------------------
                                     Cell Contents
                           -------------------------------

            xxxxxxxxxxxxxxxxxxxxxxxxxxxxxxxxxxxxxxxxxxxxxxxxxxxxxxxxxxxxxxxxx
            x  Element         Atom        Fractional coordinates of atoms  x
            x                 Number           u          v          w      x
            x---------------------------------------------------------------x
            x  H                 1         0.000000   0.002979   0.130640   x
            x  H                 2        -0.000000   0.133252   0.453854   x
            x  H                 3        -0.000000   0.264053   0.318926   x
            x  H                 4         0.500000   0.264053   0.181074   x
            x  H                 5         0.500000   0.133252   0.046146   x
            x  H                 6         0.500000   0.002979   0.369360   x
            x  H                 7         0.500000   0.235947   0.681074   x
            x  H                 8         0.500000   0.366748   0.546146   x
            x  H                 9         0.500000   0.497021   0.869360   x
            x  H                10         0.500000   0.735947   0.818926   x
            x  H                11         0.500000   0.866748   0.953854   x
            x  H                12         0.500000   0.997021   0.630640   x
            x  H                13         0.500000   0.764053   0.318926   x
            x  H                14         0.500000   0.633252   0.453854   x
            x  H                15         0.500000   0.502979   0.130640   x
            x  H                16         0.000000   0.764053   0.181074   x
            x  H                17        -0.000000   0.633252   0.046146   x
            x  H                18         0.000000   0.502979   0.369360   x
            x  H                19         0.000000   0.735947   0.681074   x
            x  H                20        -0.000000   0.866748   0.546146   x
            x  H                21        -0.000000   0.997021   0.869360   x
            x  H                22        -0.000000   0.235947   0.818926   x
            x  H                23        -0.000000   0.366748   0.953854   x
            x  H                24         0.000000   0.497021   0.630640   x
            xxxxxxxxxxxxxxxxxxxxxxxxxxxxxxxxxxxxxxxxxxxxxxxxxxxxxxxxxxxxxxxxx


------------------------------------------------------------------------ <-- SCF
SCF loop      Energy                           Energy gain       Timer   <-- SCF
                                               per atom          (sec)   <-- SCF
------------------------------------------------------------------------ <-- SCF
Initial  -3.46855624E+002                                        620.51  <-- SCF
      1  -3.47480573E+002                    2.60395152E-002     634.64  <-- SCF
      2  -3.47483139E+002                    1.06904067E-004     650.27  <-- SCF
      3  -3.47400897E+002                   -3.42672758E-003     665.60  <-- SCF
      4  -3.47398760E+002                   -8.90592253E-005     681.06  <-- SCF
      5  -3.47398755E+002                   -2.10756843E-007     696.12  <-- SCF
      6  -3.47398755E+002                    3.37451184E-009     711.76  <-- SCF
      7  -3.47398755E+002                    1.92069607E-010     725.74  <-- SCF
      8  -3.47398755E+002                    5.62120560E-012     736.42  <-- SCF
      9  -3.47398755E+002                    2.92036837E-013     747.22  <-- SCF
------------------------------------------------------------------------ <-- SCF
 
Final energy =  -347.3987546680     eV
(energy not corrected for finite basis set)
 

 ************************************** Forces **************************************
 *                                                                                  *
 *                           Cartesian components (eV/A)                            *
 * -------------------------------------------------------------------------------- *
 *                         x                    y                    z              *
 *                                                                                  *
 * H               1     -0.00000             -0.01265             -0.08568         *
 * H               2      0.00000             -0.00201             -0.01590         *
 * H               3     -0.00000             -0.04483              0.02515         *
 * H               4     -0.00000             -0.04483             -0.02515         *
 * H               5      0.00000             -0.00201              0.01590         *
 * H               6     -0.00000             -0.01265              0.08568         *
 * H               7      0.00000              0.04483             -0.02515         *
 * H               8     -0.00000              0.00201              0.01590         *
 * H               9     -0.00000              0.01265              0.08568         *
 * H              10     -0.00000              0.04483              0.02515         *
 * H              11      0.00000              0.00201             -0.01590         *
 * H              12      0.00000              0.01265             -0.08568         *
 * H              13     -0.00000             -0.04483              0.02515         *
 * H              14      0.00000             -0.00201             -0.01590         *
 * H              15     -0.00000             -0.01265             -0.08568         *
 * H              16      0.00000             -0.04483             -0.02515         *
 * H              17      0.00000             -0.00201              0.01590         *
 * H              18      0.00000             -0.01265              0.08568         *
 * H              19      0.00000              0.04483             -0.02515         *
 * H              20      0.00000              0.00201              0.01590         *
 * H              21     -0.00000              0.01265              0.08568         *
 * H              22      0.00000              0.04483              0.02515         *
 * H              23      0.00000              0.00201             -0.01590         *
 * H              24     -0.00000              0.01265             -0.08568         *
 *                                                                                  *
 ************************************************************************************

 ***************** Stress Tensor *****************
 *                                               *
 *          Cartesian components (GPa)           *
 * --------------------------------------------- *
 *             x             y             z     *
 *                                               *
 *  x   -233.369004      0.000000     -0.000000  *
 *  y      0.000000   -232.411080     -0.000000  *
 *  z     -0.000000     -0.000000   -231.215479  *
 *                                               *
 *  Pressure:  232.3319                          *
 *                                               *
 *************************************************
  
 +------------+-------------+-------------+-----------------+ <-- min LBFGS
 |    Step    |   lambda    |   F.delta'  |    enthalpy     | <-- min LBFGS
 +------------+-------------+-------------+-----------------+ <-- min LBFGS
 |  previous  |    0.000000 |    0.196720 |     -289.430707 | <-- min LBFGS
 | trial step |    1.000000 |   -0.491831 |     -289.327299 | <-- min LBFGS
 |  line step |    0.285702 |    0.028037 |     -289.457849 | <-- min LBFGS
 +------------+-------------+-------------+-----------------+ <-- min LBFGS
  
 LBFGS: finished iteration     2 with enthalpy= -2.89457849E+002 eV
  
 +-----------+-----------------+-----------------+------------+-----+ <-- LBFGS
 | Parameter |      value      |    tolerance    |    units   | OK? | <-- LBFGS
 +-----------+-----------------+-----------------+------------+-----+ <-- LBFGS
 |  dE/ion   |   1.130937E-003 |   1.000000E-009 |         eV | No  | <-- LBFGS
 |  |F|max   |   8.661177E-002 |   1.000000E-005 |       eV/A | No  | <-- LBFGS
 |  |dR|max  |   6.731327E-003 |   1.000000E-005 |          A | No  | <-- LBFGS
 |   Smax    |   8.784521E+000 |   1.000000E-005 |        GPa | No  | <-- LBFGS
 +-----------+-----------------+-----------------+------------+-----+ <-- LBFGS
  

================================================================================
 Starting LBFGS iteration          3 ...
================================================================================
  
 +------------+-------------+-------------+-----------------+ <-- min LBFGS
 |    Step    |   lambda    |   F.delta'  |    enthalpy     | <-- min LBFGS
 +------------+-------------+-------------+-----------------+ <-- min LBFGS
 |  previous  |    0.000000 |    0.108961 |     -289.457849 | <-- min LBFGS
 +------------+-------------+-------------+-----------------+ <-- min LBFGS
  

--------------------------------------------------------------------------------
 LBFGS: starting iteration         3 with trial guess (lambda=  1.000000)
--------------------------------------------------------------------------------

                           -------------------------------
                                      Unit Cell
                           -------------------------------
        Real Lattice(A)              Reciprocal Lattice(1/A)
     2.6408025    -0.0000000    -0.0000000        2.379271218   0.000000000   0.000000000
    -0.0000000     4.8981044    -0.0000000        0.000000000   1.282778963   0.000000000
    -0.0000000    -0.0000000     2.9479276        0.000000000   0.000000000   2.131390633

                       Lattice parameters(A)       Cell Angles
                    a =      2.640802          alpha =   90.000000
                    b =      4.898104          beta  =   90.000000
                    c =      2.947928          gamma =   90.000000

                Current cell volume =            38.131226 A**3

                           -------------------------------
                                     Cell Contents
                           -------------------------------

            xxxxxxxxxxxxxxxxxxxxxxxxxxxxxxxxxxxxxxxxxxxxxxxxxxxxxxxxxxxxxxxxx
            x  Element         Atom        Fractional coordinates of atoms  x
            x                 Number           u          v          w      x
            x---------------------------------------------------------------x
            x  H                 1         0.000000   0.002708   0.129041   x
            x  H                 2        -0.000000   0.132198   0.454335   x
            x  H                 3        -0.000000   0.263944   0.318961   x
            x  H                 4         0.500000   0.263944   0.181039   x
            x  H                 5         0.500000   0.132198   0.045665   x
            x  H                 6         0.500000   0.002708   0.370959   x
            x  H                 7         0.500000   0.236056   0.681039   x
            x  H                 8         0.500000   0.367802   0.545665   x
            x  H                 9         0.500000   0.497292   0.870959   x
            x  H                10         0.500000   0.736056   0.818961   x
            x  H                11         0.500000   0.867802   0.954335   x
            x  H                12         0.500000   0.997292   0.629041   x
            x  H                13         0.500000   0.763944   0.318961   x
            x  H                14         0.500000   0.632198   0.454335   x
            x  H                15         0.500000   0.502708   0.129041   x
            x  H                16         0.000000   0.763944   0.181039   x
            x  H                17        -0.000000   0.632198   0.045665   x
            x  H                18         0.000000   0.502708   0.370959   x
            x  H                19         0.000000   0.736056   0.681039   x
            x  H                20        -0.000000   0.867802   0.545665   x
            x  H                21        -0.000000   0.997292   0.870959   x
            x  H                22        -0.000000   0.236056   0.818961   x
            x  H                23        -0.000000   0.367802   0.954335   x
            x  H                24        -0.000000   0.497292   0.629041   x
            xxxxxxxxxxxxxxxxxxxxxxxxxxxxxxxxxxxxxxxxxxxxxxxxxxxxxxxxxxxxxxxxx


------------------------------------------------------------------------ <-- SCF
SCF loop      Energy                           Energy gain       Timer   <-- SCF
                                               per atom          (sec)   <-- SCF
------------------------------------------------------------------------ <-- SCF
Initial  -3.46552823E+002                                        778.49  <-- SCF
      1  -3.46587017E+002                    1.42476667E-003     792.32  <-- SCF
      2  -3.46587134E+002                    4.86874430E-006     807.18  <-- SCF
      3  -3.46582201E+002                   -2.05528382E-004     822.09  <-- SCF
      4  -3.46582207E+002                    2.26241318E-007     837.86  <-- SCF
      5  -3.46582207E+002                    1.76841195E-008     854.10  <-- SCF
      6  -3.46582207E+002                   -3.42641786E-010     870.19  <-- SCF
      7  -3.46582207E+002                    2.14073072E-011     881.44  <-- SCF
      8  -3.46582207E+002                    1.46622633E-012     892.62  <-- SCF
      9  -3.46582207E+002                    1.00702358E-013     903.15  <-- SCF
------------------------------------------------------------------------ <-- SCF
 
Final energy =  -346.5822070682     eV
(energy not corrected for finite basis set)
 

 ************************************** Forces **************************************
 *                                                                                  *
 *                           Cartesian components (eV/A)                            *
 * -------------------------------------------------------------------------------- *
 *                         x                    y                    z              *
 *                                                                                  *
 * H               1     -0.00000              0.01181              0.25766         *
 * H               2      0.00000              0.09129             -0.04152         *
 * H               3      0.00000             -0.11316              0.04220         *
 * H               4      0.00000             -0.11316             -0.04220         *
 * H               5     -0.00000              0.09129              0.04152         *
 * H               6     -0.00000              0.01181             -0.25766         *
 * H               7      0.00000              0.11316             -0.04220         *
 * H               8     -0.00000             -0.09129              0.04152         *
 * H               9      0.00000             -0.01181             -0.25766         *
 * H              10      0.00000              0.11316              0.04220         *
 * H              11      0.00000             -0.09129             -0.04152         *
 * H              12      0.00000             -0.01181              0.25766         *
 * H              13     -0.00000             -0.11316              0.04220         *
 * H              14      0.00000              0.09129             -0.04152         *
 * H              15     -0.00000              0.01181              0.25766         *
 * H              16     -0.00000             -0.11316             -0.04220         *
 * H              17     -0.00000              0.09129              0.04152         *
 * H              18     -0.00000              0.01181             -0.25766         *
 * H              19     -0.00000              0.11316             -0.04220         *
 * H              20     -0.00000             -0.09129              0.04152         *
 * H              21      0.00000             -0.01181             -0.25766         *
 * H              22     -0.00000              0.11316              0.04220         *
 * H              23      0.00000             -0.09129             -0.04152         *
 * H              24      0.00000             -0.01181              0.25766         *
 *                                                                                  *
 ************************************************************************************

 ***************** Stress Tensor *****************
 *                                               *
 *          Cartesian components (GPa)           *
 * --------------------------------------------- *
 *             x             y             z     *
 *                                               *
 *  x   -241.705883     -0.000000     -0.000000  *
 *  y     -0.000000   -239.171609      0.000001  *
 *  z     -0.000000      0.000001   -244.251693  *
 *                                               *
 *  Pressure:  241.7097                          *
 *                                               *
 *************************************************
  
 +------------+-------------+-------------+-----------------+ <-- min LBFGS
 |    Step    |   lambda    |   F.delta'  |    enthalpy     | <-- min LBFGS
 +------------+-------------+-------------+-----------------+ <-- min LBFGS
 |  previous  |    0.000000 |    0.108961 |     -289.457849 | <-- min LBFGS
 | trial step |    1.000000 |   -0.072223 |     -289.463072 | <-- min LBFGS
 +------------+-------------+-------------+-----------------+ <-- min LBFGS
  
 LBFGS: finished iteration     3 with enthalpy= -2.89463072E+002 eV
  
 +-----------+-----------------+-----------------+------------+-----+ <-- LBFGS
 | Parameter |      value      |    tolerance    |    units   | OK? | <-- LBFGS
 +-----------+-----------------+-----------------+------------+-----+ <-- LBFGS
 |  dE/ion   |   2.176025E-004 |   1.000000E-009 |         eV | No  | <-- LBFGS
 |  |F|max   |   2.579326E-001 |   1.000000E-005 |       eV/A | No  | <-- LBFGS
 |  |dR|max  |   5.351185E-003 |   1.000000E-005 |          A | No  | <-- LBFGS
 |   Smax    |   4.251693E+000 |   1.000000E-005 |        GPa | No  | <-- LBFGS
 +-----------+-----------------+-----------------+------------+-----+ <-- LBFGS
  

================================================================================
 Starting LBFGS iteration          4 ...
================================================================================
  
 +------------+-------------+-------------+-----------------+ <-- min LBFGS
 |    Step    |   lambda    |   F.delta'  |    enthalpy     | <-- min LBFGS
 +------------+-------------+-------------+-----------------+ <-- min LBFGS
 |  previous  |    0.000000 |    0.081576 |     -289.463072 | <-- min LBFGS
 +------------+-------------+-------------+-----------------+ <-- min LBFGS
  

--------------------------------------------------------------------------------
 LBFGS: starting iteration         4 with trial guess (lambda=  1.000000)
--------------------------------------------------------------------------------

                           -------------------------------
                                      Unit Cell
                           -------------------------------
        Real Lattice(A)              Reciprocal Lattice(1/A)
     2.6328838    -0.0000000     0.0000000        2.386427090   0.000000000  -0.000000000
    -0.0000000     4.8797824    -0.0000000        0.000000000   1.287595399   0.000000001
     0.0000000    -0.0000000     2.9410745       -0.000000000   0.000000001   2.136357094

                       Lattice parameters(A)       Cell Angles
                    a =      2.632884          alpha =   90.000000
                    b =      4.879782          beta  =   90.000000
                    c =      2.941074          gamma =   90.000000

                Current cell volume =            37.786631 A**3

                           -------------------------------
                                     Cell Contents
                           -------------------------------

            xxxxxxxxxxxxxxxxxxxxxxxxxxxxxxxxxxxxxxxxxxxxxxxxxxxxxxxxxxxxxxxxx
            x  Element         Atom        Fractional coordinates of atoms  x
            x                 Number           u          v          w      x
            x---------------------------------------------------------------x
            x  H                 1         0.000000   0.002653   0.133265   x
            x  H                 2         0.000000   0.132430   0.453960   x
            x  H                 3        -0.000000   0.262567   0.319752   x
            x  H                 4         0.500000   0.262567   0.180248   x
            x  H                 5         0.500000   0.132430   0.046040   x
            x  H                 6         0.500000   0.002653   0.366735   x
            x  H                 7         0.500000   0.237433   0.680248   x
            x  H                 8         0.500000   0.367570   0.546040   x
            x  H                 9         0.500000   0.497347   0.866735   x
            x  H                10         0.500000   0.737433   0.819752   x
            x  H                11         0.500000   0.867570   0.953960   x
            x  H                12         0.500000   0.997347   0.633265   x
            x  H                13         0.500000   0.762567   0.319752   x
            x  H                14         0.500000   0.632430   0.453960   x
            x  H                15         0.500000   0.502653   0.133265   x
            x  H                16         0.000000   0.762567   0.180248   x
            x  H                17         0.000000   0.632430   0.046040   x
            x  H                18         0.000000   0.502653   0.366735   x
            x  H                19         0.000000   0.737433   0.680248   x
            x  H                20        -0.000000   0.867570   0.546040   x
            x  H                21        -0.000000   0.997347   0.866735   x
            x  H                22        -0.000000   0.237433   0.819752   x
            x  H                23        -0.000000   0.367570   0.953960   x
            x  H                24        -0.000000   0.497347   0.633265   x
            xxxxxxxxxxxxxxxxxxxxxxxxxxxxxxxxxxxxxxxxxxxxxxxxxxxxxxxxxxxxxxxxx


------------------------------------------------------------------------ <-- SCF
SCF loop      Energy                           Energy gain       Timer   <-- SCF
                                               per atom          (sec)   <-- SCF
------------------------------------------------------------------------ <-- SCF
Initial  -3.45926777E+002                                        933.58  <-- SCF
      1  -3.46058366E+002                    5.48286886E-003     947.12  <-- SCF
      2  -3.46058861E+002                    2.05987675E-005     963.19  <-- SCF
      3  -3.46045066E+002                   -5.74765462E-004     979.16  <-- SCF
      4  -3.46044886E+002                   -7.52412752E-006     995.30  <-- SCF
      5  -3.46044885E+002                   -4.27395549E-008    1011.29  <-- SCF
      6  -3.46044885E+002                    2.34193403E-010    1027.42  <-- SCF
      7  -3.46044885E+002                    4.48044930E-011    1037.95  <-- SCF
      8  -3.46044885E+002                    2.95259313E-012    1048.25  <-- SCF
      9  -3.46044885E+002                    1.77236149E-013    1058.78  <-- SCF
------------------------------------------------------------------------ <-- SCF
 
Final energy =  -346.0448847536     eV
(energy not corrected for finite basis set)
 

 ************************************** Forces **************************************
 *                                                                                  *
 *                           Cartesian components (eV/A)                            *
 * -------------------------------------------------------------------------------- *
 *                         x                    y                    z              *
 *                                                                                  *
 * H               1     -0.00000             -0.05204             -0.37612         *
 * H               2     -0.00000             -0.17419              0.14070         *
 * H               3      0.00000              0.24267             -0.09365         *
 * H               4     -0.00000              0.24267              0.09364         *
 * H               5      0.00000             -0.17419             -0.14070         *
 * H               6     -0.00000             -0.05204              0.37612         *
 * H               7     -0.00000             -0.24267              0.09365         *
 * H               8      0.00000              0.17419             -0.14070         *
 * H               9      0.00000              0.05204              0.37612         *
 * H              10      0.00000             -0.24267             -0.09365         *
 * H              11      0.00000              0.17419              0.14070         *
 * H              12      0.00000              0.05204             -0.37612         *
 * H              13      0.00000              0.24267             -0.09364         *
 * H              14     -0.00000             -0.17419              0.14070         *
 * H              15      0.00000             -0.05204             -0.37612         *
 * H              16     -0.00000              0.24267              0.09365         *
 * H              17      0.00000             -0.17419             -0.14070         *
 * H              18     -0.00000             -0.05204              0.37612         *
 * H              19     -0.00000             -0.24266              0.09364         *
 * H              20     -0.00000              0.17419             -0.14070         *
 * H              21      0.00000              0.05204              0.37612         *
 * H              22      0.00000             -0.24267             -0.09364         *
 * H              23      0.00000              0.17419              0.14070         *
 * H              24      0.00000              0.05204             -0.37612         *
 *                                                                                  *
 ************************************************************************************

 ***************** Stress Tensor *****************
 *                                               *
 *          Cartesian components (GPa)           *
 * --------------------------------------------- *
 *             x             y             z     *
 *                                               *
 *  x   -245.862540      0.000000      0.000000  *
 *  y      0.000000   -252.070044     -0.000002  *
 *  z      0.000000     -0.000002   -243.835088  *
 *                                               *
 *  Pressure:  247.2559                          *
 *                                               *
 *************************************************
  
 +------------+-------------+-------------+-----------------+ <-- min LBFGS
 |    Step    |   lambda    |   F.delta'  |    enthalpy     | <-- min LBFGS
 +------------+-------------+-------------+-----------------+ <-- min LBFGS
 |  previous  |    0.000000 |    0.081576 |     -289.463072 | <-- min LBFGS
 | trial step |    1.000000 |   -0.189634 |     -289.441940 | <-- min LBFGS
 +------------+-------------+-------------+-----------------+ <-- min LBFGS
  

--------------------------------------------------------------------------------
 LBFGS: improving iteration         4 with line minimization (lambda=  0.300786)
--------------------------------------------------------------------------------

                           -------------------------------
                                      Unit Cell
                           -------------------------------
        Real Lattice(A)              Reciprocal Lattice(1/A)
     2.6384207    -0.0000000    -0.0000000        2.381419086   0.000000000   0.000000000
    -0.0000000     4.8925934    -0.0000000        0.000000000   1.284223885   0.000000000
    -0.0000000    -0.0000000     2.9458663        0.000000000   0.000000000   2.132882044

                       Lattice parameters(A)       Cell Angles
                    a =      2.638421          alpha =   90.000000
                    b =      4.892593          beta  =   90.000000
                    c =      2.945866          gamma =   90.000000

                Current cell volume =            38.027362 A**3

                           -------------------------------
                                     Cell Contents
                           -------------------------------

            xxxxxxxxxxxxxxxxxxxxxxxxxxxxxxxxxxxxxxxxxxxxxxxxxxxxxxxxxxxxxxxxx
            x  Element         Atom        Fractional coordinates of atoms  x
            x                 Number           u          v          w      x
            x---------------------------------------------------------------x
            x  H                 1         0.000000   0.002691   0.130312   x
            x  H                 2        -0.000000   0.132268   0.454222   x
            x  H                 3        -0.000000   0.263530   0.319199   x
            x  H                 4         0.500000   0.263530   0.180801   x
            x  H                 5         0.500000   0.132268   0.045778   x
            x  H                 6         0.500000   0.002691   0.369688   x
            x  H                 7         0.500000   0.236470   0.680801   x
            x  H                 8         0.500000   0.367732   0.545778   x
            x  H                 9         0.500000   0.497309   0.869688   x
            x  H                10         0.500000   0.736470   0.819199   x
            x  H                11         0.500000   0.867732   0.954222   x
            x  H                12         0.500000   0.997309   0.630312   x
            x  H                13         0.500000   0.763530   0.319199   x
            x  H                14         0.500000   0.632268   0.454222   x
            x  H                15         0.500000   0.502691   0.130312   x
            x  H                16         0.000000   0.763530   0.180801   x
            x  H                17        -0.000000   0.632268   0.045778   x
            x  H                18         0.000000   0.502691   0.369688   x
            x  H                19         0.000000   0.736470   0.680801   x
            x  H                20        -0.000000   0.867732   0.545778   x
            x  H                21        -0.000000   0.997309   0.869688   x
            x  H                22        -0.000000   0.236470   0.819199   x
            x  H                23        -0.000000   0.367732   0.954222   x
            x  H                24        -0.000000   0.497309   0.630312   x
            xxxxxxxxxxxxxxxxxxxxxxxxxxxxxxxxxxxxxxxxxxxxxxxxxxxxxxxxxxxxxxxxx


------------------------------------------------------------------------ <-- SCF
SCF loop      Energy                           Energy gain       Timer   <-- SCF
                                               per atom          (sec)   <-- SCF
[...]
      H     1      S                    0.999
      H     2      S                    1.026
      H     3      S                    0.975
      H     4      S                    0.975
      H     5      S                    1.026
      H     6      S                    0.999
      H     7      S                    0.975
      H     8      S                    1.026
      H     9      S                    0.999
      H    10      S                    0.975
      H    11      S                    1.026
      H    12      S                    0.999
      H    13      S                    0.975
      H    14      S                    1.026
      H    15      S                    0.999
      H    16      S                    0.975
      H    17      S                    1.026
      H    18      S                    0.999
      H    19      S                    0.975
      H    20      S                    1.026
      H    21      S                    0.999
      H    22      S                    0.975
      H    23      S                    1.026
      H    24      S                    0.999
  -------------------------------------------
                           Total:      24.000
  -------------------------------------------

     Atomic Populations (Mulliken)
     -----------------------------
Species          Ion     s      p      d      f     Total  Charge (e)
=====================================================================
  H               1     1.00   0.00   0.00   0.00   1.00     0.00
  H               2     1.03   0.00   0.00   0.00   1.03    -0.03
  H               3     0.97   0.00   0.00   0.00   0.97     0.03
  H               4     0.97   0.00   0.00   0.00   0.97     0.03
  H               5     1.03   0.00   0.00   0.00   1.03    -0.03
  H               6     1.00   0.00   0.00   0.00   1.00     0.00
  H               7     0.97   0.00   0.00   0.00   0.97     0.03
  H               8     1.03   0.00   0.00   0.00   1.03    -0.03
  H               9     1.00   0.00   0.00   0.00   1.00     0.00
  H              10     0.97   0.00   0.00   0.00   0.97     0.03
  H              11     1.03   0.00   0.00   0.00   1.03    -0.03
  H              12     1.00   0.00   0.00   0.00   1.00     0.00
  H              13     0.97   0.00   0.00   0.00   0.97     0.03
  H              14     1.03   0.00   0.00   0.00   1.03    -0.03
  H              15     1.00   0.00   0.00   0.00   1.00     0.00
  H              16     0.97   0.00   0.00   0.00   0.97     0.03
  H              17     1.03   0.00   0.00   0.00   1.03    -0.03
  H              18     1.00   0.00   0.00   0.00   1.00     0.00
  H              19     0.97   0.00   0.00   0.00   0.97     0.03
  H              20     1.03   0.00   0.00   0.00   1.03    -0.03
  H              21     1.00   0.00   0.00   0.00   1.00     0.00
  H              22     0.97   0.00   0.00   0.00   0.97     0.03
  H              23     1.03   0.00   0.00   0.00   1.03    -0.03
  H              24     1.00   0.00   0.00   0.00   1.00     0.00
=====================================================================

                 Bond                   Population      Length (A)
======================================================================
              H 16 -- H 17                   1.67        0.75509
              H 4  -- H 5                    1.67        0.75509
              H 7  -- H 8                    1.67        0.75509
              H 10 -- H 11                   1.67        0.75509
              H 22 -- H 23                   1.67        0.75509
              H 19 -- H 20                   1.67        0.75509
              H 13 -- H 14                   1.67        0.75509
              H 2  -- H 3                    1.67        0.75509
              H 9  -- H 15                   1.47        0.77004
              H 6  -- H 12                   1.47        0.77004
              H 18 -- H 24                   1.47        0.77004
              H 1  -- H 21                   1.47        0.77004
              H 17 -- H 18                   0.14        1.15110
              H 14 -- H 15                   0.14        1.15110
              H 23 -- H 24                   0.14        1.15110
              H 8  -- H 9                    0.14        1.15110
              H 11 -- H 12                   0.14        1.15110
              H 5  -- H 6                    0.14        1.15110
              H 20 -- H 21                   0.14        1.15110
              H 1  -- H 2                    0.14        1.15110
              H 4  -- H 15                   0.21        1.18191
              H 9  -- H 10                   0.21        1.18191
              H 3  -- H 18                   0.21        1.18191
              H 19 -- H 24                   0.21        1.18191
              H 21 -- H 22                   0.21        1.18191
              H 7  -- H 12                   0.21        1.18191
              H 1  -- H 16                   0.21        1.18191
              H 6  -- H 13                   0.21        1.18191
              H 2  -- H 22                  -0.09        1.19136
              H 4  -- H 8                   -0.09        1.19136
              H 5  -- H 7                   -0.09        1.19136
              H 11 -- H 13                  -0.09        1.19136
              H 16 -- H 20                  -0.09        1.19136
              H 3  -- H 23                  -0.09        1.19136
              H 10 -- H 14                  -0.09        1.19136
              H 17 -- H 19                  -0.09        1.19136
              H 17 -- H 23                  -0.04        1.32460
              H 8  -- H 14                  -0.04        1.32460
              H 2  -- H 20                  -0.04        1.32460
              H 5  -- H 11                  -0.04        1.32460
              H 3  -- H 4                    0.03        1.38312
              H 13 -- H 16                   0.03        1.38312
              H 10 -- H 19                   0.03        1.38312
              H 7  -- H 22                   0.03        1.38312
              H 1  -- H 20                  -0.26        1.39001
              H 18 -- H 23                  -0.26        1.39001
              H 17 -- H 24                  -0.26        1.39001
              H 2  -- H 21                  -0.26        1.39001
              H 9  -- H 14                  -0.26        1.39001
              H 8  -- H 15                  -0.26        1.39001
              H 6  -- H 11                  -0.26        1.39001
              H 5  -- H 12                  -0.26        1.39001
              H 16 -- H 18                  -0.09        1.39467
              H 13 -- H 15                  -0.09        1.39467
              H 19 -- H 21                  -0.09        1.39467
              H 7  -- H 9                   -0.09        1.39467
              H 22 -- H 24                  -0.09        1.39467
              H 10 -- H 12                  -0.09        1.39467
              H 1  -- H 3                   -0.09        1.39467
              H 4  -- H 6                   -0.09        1.39467
              H 3  -- H 24                  -0.22        1.47272
              H 18 -- H 19                  -0.22        1.47272
              H 6  -- H 7                   -0.22        1.47272
              H 4  -- H 9                   -0.22        1.47272
              H 10 -- H 15                  -0.22        1.47272
              H 12 -- H 13                  -0.22        1.47272
              H 16 -- H 21                  -0.22        1.47272
              H 1  -- H 22                  -0.22        1.47272
              H 3  -- H 22                  -0.30        1.48112
              H 10 -- H 13                  -0.30        1.48112
              H 16 -- H 19                  -0.30        1.48112
              H 4  -- H 7                   -0.30        1.48112
              H 14 -- H 18                  -0.14        1.48885
              H 15 -- H 17                  -0.14        1.48885
              H 9  -- H 23                  -0.14        1.48885
              H 12 -- H 20                  -0.14        1.48885
              H 8  -- H 24                  -0.14        1.48885
              H 11 -- H 21                  -0.14        1.48885
              H 2  -- H 6                   -0.14        1.48885
              H 1  -- H 5                   -0.14        1.48885
              H 1  -- H 6                   -0.19        1.49802
              H 15 -- H 18                  -0.19        1.49802
              H 9  -- H 24                  -0.19        1.49802
              H 12 -- H 21                  -0.19        1.49802
              H 15 -- H 23                  -0.15        1.56480
              H 9  -- H 17                  -0.15        1.56480
              H 14 -- H 24                  -0.15        1.56480
              H 6  -- H 20                  -0.15        1.56480
              H 2  -- H 12                  -0.15        1.56480
              H 1  -- H 11                  -0.15        1.56480
              H 8  -- H 18                  -0.15        1.56480
              H 5  -- H 21                  -0.15        1.56480
              H 2  -- H 7                   -0.20        1.56617
              H 5  -- H 22                  -0.20        1.56617
              H 3  -- H 8                   -0.20        1.56617
              H 13 -- H 20                  -0.20        1.56617
              H 4  -- H 23                  -0.20        1.56617
              H 14 -- H 19                  -0.20        1.56617
              H 10 -- H 17                  -0.20        1.56617
              H 11 -- H 16                  -0.20        1.56617
              H 3  -- H 5                   -0.34        1.67653
              H 13 -- H 17                  -0.34        1.67653
              H 11 -- H 19                  -0.34        1.67653
              H 14 -- H 16                  -0.34        1.67653
              H 7  -- H 23                  -0.34        1.67653
              H 8  -- H 22                  -0.34        1.67653
              H 2  -- H 4                   -0.34        1.67653
              H 10 -- H 20                  -0.34        1.67653
              H 10 -- H 16                  -0.36        1.70284
              H 4  -- H 22                  -0.36        1.70284
              H 13 -- H 19                  -0.37        1.70284
              H 3  -- H 7                   -0.37        1.70284
              H 2  -- H 8                   -0.24        1.77382
              H 5  -- H 23                  -0.24        1.77382
              H 11 -- H 17                  -0.24        1.77382
              H 14 -- H 20                  -0.24        1.77382
              H 14 -- H 17                  -0.60        1.79157
              H 8  -- H 23                  -0.60        1.79157
              H 11 -- H 20                  -0.60        1.79157
              H 2  -- H 5                   -0.60        1.79157
              H 5  -- H 15                  -0.16        1.83012
              H 9  -- H 11                  -0.16        1.83012
              H 2  -- H 18                  -0.16        1.83012
              H 8  -- H 12                  -0.16        1.83012
              H 20 -- H 24                  -0.16        1.83012
              H 1  -- H 17                  -0.16        1.83012
              H 21 -- H 23                  -0.16        1.83012
              H 6  -- H 14                  -0.16        1.83012
              H 15 -- H 16                  -0.29        1.84449
              H 13 -- H 18                  -0.29        1.84449
              H 12 -- H 19                  -0.29        1.84449
              H 7  -- H 24                  -0.29        1.84449
              H 9  -- H 22                  -0.29        1.84449
              H 3  -- H 6                   -0.29        1.84449
              H 10 -- H 21                  -0.29        1.84449
              H 1  -- H 4                   -0.29        1.84449
              H 4  -- H 18                  -0.12        1.85239
              H 3  -- H 15                  -0.12        1.85239
              H 1  -- H 13                  -0.12        1.85239
              H 10 -- H 24                  -0.12        1.85239
              H 9  -- H 19                  -0.12        1.85239
              H 7  -- H 21                  -0.12        1.85239
              H 12 -- H 22                  -0.12        1.85239
              H 6  -- H 16                  -0.12        1.85239
              H 9  -- H 13                  -0.39        1.85749
              H 7  -- H 15                  -0.39        1.85749
              H 16 -- H 24                  -0.39        1.85749
              H 3  -- H 21                  -0.39        1.85749
              H 1  -- H 19                  -0.39        1.85749
              H 4  -- H 12                  -0.39        1.85749
              H 6  -- H 10                  -0.39        1.85749
              H 18 -- H 22                  -0.39        1.85749
              H 2  -- H 24                  -0.27        1.86487
              H 6  -- H 8                   -0.27        1.86487
              H 5  -- H 9                   -0.27        1.86487
              H 18 -- H 20                  -0.27        1.86487
              H 11 -- H 15                  -0.27        1.86487
              H 12 -- H 14                  -0.27        1.86487
              H 17 -- H 21                  -0.27        1.86487
              H 1  -- H 23                  -0.27        1.86487
              H 2  -- H 23                  -0.37        1.87287
              H 5  -- H 8                   -0.37        1.87287
              H 17 -- H 20                  -0.37        1.87287
              H 11 -- H 14                  -0.37        1.87287
              H 1  -- H 12                  -0.44        1.98085
              H 6  -- H 21                  -0.44        1.98085
              H 9  -- H 18                  -0.44        1.98085
              H 15 -- H 24                  -0.44        1.98085
              H 4  -- H 14                  -0.08        1.98351
              H 3  -- H 17                  -0.08        1.98351
              H 8  -- H 10                  -0.08        1.98351
              H 19 -- H 23                  -0.08        1.98351
              H 20 -- H 22                  -0.08        1.98351
              H 7  -- H 11                  -0.08        1.98351
              H 5  -- H 13                  -0.08        1.98351
              H 2  -- H 16                  -0.08        1.98351
              H 16 -- H 23                  -0.12        2.04913
              H 17 -- H 22                  -0.12        2.04913
              H 7  -- H 14                  -0.12        2.04913
              H 8  -- H 13                  -0.12        2.04913
              H 2  -- H 19                  -0.12        2.04913
              H 3  -- H 20                  -0.12        2.04913
              H 4  -- H 11                  -0.12        2.04913
              H 5  -- H 10                  -0.12        2.04913
              H 9  -- H 16                  -0.23        2.06825
              H 15 -- H 22                  -0.23        2.06825
              H 1  -- H 10                  -0.23        2.06825
              H 13 -- H 24                  -0.23        2.06825
              H 6  -- H 19                  -0.23        2.06825
              H 7  -- H 18                  -0.23        2.06825
              H 4  -- H 21                  -0.23        2.06825
              H 3  -- H 12                  -0.23        2.06825
              H 4  -- H 24                  -0.17        2.19841
              H 10 -- H 18                  -0.17        2.19841
              H 13 -- H 21                  -0.17        2.19841
              H 6  -- H 22                  -0.17        2.19841
              H 3  -- H 9                   -0.17        2.19841
              H 12 -- H 16                  -0.17        2.19841
              H 15 -- H 19                  -0.17        2.19841
              H 1  -- H 7                   -0.17        2.19841
              H 4  -- H 17                  -0.03        2.27711
              H 3  -- H 14                  -0.03        2.27711
              H 10 -- H 23                  -0.03        2.27711
              H 8  -- H 19                  -0.03        2.27711
              H 7  -- H 20                  -0.03        2.27711
              H 11 -- H 22                  -0.03        2.27711
              H 2  -- H 13                  -0.03        2.27711
              H 5  -- H 16                  -0.03        2.27711
              H 14 -- H 23                  -0.06        2.36797
              H 8  -- H 17                  -0.06        2.36797
              H 2  -- H 11                  -0.06        2.36797
              H 5  -- H 20                  -0.06        2.36797
              H 5  -- H 18                   0.07        2.43910
              H 11 -- H 24                   0.07        2.43910
              H 2  -- H 15                   0.07        2.43910
              H 1  -- H 14                   0.07        2.43910
              H 8  -- H 21                   0.07        2.43910
              H 9  -- H 20                   0.07        2.43910
              H 12 -- H 23                   0.07        2.43910
              H 6  -- H 17                   0.07        2.43910
              H 4  -- H 13                  -0.05        2.48485
              H 3  -- H 16                  -0.05        2.48485
              H 7  -- H 10                  -0.05        2.48485
              H 19 -- H 22                  -0.05        2.48485
              H 2  -- H 9                    0.07        2.54023
              H 5  -- H 24                   0.07        2.54023
              H 1  -- H 8                    0.07        2.54023
              H 15 -- H 20                   0.07        2.54023
              H 11 -- H 18                   0.07        2.54023
              H 14 -- H 21                   0.07        2.54023
              H 6  -- H 23                   0.07        2.54023
              H 12 -- H 17                   0.07        2.54023
              H 1  -- H 18                   0.01        2.55059
              H 6  -- H 15                   0.01        2.55059
              H 9  -- H 12                   0.01        2.55059
              H 21 -- H 24                   0.01        2.55059
              H 4  -- H 10                  -0.03        2.55708
              H 3  -- H 19                  -0.03        2.55708
              H 7  -- H 13                  -0.03        2.55708
              H 16 -- H 22                  -0.03        2.55708
              H 13 -- H 23                   0.09        2.58010
              H 7  -- H 17                   0.09        2.58010
              H 8  -- H 16                   0.09        2.58010
              H 14 -- H 22                   0.09        2.58010
              H 3  -- H 11                   0.09        2.58010
              H 4  -- H 20                   0.09        2.58010
              H 2  -- H 10                   0.09        2.58010
              H 5  -- H 19                   0.09        2.58010
======================================================================


Writing analysis data to Cmca-12.castep_bin

Writing model to Cmca-12.check
 
 A BibTeX formatted list of references used in this run has been written to 
 Cmca-12.bib
 
Initialisation time =      4.65 s
Calculation time    =   4030.01 s
Finalisation time   =      7.39 s
Total time          =   4042.05 s
Peak Memory Use     = 629612 kB
  
Overall parallel efficiency rating: Excellent (94%)                             
  
Data was distributed by:-
k-point (16-way); efficiency rating: Excellent (94%)                            
