 +-------------------------------------------------+
 |                                                 |
 |      CCC   AA    SSS  TTTTT  EEEEE  PPPP        |
 |     C     A  A  S       T    E      P   P       |
 |     C     AAAA   SS     T    EEE    PPPP        |
 |     C     A  A     S    T    E      P           |
 |      CCC  A  A  SSS     T    EEEEE  P           |
 |                                                 |
 +-------------------------------------------------+
 |                                                 |
 | Welcome to Academic Release CASTEP version 18.1 |          
 | Ab Initio Total Energy Program                  |
 |                                                 |
 | Authors:                                        |
 | M. Segall, M. Probert, C. Pickard, P. Hasnip,   |
 | S. Clark, K. Refson, J. R. Yates, M. Payne      |
 |                                                 |
 | Contributors:                                   |
 | P. Lindan, P. Haynes, J. White, V. Milman,      |
 | N. Govind, M. Gibson, P. Tulip, V. Cocula,      |
 | B. Montanari, D. Quigley, M. Glover,            |
 | L. Bernasconi, A. Perlov, M. Plummer,           |
 | E. McNellis, J. Meyer, J. Gale, D. Jochym       |
 | J. Aarons, B. Walker, R. Gillen, D. Jones       |
 | T. Green, I. J. Bush, C. J. Armstrong,          |
 | E. J. Higgins, E. L. Brown, M. S. McFly,        |
 | J. Wilkins, B-C. Shih, P. J. P. Byrne           |
 |                                                 |
 | Copyright (c) 2000 - 2017                       |
 |                                                 |
 |     Distributed under the terms of an           |
 |     Agreement between the United Kingdom        |
 |     Car-Parrinello (UKCP) Consortium,           |
 |     Daresbury Laboratory and Accelrys, Inc.     |
 |                                                 |
 | Please cite                                     |
 |                                                 |
 |     "First principles methods using CASTEP"     |
 |                                                 |
 |         Zeitschrift fuer Kristallographie       |
 |           220(5-6) pp. 567-570 (2005)           |
 |                                                 |
 | S. J. Clark, M. D. Segall, C. J. Pickard,       |
 | P. J. Hasnip, M. J. Probert, K. Refson,         |
 | M. C. Payne                                     |
 |                                                 |
 |       in all publications arising from          |
 |              your use of CASTEP                 |
 |                                                 |
 +-------------------------------------------------+


 Compiled for linux_x86_64_gfortran4.8 on Thu, 19 Jul 2018 15:42:32 +0100
 from code version 70483bd0ad64+  Sun, 10 Dec 2017 12:18:29 +0000
 Compiler: GNU Fortran 4.8.5; Optimisation: fast
 MATHLIBS: Intel MKL(2018.0.0) (LAPACK version 3.7.0)
 FFT Lib : mkl
 Fundamental constants values: CODATA 2014

 Run started: Thu, 13 Aug 2020 19:37:10 +0100

 Atomic calculation performed for H: 1s1

 Converged in 41 iterations to an ae energy of -12.488 eV

   ============================================================                
   | Pseudopotential Report - Date of generation 13-08-2020   |                
   ------------------------------------------------------------                
   | Element: H Ionic charge:  1.00 Level of theory: PBE      |                
   | Atomic Solver: Koelling-Harmon                           |                
   |                                                          |                
   |               Reference Electronic Structure             |                
   |         Orbital         Occupation         Energy        |                
   |            1s              1.000           -0.239        |                
   |                                                          |                
   |                 Pseudopotential Definition               |                
   |        Beta     l      e      Rc     scheme   norm       |                
   |          1      0   -0.239   0.599     qc      0         |                
   |          2      0    0.250   0.599     qc      0         |                
   |         loc     1    0.000   0.599     pn      0         |                
   |                                                          |                
   | Augmentation charge Rinner = 0.421                       |                
   | No partial core correction                               |                
   ------------------------------------------------------------                
   | "1|0.6|13|15|17|10(qc=8)"                                |                
   ------------------------------------------------------------                
   |      Author: Chris J. Pickard, Cambridge University      |                
   ============================================================                

 Pseudo atomic calculation performed for H 1s1

 Converged in 24 iterations to a total energy of -12.4866 eV

 Calculation parallelised over 16 processes.
 Data is distributed by k-point(16-way)

 ************************************ Title ************************************
 

 ***************************** General Parameters ******************************
  
 output verbosity                               : normal  (1)
 write checkpoint data to                       : Cmca-12.check
 type of calculation                            : geometry optimization
 stress calculation                             : on
 density difference calculation                 : off
 electron localisation func (ELF) calculation   : off
 Hirshfeld analysis                             : off
 unlimited duration calculation
 timing information                             : on
 memory usage estimate                          : on
 write extra output files                       : on
 write final potential to formatted file        : off
 write final density to formatted file          : off
 write structure in CELL formatted file         : on
 write BibTeX reference list                    : on
 write OTFG pseudopotential files               : on
 write electrostatic potential file             : on
 write bands file                               : on
 checkpoint writing                             : both castep_bin and check files
  
 output         length unit                     : A
 output           mass unit                     : amu
 output           time unit                     : ps
 output         charge unit                     : e
 output           spin unit                     : hbar/2
 output         energy unit                     : eV
 output          force unit                     : eV/A
 output       velocity unit                     : A/ps
 output       pressure unit                     : GPa
 output     inv_length unit                     : 1/A
 output      frequency unit                     : cm-1
 output force constant unit                     : eV/A**2
 output         volume unit                     : A**3
 output   IR intensity unit                     : (D/A)**2/amu
 output         dipole unit                     : D
 output         efield unit                     : eV/A/e
 output        entropy unit                     : J/mol/K
  
 wavefunctions paging                           : none
 random number generator seed                   : randomised (193711378)
 data distribution                              : optimal for this architecture
 optimization strategy                          : maximize speed(+++)

 *********************** Exchange-Correlation Parameters ***********************
  
 using functional                               : Perdew Burke Ernzerhof
 relativistic treatment                         : Koelling-Harmon
 DFT+D: Semi-empirical dispersion correction    : off

 ************************* Pseudopotential Parameters **************************
  
 pseudopotential representation                 : reciprocal space
 <beta|phi> representation                      : reciprocal space
 spin-orbit coupling                            : off

 **************************** Basis Set Parameters *****************************
  
 plane wave basis set cut-off                   :  1200.0000   eV
 size of standard grid                          :     2.0000
 size of   fine   gmax                          :    35.4943   1/A
 finite basis set correction                    : automatic
 number of sample energies                      :          3
           sample  spacing                      :     5.0000   eV

 **************************** Electronic Parameters ****************************
  
 number of  electrons                           :  24.00    
 net charge of system                           :  0.000    
 treating system as non-spin-polarized
 number of bands                                :         12

 ********************* Electronic Minimization Parameters **********************
  
 Method: Treating system as non-metallic,
         and number of  SD  steps               :          1
         and number of  CG  steps               :          4
  
 total energy / atom convergence tol.           : 0.1000E-10   eV
 eigen-energy convergence tolerance             : 0.2000E-10   eV
 max force / atom convergence tol.              : ignored
 convergence tolerance window                   :          3   cycles
 max. number of SCF cycles                      :        100
 periodic dipole correction                     : NONE

 ************************** Density Mixing Parameters **************************
  
 density-mixing scheme                          : Broyden
 max. length of mixing history                  :         20
 charge density mixing amplitude                : 0.8000    
 cut-off energy for mixing                      :  1200.       eV

 *********************** Population Analysis Parameters ************************
  
 Population analysis with cutoff                :  3.000       A
 Population analysis output                     : summary and pdos components

 ********************** Geometry Optimization Parameters ***********************
  
 optimization method                            : LBFGS
 max. no. of LBFGS updates                      : unbounded
 variable cell method                           : fixed basis quality
 max. number of steps                           :        200
 estimated bulk modulus                         :  500.0       GPa
 estimated <frequency>                          :  1668.       cm-1
 geom line minimiser                            : on
 with line minimiser tolerance                  :     0.4000
 total energy convergence tolerance             : 0.1000E-08   eV/atom
        max ionic |force| tolerance             : 0.1000E-04   eV/A
 max ionic |displacement| tolerance             : 0.1000E-04   A
   max |stress component| tolerance             : 0.1000E-04   GPa
 convergence tolerance window                   :          2   steps
 backup results every                           :      14400   seconds
 write geom trajectory file                     : on

 *******************************************************************************
  

                           -------------------------------
                                      Unit Cell
                           -------------------------------
        Real Lattice(A)                      Reciprocal Lattice(1/A)
     2.5550000     0.0000000     0.0000000        2.459172332   0.000000000   0.000000000
     0.0000000     4.7480000     0.0000000        0.000000000   1.323333047   0.000000000
     0.0000000     0.0000000     2.8710000        0.000000000   0.000000000   2.188500629

                       Lattice parameters(A)       Cell Angles
                    a =      2.555000          alpha =   90.000000
                    b =      4.748000          beta  =   90.000000
                    c =      2.871000          gamma =   90.000000

                       Current cell volume =            34.828503       A**3
                                   density =             0.694562   AMU/A**3
                                           =             1.153348     g/cm^3

                           -------------------------------
                                     Cell Contents
                           -------------------------------
                         Total number of ions in cell =   24
                      Total number of species in cell =    1
                        Max number of any one species =   24

            xxxxxxxxxxxxxxxxxxxxxxxxxxxxxxxxxxxxxxxxxxxxxxxxxxxxxxxxxxxx
            x  Element    Atom        Fractional coordinates of atoms  x
            x            Number           u          v          w      x
            x----------------------------------------------------------x
            x  H            1         0.000000   0.003600   0.135800   x 
            x  H            2         0.000000   0.131700   0.452700   x 
            x  H            3         0.000000   0.268900   0.316300   x 
            x  H            4         0.500000   0.268900   0.183700   x 
            x  H            5         0.500000   0.131700   0.047300   x 
            x  H            6         0.500000   0.003600   0.364200   x 
            x  H            7         0.500000   0.231100   0.683700   x 
            x  H            8         0.500000   0.368300   0.547300   x 
            x  H            9         0.500000   0.496400   0.864200   x 
            x  H           10         0.500000   0.731100   0.816300   x 
            x  H           11         0.500000   0.868300   0.952700   x 
            x  H           12         0.500000   0.996400   0.635800   x 
            x  H           13         0.500000   0.768900   0.316300   x 
            x  H           14         0.500000   0.631700   0.452700   x 
            x  H           15         0.500000   0.503600   0.135800   x 
            x  H           16         0.000000   0.768900   0.183700   x 
            x  H           17         0.000000   0.631700   0.047300   x 
            x  H           18         0.000000   0.503600   0.364200   x 
            x  H           19         0.000000   0.731100   0.683700   x 
            x  H           20         0.000000   0.868300   0.547300   x 
            x  H           21         0.000000   0.996400   0.864200   x 
            x  H           22         0.000000   0.231100   0.816300   x 
            x  H           23         0.000000   0.368300   0.952700   x 
            x  H           24         0.000000   0.496400   0.635800   x 
            xxxxxxxxxxxxxxxxxxxxxxxxxxxxxxxxxxxxxxxxxxxxxxxxxxxxxxxxxxxx


                         No user defined ionic velocities

                           -------------------------------
                                   Details of Species
                           -------------------------------

                               Mass of species in AMU
                                    H    1.0078250

                          Electric Quadrupole Moment (Barn)
                                    H    0.0028600 Isotope  2

                          Files used for pseudopotentials:
                                    H 1|0.6|13|15|17|10(qc=8)

                           -------------------------------
                              k-Points For BZ Sampling
                           -------------------------------
                       MP grid size for SCF calculation is 10 10 10
                            with an offset of   0.000  0.000  0.000
                       Number of kpoints used =           500

                           -------------------------------
                               Symmetry and Constraints
                           -------------------------------

                      Cell is a supercell containing 2 primitive cells
                      Maximum deviation from symmetry =  0.00000         ANG

                      Number of symmetry operations   =           1
                      Number of ionic constraints     =           3
                      Point group of crystal =     1: C1, 1, 1
                      Space group of crystal =    64: Cmce, -C 2bc 2

             Set iprint > 1 for details on symmetry rotations/translations

                         Centre of mass is constrained
             Set iprint > 1 for details of linear ionic constraints

                         Number of cell constraints= 0
                         Cell constraints are:  1 2 3 4 5 6

                         External pressure/stress (GPa)
                        300.00000   0.00000   0.00000
                                  300.00000   0.00000
                                            300.00000
  
+---------------- MEMORY AND SCRATCH DISK ESTIMATES PER PROCESS --------------+
|                                                     Memory          Disk    |
| Baseline code, static data and system overhead      411.0 MB         0.0 MB |
| BLAS internal memory storage                          0.0 MB         0.0 MB |
| Model and support data                               65.2 MB         0.0 MB |
| Electronic energy minimisation requirements          54.5 MB         0.0 MB |
| Force calculation requirements                        6.7 MB         0.0 MB |
| Stress calculation requirements                       8.5 MB         0.0 MB |
|                                               ----------------------------- |
| Approx. total storage required per process          530.7 MB         0.0 MB |
|                                                                             |
| Requirements will fluctuate during execution and may exceed these estimates |
+-----------------------------------------------------------------------------+
Calculating finite basis set correction with  3 cut-off energies.
Calculating total energy with cut-off of 1190.000 eV.
------------------------------------------------------------------------ <-- SCF
SCF loop      Energy                           Energy gain       Timer   <-- SCF
                                               per atom          (sec)   <-- SCF
------------------------------------------------------------------------ <-- SCF
Initial   5.38752336E+002                                         15.42  <-- SCF
      1  -2.89836224E+002                    3.45245233E+001      44.08  <-- SCF
      2  -3.41071233E+002                    2.13479205E+000      64.13  <-- SCF
      3  -3.41026613E+002                   -1.85916326E-003      89.71  <-- SCF
      4  -3.41019114E+002                   -3.12462496E-004     115.42  <-- SCF
      5  -3.41019342E+002                    9.50563117E-006     141.61  <-- SCF
      6  -3.41019359E+002                    6.94079554E-007     164.53  <-- SCF
      7  -3.41019359E+002                    8.73971594E-010     187.33  <-- SCF
      8  -3.41019359E+002                   -3.48045474E-010     210.28  <-- SCF
      9  -3.41019359E+002                    2.89197031E-011     229.19  <-- SCF
     10  -3.41019359E+002                    1.32725707E-012     246.21  <-- SCF
     11  -3.41019359E+002                    5.23652260E-014     265.32  <-- SCF
------------------------------------------------------------------------ <-- SCF
 
Final energy =  -341.0193591641     eV
(energy not corrected for finite basis set)
 
Calculating total energy with cut-off of 1195.000 eV.
------------------------------------------------------------------------ <-- SCF
SCF loop      Energy                           Energy gain       Timer   <-- SCF
                                               per atom          (sec)   <-- SCF
------------------------------------------------------------------------ <-- SCF
Initial  -3.41019359E+002                                        274.32  <-- SCF
      1  -3.41019412E+002                    2.18418395E-006     297.05  <-- SCF
      2  -3.41019412E+002                    1.32725707E-012     315.36  <-- SCF
      3  -3.41019412E+002                    5.70809160E-010     334.66  <-- SCF
      4  -3.41019412E+002                    5.95755148E-012     353.28  <-- SCF
      5  -3.41019412E+002                    3.42388016E-014     370.75  <-- SCF
------------------------------------------------------------------------ <-- SCF
 
Final energy =  -341.0194115984     eV
(energy not corrected for finite basis set)
 
Calculating total energy with cut-off of 1200.000 eV.
------------------------------------------------------------------------ <-- SCF
SCF loop      Energy                           Energy gain       Timer   <-- SCF
                                               per atom          (sec)   <-- SCF
------------------------------------------------------------------------ <-- SCF
Initial  -3.41019412E+002                                        380.17  <-- SCF
      1  -3.41019465E+002                    2.20785746E-006     401.87  <-- SCF
      2  -3.41019465E+002                    1.42191729E-012     417.68  <-- SCF
      3  -3.41019465E+002                    5.77165493E-010     435.39  <-- SCF
      4  -3.41019465E+002                    5.83268056E-012     452.86  <-- SCF
      5  -3.41019465E+002                   -1.12786641E-013     471.27  <-- SCF
------------------------------------------------------------------------ <-- SCF
 
Final energy =  -341.0194646010     eV
(energy not corrected for finite basis set)
 
 For future reference: finite basis dEtot/dlog(Ecut) =      -0.012583eV
 Total energy corrected for finite basis set =    -341.019464 eV
 
+---------------- MEMORY AND SCRATCH DISK ESTIMATES PER PROCESS --------------+
|                                                     Memory          Disk    |
| Model and support data                               73.6 MB         0.0 MB |
| Electronic energy minimisation requirements          54.5 MB         0.0 MB |
| Geometry minimisation requirements                   75.6 MB         0.0 MB |
|                                               ----------------------------- |
| Approx. total storage required per process          203.6 MB         0.0 MB |
|                                                                             |
| Requirements will fluctuate during execution and may exceed these estimates |
+-----------------------------------------------------------------------------+
 

 ************************************** Forces **************************************
 *                                                                                  *
 *                           Cartesian components (eV/A)                            *
 * -------------------------------------------------------------------------------- *
 *                         x                    y                    z              *
 *                                                                                  *
 * H               1     -0.00000              0.01181             -0.10108         *
 * H               2     -0.00000              0.07921             -0.00977         *
 * H               3      0.00000             -0.07640              0.03715         *
 * H               4      0.00000             -0.07640             -0.03715         *
 * H               5     -0.00000              0.07921              0.00977         *
 * H               6     -0.00000              0.01181              0.10108         *
 * H               7      0.00000              0.07640             -0.03715         *
 * H               8     -0.00000             -0.07921              0.00977         *
 * H               9      0.00000             -0.01181              0.10108         *
 * H              10     -0.00000              0.07640              0.03715         *
 * H              11      0.00000             -0.07921             -0.00977         *
 * H              12      0.00000             -0.01181             -0.10108         *
 * H              13     -0.00000             -0.07640              0.03715         *
 * H              14      0.00000              0.07921             -0.00977         *
 * H              15      0.00000              0.01181             -0.10108         *
 * H              16      0.00000             -0.07640             -0.03715         *
 * H              17      0.00000              0.07921              0.00977         *
 * H              18      0.00000              0.01181              0.10108         *
 * H              19     -0.00000              0.07640             -0.03715         *
 * H              20      0.00000             -0.07921              0.00977         *
 * H              21      0.00000             -0.01181              0.10108         *
 * H              22      0.00000              0.07640              0.03715         *
 * H              23     -0.00000             -0.07921             -0.00977         *
 * H              24     -0.00000             -0.01181             -0.10108         *
 *                                                                                  *
 ************************************************************************************

 ***************** Stress Tensor *****************
 *                                               *
 *          Cartesian components (GPa)           *
 * --------------------------------------------- *
 *             x             y             z     *
 *                                               *
 *  x   -302.534730      0.000000      0.000000  *
 *  y      0.000000   -300.781809      0.000000  *
 *  z      0.000000      0.000000   -296.699436  *
 *                                               *
 *  Pressure:  300.0053                          *
 *                                               *
 *************************************************
 LBFGS: finished iteration     0 with enthalpy= -2.75804738E+002 eV
  
 +-----------+-----------------+-----------------+------------+-----+ <-- LBFGS
 | Parameter |      value      |    tolerance    |    units   | OK? | <-- LBFGS
 +-----------+-----------------+-----------------+------------+-----+ <-- LBFGS
 |  dE/ion   |   0.000000E+000 |   1.000000E-009 |         eV | No  | <-- LBFGS
 |  |F|max   |   1.017693E-001 |   1.000000E-005 |       eV/A | No  | <-- LBFGS
 |  |dR|max  |   0.000000E+000 |   1.000000E-005 |          A | No  | <-- LBFGS
 |   Smax    |   3.300564E+000 |   1.000000E-005 |        GPa | No  | <-- LBFGS
 +-----------+-----------------+-----------------+------------+-----+ <-- LBFGS
  

================================================================================
 Starting LBFGS iteration          1 ...
================================================================================
  
 +------------+-------------+-------------+-----------------+ <-- min LBFGS
 |    Step    |   lambda    |   F.delta'  |    enthalpy     | <-- min LBFGS
 +------------+-------------+-------------+-----------------+ <-- min LBFGS
 |  previous  |    0.000000 |    0.062384 |     -275.804738 | <-- min LBFGS
 +------------+-------------+-------------+-----------------+ <-- min LBFGS
  

--------------------------------------------------------------------------------
 LBFGS: starting iteration         1 with trial guess (lambda=  1.000000)
--------------------------------------------------------------------------------
 
+---------------- MEMORY AND SCRATCH DISK ESTIMATES PER PROCESS --------------+
|                                                     Memory          Disk    |
| Model and support data                               73.6 MB         0.0 MB |
| Electronic energy minimisation requirements          54.5 MB         0.0 MB |
| Geometry minimisation requirements                   75.6 MB         0.0 MB |
|                                               ----------------------------- |
| Approx. total storage required per process          203.7 MB         0.0 MB |
|                                                                             |
| Requirements will fluctuate during execution and may exceed these estimates |
+-----------------------------------------------------------------------------+
 

                           -------------------------------
                                      Unit Cell
                           -------------------------------
        Real Lattice(A)              Reciprocal Lattice(1/A)
     2.5593175    -0.0000000    -0.0000000        2.455023784   0.000000000   0.000000000
    -0.0000000     4.7504747    -0.0000000        0.000000000   1.322643677   0.000000000
    -0.0000000    -0.0000000     2.8646827        0.000000000   0.000000000   2.193326774

                       Lattice parameters(A)       Cell Angles
                    a =      2.559317          alpha =   90.000000
                    b =      4.750475          beta  =   90.000000
                    c =      2.864683          gamma =   90.000000

                Current cell volume =            34.828735 A**3

                           -------------------------------
                                     Cell Contents
                           -------------------------------

            xxxxxxxxxxxxxxxxxxxxxxxxxxxxxxxxxxxxxxxxxxxxxxxxxxxxxxxxxxxxxxxxx
            x  Element         Atom        Fractional coordinates of atoms  x
            x                 Number           u          v          w      x
            x---------------------------------------------------------------x
            x  H                 1        -0.000000   0.003841   0.132385   x
            x  H                 2        -0.000000   0.133318   0.452370   x
            x  H                 3         0.000000   0.267339   0.317555   x
            x  H                 4         0.500000   0.267339   0.182445   x
            x  H                 5         0.500000   0.133318   0.047630   x
            x  H                 6         0.500000   0.003841   0.367615   x
            x  H                 7         0.500000   0.232661   0.682445   x
            x  H                 8         0.500000   0.366682   0.547630   x
            x  H                 9         0.500000   0.496159   0.867615   x
            x  H                10         0.500000   0.732661   0.817555   x
            x  H                11         0.500000   0.866682   0.952370   x
            x  H                12         0.500000   0.996159   0.632385   x
            x  H                13         0.500000   0.767339   0.317555   x
            x  H                14         0.500000   0.633318   0.452370   x
            x  H                15         0.500000   0.503841   0.132385   x
            x  H                16         0.000000   0.767339   0.182445   x
            x  H                17         0.000000   0.633318   0.047630   x
            x  H                18         0.000000   0.503841   0.367615   x
            x  H                19        -0.000000   0.732661   0.682445   x
            x  H                20         0.000000   0.866682   0.547630   x
            x  H                21         0.000000   0.996159   0.867615   x
            x  H                22         0.000000   0.232661   0.817555   x
            x  H                23        -0.000000   0.366682   0.952370   x
            x  H                24        -0.000000   0.496159   0.632385   x
            xxxxxxxxxxxxxxxxxxxxxxxxxxxxxxxxxxxxxxxxxxxxxxxxxxxxxxxxxxxxxxxxx


------------------------------------------------------------------------ <-- SCF
SCF loop      Energy                           Energy gain       Timer   <-- SCF
                                               per atom          (sec)   <-- SCF
------------------------------------------------------------------------ <-- SCF
Initial  -3.40838100E+002                                        530.16  <-- SCF
      1  -3.41026146E+002                    7.83524930E-003     553.08  <-- SCF
      2  -3.41026877E+002                    3.04588212E-005     579.42  <-- SCF
      3  -3.41002812E+002                   -1.00270396E-003     601.53  <-- SCF
      4  -3.41002205E+002                   -2.53192850E-005     625.79  <-- SCF
      5  -3.41002203E+002                   -6.49621906E-008     650.81  <-- SCF
      6  -3.41002203E+002                    6.42033923E-010     674.70  <-- SCF
      7  -3.41002203E+002                    3.77251172E-011     692.76  <-- SCF
      8  -3.41002203E+002                    1.44407181E-012     709.29  <-- SCF
      9  -3.41002203E+002                    5.23652260E-014     727.54  <-- SCF
------------------------------------------------------------------------ <-- SCF
 
Final energy =  -341.0022032025     eV
(energy not corrected for finite basis set)
 

 ************************************** Forces **************************************
 *                                                                                  *
 *                           Cartesian components (eV/A)                            *
 * -------------------------------------------------------------------------------- *
 *                         x                    y                    z              *
 *                                                                                  *
 * H               1      0.00000              0.01162              0.30845         *
 * H               2      0.00000             -0.27610              0.16998         *
 * H               3     -0.00000              0.17028             -0.12392         *
 * H               4     -0.00000              0.17028              0.12392         *
 * H               5      0.00000             -0.27610             -0.16998         *
 * H               6      0.00000              0.01162             -0.30845         *
 * H               7     -0.00000             -0.17028              0.12392         *
 * H               8      0.00000              0.27610             -0.16998         *
 * H               9     -0.00000             -0.01162             -0.30845         *
 * H              10      0.00000             -0.17028             -0.12392         *
 * H              11     -0.00000              0.27610              0.16998         *
 * H              12     -0.00000             -0.01162              0.30845         *
 * H              13      0.00000              0.17028             -0.12392         *
 * H              14     -0.00000             -0.27610              0.16998         *
 * H              15      0.00000              0.01162              0.30845         *
 * H              16      0.00000              0.17028              0.12392         *
 * H              17     -0.00000             -0.27610             -0.16998         *
 * H              18     -0.00000              0.01162             -0.30845         *
 * H              19      0.00000             -0.17028              0.12392         *
 * H              20     -0.00000              0.27610             -0.16998         *
 * H              21     -0.00000             -0.01162             -0.30845         *
 * H              22     -0.00000             -0.17028             -0.12392         *
 * H              23      0.00000              0.27610              0.16998         *
 * H              24      0.00000             -0.01162              0.30845         *
 *                                                                                  *
 ************************************************************************************

 ***************** Stress Tensor *****************
 *                                               *
 *          Cartesian components (GPa)           *
 * --------------------------------------------- *
 *             x             y             z     *
 *                                               *
 *  x   -300.185224     -0.000000     -0.000000  *
 *  y     -0.000000   -307.217921     -0.000000  *
 *  z     -0.000000     -0.000000   -307.461771  *
 *                                               *
 *  Pressure:  304.9550                          *
 *                                               *
 *************************************************
  
 +------------+-------------+-------------+-----------------+ <-- min LBFGS
 |    Step    |   lambda    |   F.delta'  |    enthalpy     | <-- min LBFGS
 +------------+-------------+-------------+-----------------+ <-- min LBFGS
 |  previous  |    0.000000 |    0.062384 |     -275.804738 | <-- min LBFGS
 | trial step |    1.000000 |   -0.172778 |     -275.787043 | <-- min LBFGS
 +------------+-------------+-------------+-----------------+ <-- min LBFGS
  

--------------------------------------------------------------------------------
 LBFGS: improving iteration         1 with line minimization (lambda=  0.265281)
--------------------------------------------------------------------------------

                           -------------------------------
                                      Unit Cell
                           -------------------------------
        Real Lattice(A)              Reciprocal Lattice(1/A)
     2.5561453    -0.0000000    -0.0000000        2.458070436   0.000000000   0.000000000
    -0.0000000     4.7486565    -0.0000000        0.000000000   1.323150100   0.000000000
    -0.0000000    -0.0000000     2.8693241        0.000000000   0.000000000   2.189778841

                       Lattice parameters(A)       Cell Angles
                    a =      2.556145          alpha =   90.000000
                    b =      4.748656          beta  =   90.000000
                    c =      2.869324          gamma =   90.000000

                Current cell volume =            34.828592 A**3

                           -------------------------------
                                     Cell Contents
                           -------------------------------

            xxxxxxxxxxxxxxxxxxxxxxxxxxxxxxxxxxxxxxxxxxxxxxxxxxxxxxxxxxxxxxxxx
            x  Element         Atom        Fractional coordinates of atoms  x
            x                 Number           u          v          w      x
            x---------------------------------------------------------------x
            x  H                 1        -0.000000   0.003664   0.134894   x
            x  H                 2        -0.000000   0.132129   0.452612   x
            x  H                 3         0.000000   0.268486   0.316633   x
            x  H                 4         0.500000   0.268486   0.183367   x
            x  H                 5         0.500000   0.132129   0.047388   x
            x  H                 6         0.500000   0.003664   0.365106   x
            x  H                 7         0.500000   0.231514   0.683367   x
            x  H                 8         0.500000   0.367871   0.547388   x
            x  H                 9         0.500000   0.496336   0.865106   x
            x  H                10         0.500000   0.731514   0.816633   x
            x  H                11         0.500000   0.867871   0.952612   x
            x  H                12         0.500000   0.996336   0.634894   x
            x  H                13         0.500000   0.768486   0.316633   x
            x  H                14         0.500000   0.632129   0.452612   x
            x  H                15         0.500000   0.503664   0.134894   x
            x  H                16         0.000000   0.768486   0.183367   x
            x  H                17         0.000000   0.632129   0.047388   x
            x  H                18         0.000000   0.503664   0.365106   x
            x  H                19        -0.000000   0.731514   0.683367   x
            x  H                20         0.000000   0.867871   0.547388   x
            x  H                21         0.000000   0.996336   0.865106   x
            x  H                22         0.000000   0.231514   0.816633   x
            x  H                23        -0.000000   0.367871   0.952612   x
            x  H                24        -0.000000   0.496336   0.634894   x
            xxxxxxxxxxxxxxxxxxxxxxxxxxxxxxxxxxxxxxxxxxxxxxxxxxxxxxxxxxxxxxxxx


------------------------------------------------------------------------ <-- SCF
SCF loop      Energy                           Energy gain       Timer   <-- SCF
                                               per atom          (sec)   <-- SCF
------------------------------------------------------------------------ <-- SCF
Initial  -3.40933734E+002                                        787.75  <-- SCF
      1  -3.41035543E+002                    4.24206388E-003     807.73  <-- SCF
      2  -3.41035951E+002                    1.69726205E-005     833.38  <-- SCF
      3  -3.41022942E+002                   -5.42052550E-004     858.92  <-- SCF
      4  -3.41022619E+002                   -1.34402069E-005     882.99  <-- SCF
      5  -3.41022618E+002                   -3.49560078E-008     907.14  <-- SCF
      6  -3.41022618E+002                    3.03772690E-010     931.63  <-- SCF
      7  -3.41022618E+002                    1.88152285E-011     950.90  <-- SCF
      8  -3.41022618E+002                    9.52644303E-013     967.71  <-- SCF
      9  -3.41022618E+002                   -1.57095678E-013     984.33  <-- SCF
------------------------------------------------------------------------ <-- SCF
 
Final energy =  -341.0226181729     eV
(energy not corrected for finite basis set)
 

 ************************************** Forces **************************************
 *                                                                                  *
 *                           Cartesian components (eV/A)                            *
 * -------------------------------------------------------------------------------- *
 *                         x                    y                    z              *
 *                                                                                  *
 * H               1     -0.00000              0.01104             -0.00054         *
 * H               2      0.00000             -0.01130              0.03539         *
 * H               3     -0.00000             -0.01486             -0.00304         *
 * H               4     -0.00000             -0.01486              0.00304         *
 * H               5      0.00000             -0.01130             -0.03539         *
 * H               6     -0.00000              0.01104              0.00054         *
 * H               7     -0.00000              0.01486              0.00304         *
 * H               8      0.00000              0.01130             -0.03539         *
 * H               9      0.00000             -0.01104              0.00054         *
 * H              10      0.00000              0.01486             -0.00304         *
 * H              11     -0.00000              0.01130              0.03539         *
 * H              12      0.00000             -0.01104             -0.00054         *
 * H              13      0.00000             -0.01486             -0.00304         *
 * H              14     -0.00000             -0.01130              0.03539         *
 * H              15     -0.00000              0.01104             -0.00054         *
 * H              16     -0.00000             -0.01486              0.00304         *
 * H              17      0.00000             -0.01130             -0.03539         *
 * H              18     -0.00000              0.01104              0.00054         *
 * H              19      0.00000              0.01486              0.00304         *
 * H              20     -0.00000              0.01130             -0.03539         *
 * H              21      0.00000             -0.01104              0.00054         *
 * H              22      0.00000              0.01486             -0.00304         *
 * H              23      0.00000              0.01130              0.03539         *
 * H              24      0.00000             -0.01104             -0.00054         *
 *                                                                                  *
 ************************************************************************************

 ***************** Stress Tensor *****************
 *                                               *
 *          Cartesian components (GPa)           *
 * --------------------------------------------- *
 *             x             y             z     *
 *                                               *
 *  x   -301.922018     -0.000000     -0.000000  *
 *  y     -0.000000   -302.420546      0.000000  *
 *  z     -0.000000      0.000000   -299.451019  *
 *                                               *
 *  Pressure:  301.2645                          *
 *                                               *
 *************************************************
  
 +------------+-------------+-------------+-----------------+ <-- min LBFGS
 |    Step    |   lambda    |   F.delta'  |    enthalpy     | <-- min LBFGS
 +------------+-------------+-------------+-----------------+ <-- min LBFGS
 |  previous  |    0.000000 |    0.062384 |     -275.804738 | <-- min LBFGS
 | trial step |    1.000000 |   -0.172778 |     -275.787043 | <-- min LBFGS
 |  line step |    0.265281 |    0.003585 |     -275.807726 | <-- min LBFGS
 +------------+-------------+-------------+-----------------+ <-- min LBFGS
  
 LBFGS: finished iteration     1 with enthalpy= -2.75807726E+002 eV
  
 +-----------+-----------------+-----------------+------------+-----+ <-- LBFGS
 | Parameter |      value      |    tolerance    |    units   | OK? | <-- LBFGS
 +-----------+-----------------+-----------------+------------+-----+ <-- LBFGS
 |  dE/ion   |   1.244952E-004 |   1.000000E-009 |         eV | No  | <-- LBFGS
 |  |F|max   |   3.715081E-002 |   1.000000E-005 |       eV/A | No  | <-- LBFGS
 |  |dR|max  |   2.617276E-003 |   1.000000E-005 |          A | No  | <-- LBFGS
 |   Smax    |   2.420546E+000 |   1.000000E-005 |        GPa | No  | <-- LBFGS
 +-----------+-----------------+-----------------+------------+-----+ <-- LBFGS
  

================================================================================
 Starting LBFGS iteration          2 ...
================================================================================
  
 +------------+-------------+-------------+-----------------+ <-- min LBFGS
 |    Step    |   lambda    |   F.delta'  |    enthalpy     | <-- min LBFGS
 +------------+-------------+-------------+-----------------+ <-- min LBFGS
 |  previous  |    0.000000 |    0.024275 |     -275.807726 | <-- min LBFGS
 +------------+-------------+-------------+-----------------+ <-- min LBFGS
  

--------------------------------------------------------------------------------
 LBFGS: starting iteration         2 with trial guess (lambda=  1.000000)
--------------------------------------------------------------------------------
 
+---------------- MEMORY AND SCRATCH DISK ESTIMATES PER PROCESS --------------+
|                                                     Memory          Disk    |
| Model and support data                               73.7 MB         0.0 MB |
| Electronic energy minimisation requirements          54.6 MB         0.0 MB |
| Geometry minimisation requirements                   75.8 MB         0.0 MB |
|                                               ----------------------------- |
| Approx. total storage required per process          204.1 MB         0.0 MB |
|                                                                             |
| Requirements will fluctuate during execution and may exceed these estimates |
+-----------------------------------------------------------------------------+
 

                           -------------------------------
                                      Unit Cell
                           -------------------------------
        Real Lattice(A)              Reciprocal Lattice(1/A)
     2.5600436     0.0000000     0.0000000        2.454327462  -0.000000000  -0.000000000
     0.0000000     4.7570287    -0.0000000       -0.000000000   1.320821395   0.000000000
     0.0000000    -0.0000000     2.8675848       -0.000000000   0.000000001   2.191107041

                       Lattice parameters(A)       Cell Angles
                    a =      2.560044          alpha =   90.000000
                    b =      4.757029          beta  =   90.000000
                    c =      2.867585          gamma =   90.000000

                Current cell volume =            34.922024 A**3

                           -------------------------------
                                     Cell Contents
                           -------------------------------

            xxxxxxxxxxxxxxxxxxxxxxxxxxxxxxxxxxxxxxxxxxxxxxxxxxxxxxxxxxxxxxxxx
            x  Element         Atom        Fractional coordinates of atoms  x
            x                 Number           u          v          w      x
            x---------------------------------------------------------------x
            x  H                 1        -0.000000   0.003927   0.134537   x
            x  H                 2         0.000000   0.132044   0.453848   x
            x  H                 3        -0.000000   0.268010   0.316648   x
            x  H                 4         0.500000   0.268010   0.183352   x
            x  H                 5         0.500000   0.132044   0.046152   x
            x  H                 6         0.500000   0.003927   0.365463   x
            x  H                 7         0.500000   0.231990   0.683352   x
            x  H                 8         0.500000   0.367956   0.546152   x
            x  H                 9         0.500000   0.496073   0.865463   x
            x  H                10         0.500000   0.731990   0.816648   x
            x  H                11         0.500000   0.867956   0.953848   x
            x  H                12         0.500000   0.996073   0.634537   x
            x  H                13         0.500000   0.768010   0.316648   x
            x  H                14         0.500000   0.632044   0.453848   x
            x  H                15         0.500000   0.503927   0.134537   x
            x  H                16        -0.000000   0.768010   0.183352   x
            x  H                17         0.000000   0.632044   0.046152   x
            x  H                18        -0.000000   0.503927   0.365463   x
            x  H                19         0.000000   0.731990   0.683352   x
            x  H                20        -0.000000   0.867956   0.546152   x
            x  H                21         0.000000   0.996073   0.865463   x
            x  H                22         0.000000   0.231990   0.816648   x
            x  H                23         0.000000   0.367956   0.953848   x
            x  H                24         0.000000   0.496073   0.634537   x
            xxxxxxxxxxxxxxxxxxxxxxxxxxxxxxxxxxxxxxxxxxxxxxxxxxxxxxxxxxxxxxxxx


------------------------------------------------------------------------ <-- SCF
SCF loop      Energy                           Energy gain       Timer   <-- SCF
                                               per atom          (sec)   <-- SCF
------------------------------------------------------------------------ <-- SCF
Initial  -3.41190966E+002                                       1041.50  <-- SCF
      1  -3.41199070E+002                    3.37692250E-004    1067.35  <-- SCF
      2  -3.41199098E+002                    1.15852018E-006    1091.57  <-- SCF
      3  -3.41199049E+002                   -2.04193330E-006    1118.91  <-- SCF
      4  -3.41199052E+002                    1.18820966E-007    1144.30  <-- SCF
      5  -3.41199052E+002                    2.67242104E-009    1168.04  <-- SCF
      6  -3.41199052E+002                    1.00974254E-010    1186.71  <-- SCF
      7  -3.41199052E+002                    3.00093026E-012    1204.14  <-- SCF
      8  -3.41199052E+002                    5.23652260E-014    1220.86  <-- SCF
------------------------------------------------------------------------ <-- SCF
 
Final energy =  -341.1990519010     eV
(energy not corrected for finite basis set)
 

 ************************************** Forces **************************************
 *                                                                                  *
 *                           Cartesian components (eV/A)                            *
 * -------------------------------------------------------------------------------- *
 *                         x                    y                    z              *
 *                                                                                  *
 * H               1      0.00000              0.00718              0.04405         *
 * H               2     -0.00000              0.01666              0.00604         *
 * H               3      0.00000             -0.03637              0.00883         *
 * H               4      0.00000             -0.03637             -0.00883         *
 * H               5     -0.00000              0.01666             -0.00604         *
 * H               6      0.00000              0.00718             -0.04405         *
 * H               7      0.00000              0.03637             -0.00883         *
 * H               8     -0.00000             -0.01666             -0.00604         *
 * H               9     -0.00000             -0.00718             -0.04405         *
 * H              10     -0.00000              0.03637              0.00883         *
 * H              11      0.00000             -0.01666              0.00604         *
 * H              12     -0.00000             -0.00718              0.04405         *
 * H              13     -0.00000             -0.03637              0.00883         *
 * H              14      0.00000              0.01666              0.00604         *
 * H              15      0.00000              0.00718              0.04405         *
 * H              16      0.00000             -0.03637             -0.00883         *
 * H              17     -0.00000              0.01666             -0.00604         *
 * H              18      0.00000              0.00718             -0.04405         *
 * H              19      0.00000              0.03637             -0.00883         *
 * H              20      0.00000             -0.01666             -0.00604         *
 * H              21     -0.00000             -0.00718             -0.04405         *
 * H              22      0.00000              0.03637              0.00883         *
 * H              23     -0.00000             -0.01666              0.00604         *
 * H              24     -0.00000             -0.00718              0.04405         *
 *                                                                                  *
 ************************************************************************************

 ***************** Stress Tensor *****************
 *                                               *
 *          Cartesian components (GPa)           *
 * --------------------------------------------- *
 *             x             y             z     *
 *                                               *
 *  x   -299.571151      0.000000      0.000000  *
 *  y      0.000000   -298.732940     -0.000000  *
 *  z      0.000000     -0.000000   -299.569840  *
 *                                               *
 *  Pressure:  299.2913                          *
 *                                               *
 *************************************************
  
 +------------+-------------+-------------+-----------------+ <-- min LBFGS
 |    Step    |   lambda    |   F.delta'  |    enthalpy     | <-- min LBFGS
 +------------+-------------+-------------+-----------------+ <-- min LBFGS
 |  previous  |    0.000000 |    0.024275 |     -275.807726 | <-- min LBFGS
 | trial step |    1.000000 |   -0.000640 |     -275.809211 | <-- min LBFGS
 +------------+-------------+-------------+-----------------+ <-- min LBFGS
  
 LBFGS: finished iteration     2 with enthalpy= -2.75809211E+002 eV
  
 +-----------+-----------------+-----------------+------------+-----+ <-- LBFGS
 | Parameter |      value      |    tolerance    |    units   | OK? | <-- LBFGS
 +-----------+-----------------+-----------------+------------+-----+ <-- LBFGS
 |  dE/ion   |   6.187095E-005 |   1.000000E-009 |         eV | No  | <-- LBFGS
 |  |F|max   |   4.462835E-002 |   1.000000E-005 |       eV/A | No  | <-- LBFGS
 |  |dR|max  |   3.565349E-003 |   1.000000E-005 |          A | No  | <-- LBFGS
 |   Smax    |   1.267060E+000 |   1.000000E-005 |        GPa | No  | <-- LBFGS
 +-----------+-----------------+-----------------+------------+-----+ <-- LBFGS
  

================================================================================
 Starting LBFGS iteration          3 ...
================================================================================
  
 +------------+-------------+-------------+-----------------+ <-- min LBFGS
 |    Step    |   lambda    |   F.delta'  |    enthalpy     | <-- min LBFGS
 +------------+-------------+-------------+-----------------+ <-- min LBFGS
 |  previous  |    0.000000 |    0.016956 |     -275.809211 | <-- min LBFGS
 +------------+-------------+-------------+-----------------+ <-- min LBFGS
  

--------------------------------------------------------------------------------
 LBFGS: starting iteration         3 with trial guess (lambda=  1.000000)
--------------------------------------------------------------------------------
 
+---------------- MEMORY AND SCRATCH DISK ESTIMATES PER PROCESS --------------+
|                                                     Memory          Disk    |
| Model and support data                               73.7 MB         0.0 MB |
| Electronic energy minimisation requirements          54.7 MB         0.0 MB |
| Geometry minimisation requirements                   75.9 MB         0.0 MB |
|                                               ----------------------------- |
| Approx. total storage required per process          204.3 MB         0.0 MB |
|                                                                             |
| Requirements will fluctuate during execution and may exceed these estimates |
+-----------------------------------------------------------------------------+
 

                           -------------------------------
                                      Unit Cell
                           -------------------------------
        Real Lattice(A)              Reciprocal Lattice(1/A)
     2.5631397     0.0000000     0.0000000        2.451362824  -0.000000000  -0.000000000
     0.0000000     4.7612987    -0.0000000       -0.000000000   1.319636875   0.000000001
     0.0000000    -0.0000000     2.8650814       -0.000000000   0.000000001   2.193021556

                       Lattice parameters(A)       Cell Angles
                    a =      2.563140          alpha =   90.000000
                    b =      4.761299          beta  =   90.000000
                    c =      2.865081          gamma =   90.000000

                Current cell volume =            34.965091 A**3

                           -------------------------------
                                     Cell Contents
                           -------------------------------

            xxxxxxxxxxxxxxxxxxxxxxxxxxxxxxxxxxxxxxxxxxxxxxxxxxxxxxxxxxxxxxxxx
            x  Element         Atom        Fractional coordinates of atoms  x
            x                 Number           u          v          w      x
            x---------------------------------------------------------------x
            x  H                 1        -0.000000   0.004328   0.135638   x
            x  H                 2        -0.000000   0.132293   0.455253   x
            x  H                 3         0.000000   0.266819   0.316953   x
            x  H                 4         0.500000   0.266819   0.183047   x
            x  H                 5         0.500000   0.132293   0.044747   x
            x  H                 6         0.500000   0.004328   0.364362   x
            x  H                 7         0.500000   0.233181   0.683047   x
            x  H                 8         0.500000   0.367707   0.544747   x
            x  H                 9         0.500000   0.495672   0.864362   x
            x  H                10         0.500000   0.733181   0.816953   x
            x  H                11         0.500000   0.867707   0.955253   x
            x  H                12         0.500000   0.995672   0.635638   x
            x  H                13         0.500000   0.766819   0.316953   x
            x  H                14         0.500000   0.632293   0.455253   x
            x  H                15         0.500000   0.504328   0.135638   x
            x  H                16        -0.000000   0.766819   0.183047   x
            x  H                17        -0.000000   0.632293   0.044747   x
            x  H                18        -0.000000   0.504328   0.364362   x
            x  H                19         0.000000   0.733181   0.683047   x
            x  H                20         0.000000   0.867707   0.544747   x
            x  H                21         0.000000   0.995672   0.864362   x
            x  H                22         0.000000   0.233181   0.816953   x
            x  H                23        -0.000000   0.367707   0.955253   x
            x  H                24         0.000000   0.495672   0.635638   x
            xxxxxxxxxxxxxxxxxxxxxxxxxxxxxxxxxxxxxxxxxxxxxxxxxxxxxxxxxxxxxxxxx


------------------------------------------------------------------------ <-- SCF
SCF loop      Energy                           Energy gain       Timer   <-- SCF
                                               per atom          (sec)   <-- SCF
------------------------------------------------------------------------ <-- SCF
Initial  -3.41254042E+002                                       1278.29  <-- SCF
      1  -3.41279042E+002                    1.04164905E-003    1301.47  <-- SCF
      2  -3.41279120E+002                    3.27633372E-006    1326.97  <-- SCF
      3  -3.41277111E+002                   -8.37106349E-005    1353.67  <-- SCF
      4  -3.41277115E+002                    1.64009149E-007    1379.85  <-- SCF
      5  -3.41277116E+002                    2.96098969E-008    1403.64  <-- SCF
      6  -3.41277116E+002                    4.07147688E-010    1428.16  <-- SCF
      7  -3.41277116E+002                    7.61712633E-012    1445.93  <-- SCF
      8  -3.41277116E+002                    5.29694401E-013    1464.96  <-- SCF
------------------------------------------------------------------------ <-- SCF
 
Final energy =  -341.2771157882     eV
(energy not corrected for finite basis set)
 

 ************************************** Forces **************************************
 *                                                                                  *
 *                           Cartesian components (eV/A)                            *
 * -------------------------------------------------------------------------------- *
 *                         x                    y                    z              *
 *                                                                                  *
 * H               1      0.00000             -0.03019             -0.14251         *
 * H               2      0.00000             -0.08054              0.04811         *
 * H               3     -0.00000              0.09212             -0.03272         *
 * H               4      0.00000              0.09212              0.03272         *
 * H               5     -0.00000             -0.08054             -0.04811         *
 * H               6      0.00000             -0.03019              0.14251         *
 * H               7      0.00000             -0.09212              0.03272         *
 * H               8     -0.00000              0.08054             -0.04811         *
 * H               9     -0.00000              0.03019              0.14251         *
 * H              10     -0.00000             -0.09212             -0.03272         *
 * H              11      0.00000              0.08054              0.04811         *
 * H              12     -0.00000              0.03019             -0.14251         *
 * H              13      0.00000              0.09212             -0.03272         *
 * H              14      0.00000             -0.08054              0.04811         *
 * H              15      0.00000             -0.03019             -0.14251         *
 * H              16     -0.00000              0.09212              0.03272         *
 * H              17      0.00000             -0.08054             -0.04811         *
 * H              18      0.00000             -0.03019              0.14251         *
 * H              19      0.00000             -0.09212              0.03272         *
 * H              20     -0.00000              0.08054             -0.04811         *
 * H              21     -0.00000              0.03019              0.14251         *
 * H              22     -0.00000             -0.09212             -0.03272         *
 * H              23      0.00000              0.08054              0.04811         *
 * H              24     -0.00000              0.03019             -0.14251         *
 *                                                                                  *
 ************************************************************************************

 ***************** Stress Tensor *****************
 *                                               *
 *          Cartesian components (GPa)           *
 * --------------------------------------------- *
 *             x             y             z     *
 *                                               *
 *  x   -297.558648      0.000000      0.000000  *
 *  y      0.000000   -299.667691     -0.000000  *
 *  z      0.000000     -0.000000   -298.595413  *
 *                                               *
 *  Pressure:  298.6073                          *
 *                                               *
 *************************************************
  
 +------------+-------------+-------------+-----------------+ <-- min LBFGS
 |    Step    |   lambda    |   F.delta'  |    enthalpy     | <-- min LBFGS
 +------------+-------------+-------------+-----------------+ <-- min LBFGS
 |  previous  |    0.000000 |    0.016956 |     -275.809211 | <-- min LBFGS
 | trial step |    1.000000 |   -0.045799 |     -275.806635 | <-- min LBFGS
 +------------+-------------+-------------+-----------------+ <-- min LBFGS
  

--------------------------------------------------------------------------------
 LBFGS: improving iteration         3 with line minimization (lambda=  0.270195)
--------------------------------------------------------------------------------

                           -------------------------------
                                      Unit Cell
                           -------------------------------
        Real Lattice(A)              Reciprocal Lattice(1/A)
     2.5608801     0.0000000     0.0000000        2.453525726  -0.000000000  -0.000000000
     0.0000000     4.7581824    -0.0000000       -0.000000000   1.320501134   0.000000000
     0.0000000    -0.0000000     2.8669084       -0.000000000   0.000000001   2.191624003

                       Lattice parameters(A)       Cell Angles
                    a =      2.560880          alpha =   90.000000
                    b =      4.758182          beta  =   90.000000
                    c =      2.866908          gamma =   90.000000

                Current cell volume =            34.933666 A**3

                           -------------------------------
                                     Cell Contents
                           -------------------------------

            xxxxxxxxxxxxxxxxxxxxxxxxxxxxxxxxxxxxxxxxxxxxxxxxxxxxxxxxxxxxxxxxx
            x  Element         Atom        Fractional coordinates of atoms  x
            x                 Number           u          v          w      x
            x---------------------------------------------------------------x
            x  H                 1        -0.000000   0.004035   0.134835   x
            x  H                 2        -0.000000   0.132111   0.454228   x
            x  H                 3        -0.000000   0.267688   0.316731   x
            x  H                 4         0.500000   0.267688   0.183269   x
            x  H                 5         0.500000   0.132111   0.045772   x
            x  H                 6         0.500000   0.004035   0.365165   x
            x  H                 7         0.500000   0.232312   0.683269   x
            x  H                 8         0.500000   0.367889   0.545772   x
            x  H                 9         0.500000   0.495965   0.865165   x
            x  H                10         0.500000   0.732312   0.816731   x
            x  H                11         0.500000   0.867889   0.954228   x
            x  H                12         0.500000   0.995965   0.634835   x
            x  H                13         0.500000   0.767688   0.316731   x
            x  H                14         0.500000   0.632111   0.454228   x
            x  H                15         0.500000   0.504035   0.134835   x
            x  H                16        -0.000000   0.767688   0.183269   x
            x  H                17         0.000000   0.632111   0.045772   x
            x  H                18        -0.000000   0.504035   0.365165   x
            x  H                19         0.000000   0.732312   0.683269   x
            x  H                20         0.000000   0.867889   0.545772   x
            x  H                21         0.000000   0.995965   0.865165   x
            x  H                22         0.000000   0.232312   0.816731   x
            x  H                23        -0.000000   0.367889   0.954228   x
            x  H                24         0.000000   0.495965   0.634835   x
            xxxxxxxxxxxxxxxxxxxxxxxxxxxxxxxxxxxxxxxxxxxxxxxxxxxxxxxxxxxxxxxxx


------------------------------------------------------------------------ <-- SCF
SCF loop      Energy                           Energy gain       Timer   <-- SCF
                                               per atom          (sec)   <-- SCF
------------------------------------------------------------------------ <-- SCF
Initial  -3.41208965E+002                                       1526.23  <-- SCF
      1  -3.41222276E+002                    5.54613475E-004    1549.77  <-- SCF
      2  -3.41222317E+002                    1.73975688E-006    1574.71  <-- SCF
      3  -3.41221249E+002                   -4.45064360E-005    1600.00  <-- SCF
      4  -3.41221252E+002                    9.48189594E-008    1626.52  <-- SCF
      5  -3.41221252E+002                    1.58427386E-008    1651.96  <-- SCF
      6  -3.41221252E+002                    2.14284547E-010    1675.35  <-- SCF
      7  -3.41221252E+002                    4.68467368E-012    1694.72  <-- SCF
      8  -3.41221252E+002                    1.22856876E-013    1713.96  <-- SCF
------------------------------------------------------------------------ <-- SCF
 
Final energy =  -341.2212519124     eV
(energy not corrected for finite basis set)
 

 ************************************** Forces **************************************
 *                                                                                  *
 *                           Cartesian components (eV/A)                            *
 * -------------------------------------------------------------------------------- *
 *                         x                    y                    z              *
 *                                                                                  *
 * H               1      0.00000             -0.00285             -0.00698         *
 * H               2      0.00000             -0.00950              0.01705         *
 * H               3     -0.00000             -0.00164             -0.00207         *
 * H               4      0.00000             -0.00164              0.00207         *
 * H               5     -0.00000             -0.00950             -0.01705         *
 * H               6      0.00000             -0.00285              0.00698         *
 * H               7      0.00000              0.00164              0.00207         *
 * H               8     -0.00000              0.00950             -0.01705         *
 * H               9     -0.00000              0.00285              0.00698         *
 * H              10     -0.00000              0.00164             -0.00207         *
 * H              11      0.00000              0.00950              0.01705         *
 * H              12     -0.00000              0.00285             -0.00698         *
 * H              13     -0.00000             -0.00164             -0.00207         *
 * H              14      0.00000             -0.00950              0.01705         *
 * H              15      0.00000             -0.00285             -0.00698         *
 * H              16     -0.00000             -0.00164              0.00207         *
 * H              17      0.00000             -0.00950             -0.01705         *
 * H              18      0.00000             -0.00285              0.00698         *
 * H              19      0.00000              0.00164              0.00207         *
 * H              20      0.00000              0.00950             -0.01705         *
 * H              21     -0.00000              0.00285              0.00698         *
 * H              22     -0.00000              0.00164             -0.00207         *
 * H              23      0.00000              0.00950              0.01705         *
 * H              24     -0.00000              0.00285             -0.00698         *
 *                                                                                  *
 ************************************************************************************

 ***************** Stress Tensor *****************
 *                                               *
 *          Cartesian components (GPa)           *
 * --------------------------------------------- *
 *             x             y             z     *
 *                                               *
 *  x   -299.026817      0.000000      0.000000  *
 *  y      0.000000   -298.983056     -0.000000  *
 *  z      0.000000     -0.000000   -299.296389  *
 *                                               *
 *  Pressure:  299.1021                          *
 *                                               *
 *************************************************
  
 +------------+-------------+-------------+-----------------+ <-- min LBFGS
 |    Step    |   lambda    |   F.delta'  |    enthalpy     | <-- min LBFGS
 +------------+-------------+-------------+-----------------+ <-- min LBFGS
 |  previous  |    0.000000 |    0.016956 |     -275.809211 | <-- min LBFGS
 | trial step |    1.000000 |   -0.045799 |     -275.806635 | <-- min LBFGS
 |  line step |    0.270195 |   -0.000121 |     -275.809613 | <-- min LBFGS
 +------------+-------------+-------------+-----------------+ <-- min LBFGS
  
 LBFGS: finished iteration     3 with enthalpy= -2.75809613E+002 eV
  
 +-----------+-----------------+-----------------+------------+-----+ <-- LBFGS
 | Parameter |      value      |    tolerance    |    units   | OK? | <-- LBFGS
 +-----------+-----------------+-----------------+------------+-----+ <-- LBFGS
 |  dE/ion   |   1.674278E-005 |   1.000000E-009 |         eV | No  | <-- LBFGS
 |  |F|max   |   1.951590E-002 |   1.000000E-005 |       eV/A | No  | <-- LBFGS
 |  |dR|max  |   1.548448E-003 |   1.000000E-005 |          A | No  | <-- LBFGS
 |   Smax    |   1.016944E+000 |   1.000000E-005 |        GPa | No  | <-- LBFGS
 +-----------+-----------------+-----------------+------------+-----+ <-- LBFGS
  

================================================================================
 Starting LBFGS iteration          4 ...
================================================================================
  
 +------------+-------------+-------------+-----------------+ <-- min LBFGS
 |    Step    |   lambda    |   F.delta'  |    enthalpy     | <-- min LBFGS
 +------------+-------------+-------------+-----------------+ <-- min LBFGS
 |  previous  |    0.000000 |    0.009125 |     -275.809613 | <-- min LBFGS
 +------------+-------------+-------------+-----------------+ <-- min LBFGS
  

--------------------------------------------------------------------------------
 LBFGS: starting iteration         4 with trial guess (lambda=  1.000000)
--------------------------------------------------------------------------------

                           -------------------------------
                                      Unit Cell
                           -------------------------------
        Real Lattice(A)              Reciprocal Lattice(1/A)
     2.5599349     0.0000000     0.0000000        2.454431629  -0.000000000  -0.000000000
     0.0000000     4.7559005    -0.0000000       -0.000000000   1.321134723   0.000000000
     0.0000000    -0.0000000     2.8649620       -0.000000000   0.000000000   2.193112978

                       Lattice parameters(A)       Cell Angles
                    a =      2.559935          alpha =   90.000000
                    b =      4.755901          beta  =   90.000000
                    c =      2.864962          gamma =   90.000000

                Current cell volume =            34.880328 A**3

                           -------------------------------
                                     Cell Contents
                           -------------------------------

            xxxxxxxxxxxxxxxxxxxxxxxxxxxxxxxxxxxxxxxxxxxxxxxxxxxxxxxxxxxxxxxxx
            x  Element         Atom        Fractional coordinates of atoms  x
            x                 Number           u          v          w      x
            x---------------------------------------------------------------x
            x  H                 1        -0.000000   0.004066   0.134811   x
            x  H                 2        -0.000000   0.131989   0.455098   x
            x  H                 3        -0.000000   0.267380   0.316740   x
            x  H                 4         0.500000   0.267380   0.183260   x
            x  H                 5         0.500000   0.131989   0.044902   x
            x  H                 6         0.500000   0.004066   0.365189   x
            x  H                 7         0.500000   0.232620   0.683260   x
            x  H                 8         0.500000   0.368011   0.544902   x
            x  H                 9         0.500000   0.495934   0.865189   x
            x  H                10         0.500000   0.732620   0.816740   x
            x  H                11         0.500000   0.868011   0.955098   x
            x  H                12         0.500000   0.995934   0.634811   x
            x  H                13         0.500000   0.767380   0.316740   x
            x  H                14         0.500000   0.631989   0.455098   x
            x  H                15         0.500000   0.504066   0.134811   x
            x  H                16        -0.000000   0.767380   0.183260   x
            x  H                17         0.000000   0.631989   0.044902   x
            x  H                18        -0.000000   0.504066   0.365189   x
            x  H                19         0.000000   0.732620   0.683260   x
            x  H                20         0.000000   0.868011   0.544902   x
[...]
      H     1      S                    0.999
      H     2      S                    1.026
      H     3      S                    0.975
      H     4      S                    0.975
      H     5      S                    1.026
      H     6      S                    0.999
      H     7      S                    0.975
      H     8      S                    1.026
      H     9      S                    0.999
      H    10      S                    0.975
      H    11      S                    1.026
      H    12      S                    0.999
      H    13      S                    0.975
      H    14      S                    1.026
      H    15      S                    0.999
      H    16      S                    0.975
      H    17      S                    1.026
      H    18      S                    0.999
      H    19      S                    0.975
      H    20      S                    1.026
      H    21      S                    0.999
      H    22      S                    0.975
      H    23      S                    1.026
      H    24      S                    0.999
  -------------------------------------------
                           Total:      24.000
  -------------------------------------------

     Atomic Populations (Mulliken)
     -----------------------------
Species          Ion     s      p      d      f     Total  Charge (e)
=====================================================================
  H               1     1.00   0.00   0.00   0.00   1.00     0.00
  H               2     1.03   0.00   0.00   0.00   1.03    -0.03
  H               3     0.97   0.00   0.00   0.00   0.97     0.03
  H               4     0.97   0.00   0.00   0.00   0.97     0.03
  H               5     1.03   0.00   0.00   0.00   1.03    -0.03
  H               6     1.00   0.00   0.00   0.00   1.00     0.00
  H               7     0.97   0.00   0.00   0.00   0.97     0.03
  H               8     1.03   0.00   0.00   0.00   1.03    -0.03
  H               9     1.00   0.00   0.00   0.00   1.00     0.00
  H              10     0.97   0.00   0.00   0.00   0.97     0.03
  H              11     1.03   0.00   0.00   0.00   1.03    -0.03
  H              12     1.00   0.00   0.00   0.00   1.00     0.00
  H              13     0.97   0.00   0.00   0.00   0.97     0.03
  H              14     1.03   0.00   0.00   0.00   1.03    -0.03
  H              15     1.00   0.00   0.00   0.00   1.00     0.00
  H              16     0.97   0.00   0.00   0.00   0.97     0.03
  H              17     1.03   0.00   0.00   0.00   1.03    -0.03
  H              18     1.00   0.00   0.00   0.00   1.00     0.00
  H              19     0.97   0.00   0.00   0.00   0.97     0.03
  H              20     1.03   0.00   0.00   0.00   1.03    -0.03
  H              21     1.00   0.00   0.00   0.00   1.00     0.00
  H              22     0.97   0.00   0.00   0.00   0.97     0.03
  H              23     1.03   0.00   0.00   0.00   1.03    -0.03
  H              24     1.00   0.00   0.00   0.00   1.00     0.00
=====================================================================

                 Bond                   Population      Length (A)
======================================================================
              H 10 -- H 11                   1.70        0.75598
              H 22 -- H 23                   1.70        0.75598
              H 4  -- H 5                    1.70        0.75598
              H 7  -- H 8                    1.70        0.75598
              H 16 -- H 17                   1.70        0.75598
              H 13 -- H 14                   1.70        0.75598
              H 19 -- H 20                   1.70        0.75598
              H 2  -- H 3                    1.70        0.75598
              H 6  -- H 12                   1.46        0.77312
              H 9  -- H 15                   1.46        0.77312
              H 18 -- H 24                   1.46        0.77312
              H 1  -- H 21                   1.46        0.77312
              H 20 -- H 21                   0.19        1.10242
              H 8  -- H 9                    0.19        1.10242
              H 1  -- H 2                    0.19        1.10242
              H 14 -- H 15                   0.19        1.10242
              H 23 -- H 24                   0.19        1.10242
              H 11 -- H 12                   0.19        1.10242
              H 17 -- H 18                   0.19        1.10242
              H 5  -- H 6                    0.19        1.10242
              H 1  -- H 16                   0.26        1.13477
              H 4  -- H 15                   0.26        1.13477
              H 21 -- H 22                   0.26        1.13477
              H 9  -- H 10                   0.26        1.13477
              H 3  -- H 18                   0.26        1.13477
              H 6  -- H 13                   0.26        1.13477
              H 19 -- H 24                   0.26        1.13477
              H 7  -- H 12                   0.26        1.13477
              H 17 -- H 19                  -0.07        1.14162
              H 5  -- H 7                   -0.07        1.14162
              H 3  -- H 23                  -0.07        1.14162
              H 11 -- H 13                  -0.07        1.14162
              H 2  -- H 22                  -0.07        1.14162
              H 16 -- H 20                  -0.07        1.14162
              H 10 -- H 14                  -0.07        1.14162
              H 4  -- H 8                   -0.07        1.14162
              H 2  -- H 20                  -0.04        1.28053
              H 8  -- H 14                  -0.04        1.28053
              H 17 -- H 23                  -0.04        1.28053
              H 5  -- H 11                  -0.04        1.28053
              H 13 -- H 16                   0.03        1.33556
              H 7  -- H 22                   0.03        1.33556
              H 3  -- H 4                    0.03        1.33556
              H 10 -- H 19                   0.03        1.33556
              H 2  -- H 21                  -0.28        1.34098
              H 17 -- H 24                  -0.28        1.34098
              H 1  -- H 20                  -0.28        1.34098
              H 5  -- H 12                  -0.28        1.34098
              H 9  -- H 14                  -0.28        1.34098
              H 18 -- H 23                  -0.28        1.34098
              H 8  -- H 15                  -0.28        1.34098
              H 6  -- H 11                  -0.28        1.34098
              H 22 -- H 24                  -0.09        1.35606
              H 10 -- H 12                  -0.09        1.35606
              H 16 -- H 18                  -0.09        1.35606
              H 4  -- H 6                   -0.09        1.35606
              H 7  -- H 9                   -0.09        1.35606
              H 19 -- H 21                  -0.09        1.35606
              H 13 -- H 15                  -0.09        1.35606
              H 1  -- H 3                   -0.09        1.35606
              H 6  -- H 7                   -0.24        1.42021
              H 12 -- H 13                  -0.24        1.42021
              H 3  -- H 24                  -0.24        1.42021
              H 18 -- H 19                  -0.24        1.42021
              H 4  -- H 9                   -0.24        1.42021
              H 10 -- H 15                  -0.24        1.42021
              H 16 -- H 21                  -0.24        1.42021
              H 1  -- H 22                  -0.24        1.42021
              H 9  -- H 24                  -0.20        1.44037
              H 15 -- H 18                  -0.20        1.44037
              H 12 -- H 21                  -0.20        1.44037
              H 1  -- H 6                   -0.20        1.44037
              H 12 -- H 20                  -0.14        1.44045
              H 2  -- H 6                   -0.14        1.44045
              H 8  -- H 24                  -0.14        1.44045
              H 14 -- H 18                  -0.14        1.44045
              H 15 -- H 17                  -0.14        1.44045
              H 9  -- H 23                  -0.14        1.44045
              H 1  -- H 5                   -0.14        1.44045
              H 11 -- H 21                  -0.14        1.44045
              H 10 -- H 13                  -0.32        1.44246
              H 4  -- H 7                   -0.32        1.44246
              H 3  -- H 22                  -0.32        1.44246
              H 16 -- H 19                  -0.32        1.44246
              H 10 -- H 17                  -0.21        1.51509
              H 4  -- H 23                  -0.21        1.51509
              H 5  -- H 22                  -0.21        1.51509
              H 11 -- H 16                  -0.21        1.51509
              H 14 -- H 19                  -0.21        1.51509
              H 3  -- H 8                   -0.21        1.51509
              H 2  -- H 7                   -0.21        1.51509
              H 13 -- H 20                  -0.21        1.51509
              H 9  -- H 17                  -0.16        1.52292
              H 5  -- H 21                  -0.16        1.52292
              H 2  -- H 12                  -0.16        1.52292
              H 6  -- H 20                  -0.16        1.52292
              H 15 -- H 23                  -0.16        1.52292
              H 1  -- H 11                  -0.16        1.52292
              H 14 -- H 24                  -0.16        1.52292
              H 8  -- H 18                  -0.16        1.52292
              H 8  -- H 22                  -0.39        1.63066
              H 11 -- H 19                  -0.39        1.63066
              H 7  -- H 23                  -0.39        1.63066
              H 10 -- H 20                  -0.39        1.63066
              H 14 -- H 16                  -0.39        1.63066
              H 3  -- H 5                   -0.39        1.63066
              H 13 -- H 17                  -0.39        1.63066
              H 2  -- H 4                   -0.39        1.63066
              H 10 -- H 16                  -0.41        1.66406
              H 4  -- H 22                  -0.41        1.66406
              H 13 -- H 19                  -0.41        1.66406
              H 3  -- H 7                   -0.41        1.66406
              H 5  -- H 23                  -0.26        1.72190
              H 11 -- H 17                  -0.26        1.72190
              H 14 -- H 20                  -0.26        1.72190
              H 2  -- H 8                   -0.26        1.72190
              H 11 -- H 20                  -0.70        1.73883
              H 8  -- H 23                  -0.70        1.73883
              H 14 -- H 17                  -0.70        1.73883
              H 2  -- H 5                   -0.70        1.73883
              H 3  -- H 15                  -0.17        1.78270
              H 7  -- H 21                  -0.17        1.78270
              H 1  -- H 13                  -0.17        1.78270
              H 9  -- H 19                  -0.17        1.78270
              H 6  -- H 16                  -0.17        1.78270
              H 4  -- H 18                  -0.17        1.78270
              H 12 -- H 22                  -0.17        1.78270
              H 10 -- H 24                  -0.17        1.78270
              H 21 -- H 23                  -0.18        1.78791
              H 9  -- H 11                  -0.18        1.78791
              H 5  -- H 15                  -0.18        1.78791
              H 1  -- H 17                  -0.18        1.78791
              H 8  -- H 12                  -0.18        1.78791
              H 6  -- H 14                  -0.18        1.78791
              H 20 -- H 24                  -0.18        1.78791
              H 2  -- H 18                  -0.18        1.78791
              H 7  -- H 24                  -0.32        1.79556
              H 13 -- H 18                  -0.32        1.79556
              H 12 -- H 19                  -0.32        1.79556
              H 9  -- H 22                  -0.32        1.79556
              H 10 -- H 21                  -0.32        1.79556
              H 3  -- H 6                   -0.32        1.79556
              H 1  -- H 4                   -0.32        1.79556
              H 15 -- H 16                  -0.32        1.79556
              H 5  -- H 9                   -0.30        1.80667
              H 11 -- H 15                  -0.30        1.80667
              H 1  -- H 23                  -0.30        1.80667
              H 12 -- H 14                  -0.30        1.80667
              H 6  -- H 8                   -0.30        1.80667
              H 17 -- H 21                  -0.30        1.80667
              H 18 -- H 20                  -0.30        1.80667
              H 2  -- H 24                  -0.30        1.80667
              H 5  -- H 8                   -0.42        1.82095
              H 17 -- H 20                  -0.42        1.82095
              H 11 -- H 14                  -0.42        1.82095
              H 2  -- H 23                  -0.42        1.82095
              H 1  -- H 19                  -0.43        1.82628
              H 7  -- H 15                  -0.43        1.82628
              H 9  -- H 13                  -0.43        1.82628
              H 6  -- H 10                  -0.43        1.82628
              H 3  -- H 21                  -0.43        1.82628
              H 4  -- H 12                  -0.43        1.82628
              H 18 -- H 22                  -0.43        1.82628
              H 16 -- H 24                  -0.43        1.82628
              H 2  -- H 16                  -0.11        1.90204
              H 20 -- H 22                  -0.11        1.90204
              H 4  -- H 14                  -0.11        1.90204
              H 3  -- H 17                  -0.11        1.90204
              H 8  -- H 10                  -0.11        1.90204
              H 5  -- H 13                  -0.11        1.90204
              H 7  -- H 11                  -0.11        1.90204
              H 19 -- H 23                  -0.11        1.90204
              H 6  -- H 21                  -0.53        1.92180
              H 1  -- H 12                  -0.53        1.92180
              H 15 -- H 24                  -0.53        1.92180
              H 9  -- H 18                  -0.53        1.92180
              H 5  -- H 10                  -0.14        2.00708
              H 17 -- H 22                  -0.14        2.00708
              H 2  -- H 19                  -0.14        2.00708
              H 3  -- H 20                  -0.14        2.00708
              H 7  -- H 14                  -0.14        2.00708
              H 4  -- H 11                  -0.14        2.00708
              H 8  -- H 13                  -0.14        2.00708
              H 16 -- H 23                  -0.14        2.00708
              H 1  -- H 10                  -0.24        2.03231
              H 15 -- H 22                  -0.24        2.03231
              H 4  -- H 21                  -0.24        2.03231
              H 9  -- H 16                  -0.24        2.03231
              H 6  -- H 19                  -0.24        2.03231
              H 3  -- H 12                  -0.24        2.03231
              H 7  -- H 18                  -0.24        2.03231
              H 13 -- H 24                  -0.24        2.03231
              H 3  -- H 9                   -0.22        2.12072
              H 12 -- H 16                  -0.22        2.12072
              H 6  -- H 22                  -0.22        2.12072
              H 15 -- H 19                  -0.22        2.12072
              H 1  -- H 7                   -0.22        2.12072
              H 13 -- H 21                  -0.22        2.12072
              H 4  -- H 24                  -0.22        2.12072
              H 10 -- H 18                  -0.22        2.12072
              H 2  -- H 13                  -0.04        2.19218
              H 7  -- H 20                  -0.04        2.19218
              H 3  -- H 14                  -0.04        2.19218
              H 8  -- H 19                  -0.04        2.19218
              H 5  -- H 16                  -0.04        2.19218
              H 4  -- H 17                  -0.04        2.19218
              H 11 -- H 22                  -0.04        2.19218
              H 10 -- H 23                  -0.04        2.19218
              H 5  -- H 20                  -0.07        2.29480
              H 8  -- H 17                  -0.07        2.29480
              H 2  -- H 11                  -0.07        2.29480
              H 14 -- H 23                  -0.07        2.29480
              H 8  -- H 21                   0.08        2.36907
              H 1  -- H 14                   0.08        2.36907
              H 9  -- H 20                   0.08        2.36907
              H 11 -- H 24                   0.08        2.36907
              H 2  -- H 15                   0.08        2.36907
              H 12 -- H 23                   0.08        2.36907
              H 5  -- H 18                   0.08        2.36907
              H 6  -- H 17                   0.08        2.36907
              H 7  -- H 10                  -0.06        2.40842
              H 19 -- H 22                  -0.06        2.40842
              H 4  -- H 13                  -0.06        2.40842
              H 3  -- H 16                  -0.06        2.40842
              H 3  -- H 19                  -0.03        2.45187
              H 16 -- H 22                  -0.03        2.45187
              H 7  -- H 13                  -0.03        2.45187
              H 4  -- H 10                  -0.03        2.45187
              H 5  -- H 24                   0.08        2.45325
              H 11 -- H 18                   0.08        2.45325
              H 12 -- H 17                   0.08        2.45325
              H 6  -- H 23                   0.08        2.45325
              H 14 -- H 21                   0.08        2.45325
              H 1  -- H 8                    0.08        2.45325
              H 2  -- H 9                    0.08        2.45325
              H 15 -- H 20                   0.08        2.45325
              H 21 -- H 24                  -0.00        2.46808
              H 1  -- H 18                  -0.00        2.46808
              H 9  -- H 12                  -0.00        2.46808
              H 6  -- H 15                  -0.00        2.46808
              H 2  -- H 10                   0.12        2.51229
              H 14 -- H 22                   0.12        2.51229
              H 4  -- H 20                   0.12        2.51229
              H 7  -- H 17                   0.12        2.51229
              H 5  -- H 19                   0.12        2.51229
              H 13 -- H 23                   0.12        2.51229
              H 8  -- H 16                   0.12        2.51229
              H 3  -- H 11                   0.12        2.51229
======================================================================


Writing analysis data to Cmca-12.castep_bin

Writing model to Cmca-12.check
 
 A BibTeX formatted list of references used in this run has been written to 
 Cmca-12.bib
 
Initialisation time =      9.80 s
Calculation time    =   3725.58 s
Finalisation time   =      6.09 s
Total time          =   3741.47 s
Peak Memory Use     = 592868 kB
  
Overall parallel efficiency rating: Good (79%)                                  
  
Data was distributed by:-
k-point (16-way); efficiency rating: Good (79%)                                 
