 +-------------------------------------------------+
 |                                                 |
 |      CCC   AA    SSS  TTTTT  EEEEE  PPPP        |
 |     C     A  A  S       T    E      P   P       |
 |     C     AAAA   SS     T    EEE    PPPP        |
 |     C     A  A     S    T    E      P           |
 |      CCC  A  A  SSS     T    EEEEE  P           |
 |                                                 |
 +-------------------------------------------------+
 |                                                 |
 | Welcome to Academic Release CASTEP version 18.1 |          
 | Ab Initio Total Energy Program                  |
 |                                                 |
 | Authors:                                        |
 | M. Segall, M. Probert, C. Pickard, P. Hasnip,   |
 | S. Clark, K. Refson, J. R. Yates, M. Payne      |
 |                                                 |
 | Contributors:                                   |
 | P. Lindan, P. Haynes, J. White, V. Milman,      |
 | N. Govind, M. Gibson, P. Tulip, V. Cocula,      |
 | B. Montanari, D. Quigley, M. Glover,            |
 | L. Bernasconi, A. Perlov, M. Plummer,           |
 | E. McNellis, J. Meyer, J. Gale, D. Jochym       |
 | J. Aarons, B. Walker, R. Gillen, D. Jones       |
 | T. Green, I. J. Bush, C. J. Armstrong,          |
 | E. J. Higgins, E. L. Brown, M. S. McFly,        |
 | J. Wilkins, B-C. Shih, P. J. P. Byrne           |
 |                                                 |
 | Copyright (c) 2000 - 2017                       |
 |                                                 |
 |     Distributed under the terms of an           |
 |     Agreement between the United Kingdom        |
 |     Car-Parrinello (UKCP) Consortium,           |
 |     Daresbury Laboratory and Accelrys, Inc.     |
 |                                                 |
 | Please cite                                     |
 |                                                 |
 |     "First principles methods using CASTEP"     |
 |                                                 |
 |         Zeitschrift fuer Kristallographie       |
 |           220(5-6) pp. 567-570 (2005)           |
 |                                                 |
 | S. J. Clark, M. D. Segall, C. J. Pickard,       |
 | P. J. Hasnip, M. J. Probert, K. Refson,         |
 | M. C. Payne                                     |
 |                                                 |
 |       in all publications arising from          |
 |              your use of CASTEP                 |
 |                                                 |
 +-------------------------------------------------+


 Compiled for linux_x86_64_gfortran4.8 on Thu, 19 Jul 2018 15:42:32 +0100
 from code version 70483bd0ad64+  Sun, 10 Dec 2017 12:18:29 +0000
 Compiler: GNU Fortran 4.8.5; Optimisation: fast
 MATHLIBS: Intel MKL(2018.0.0) (LAPACK version 3.7.0)
 FFT Lib : mkl
 Fundamental constants values: CODATA 2014

 Run started: Sat, 15 Aug 2020 02:45:28 +0100

 Atomic calculation performed for H: 1s1

 Converged in 41 iterations to an ae energy of -12.488 eV

   ============================================================                
   | Pseudopotential Report - Date of generation 15-08-2020   |                
   ------------------------------------------------------------                
   | Element: H Ionic charge:  1.00 Level of theory: PBE      |                
   | Atomic Solver: Koelling-Harmon                           |                
   |                                                          |                
   |               Reference Electronic Structure             |                
   |         Orbital         Occupation         Energy        |                
   |            1s              1.000           -0.239        |                
   |                                                          |                
   |                 Pseudopotential Definition               |                
   |        Beta     l      e      Rc     scheme   norm       |                
   |          1      0   -0.239   0.599     qc      0         |                
   |          2      0    0.250   0.599     qc      0         |                
   |         loc     1    0.000   0.599     pn      0         |                
   |                                                          |                
   | Augmentation charge Rinner = 0.421                       |                
   | No partial core correction                               |                
   ------------------------------------------------------------                
   | "1|0.6|13|15|17|10(qc=8)"                                |                
   ------------------------------------------------------------                
   |      Author: Chris J. Pickard, Cambridge University      |                
   ============================================================                

 Pseudo atomic calculation performed for H 1s1

 Converged in 24 iterations to a total energy of -12.4866 eV

 Calculation parallelised over 16 processes.
 Data is distributed by k-point(16-way)

 ************************************ Title ************************************
 

 ***************************** General Parameters ******************************
  
 output verbosity                               : normal  (1)
 write checkpoint data to                       : Cmca-12.check
 type of calculation                            : geometry optimization
 stress calculation                             : on
 density difference calculation                 : off
 electron localisation func (ELF) calculation   : off
 Hirshfeld analysis                             : off
 unlimited duration calculation
 timing information                             : on
 memory usage estimate                          : on
 write extra output files                       : on
 write final potential to formatted file        : off
 write final density to formatted file          : off
 write structure in CELL formatted file         : on
 write BibTeX reference list                    : on
 write OTFG pseudopotential files               : on
 write electrostatic potential file             : on
 write bands file                               : on
 checkpoint writing                             : both castep_bin and check files
  
 output         length unit                     : A
 output           mass unit                     : amu
 output           time unit                     : ps
 output         charge unit                     : e
 output           spin unit                     : hbar/2
 output         energy unit                     : eV
 output          force unit                     : eV/A
 output       velocity unit                     : A/ps
 output       pressure unit                     : GPa
 output     inv_length unit                     : 1/A
 output      frequency unit                     : cm-1
 output force constant unit                     : eV/A**2
 output         volume unit                     : A**3
 output   IR intensity unit                     : (D/A)**2/amu
 output         dipole unit                     : D
 output         efield unit                     : eV/A/e
 output        entropy unit                     : J/mol/K
  
 wavefunctions paging                           : none
 random number generator seed                   : randomised (24529033)
 data distribution                              : optimal for this architecture
 optimization strategy                          : maximize speed(+++)

 *********************** Exchange-Correlation Parameters ***********************
  
 using functional                               : Perdew Burke Ernzerhof
 relativistic treatment                         : Koelling-Harmon
 DFT+D: Semi-empirical dispersion correction    : off

 ************************* Pseudopotential Parameters **************************
  
 pseudopotential representation                 : reciprocal space
 <beta|phi> representation                      : reciprocal space
 spin-orbit coupling                            : off

 **************************** Basis Set Parameters *****************************
  
 plane wave basis set cut-off                   :  1200.0000   eV
 size of standard grid                          :     2.0000
 size of   fine   gmax                          :    35.4943   1/A
 finite basis set correction                    : automatic
 number of sample energies                      :          3
           sample  spacing                      :     5.0000   eV

 **************************** Electronic Parameters ****************************
  
 number of  electrons                           :  24.00    
 net charge of system                           :  0.000    
 treating system as non-spin-polarized
 number of bands                                :         12

 ********************* Electronic Minimization Parameters **********************
  
 Method: Treating system as non-metallic,
         and number of  SD  steps               :          1
         and number of  CG  steps               :          4
  
 total energy / atom convergence tol.           : 0.1000E-10   eV
 eigen-energy convergence tolerance             : 0.2000E-10   eV
 max force / atom convergence tol.              : ignored
 convergence tolerance window                   :          3   cycles
 max. number of SCF cycles                      :        100
 periodic dipole correction                     : NONE

 ************************** Density Mixing Parameters **************************
  
 density-mixing scheme                          : Broyden
 max. length of mixing history                  :         20
 charge density mixing amplitude                : 0.8000    
 cut-off energy for mixing                      :  1200.       eV

 *********************** Population Analysis Parameters ************************
  
 Population analysis with cutoff                :  3.000       A
 Population analysis output                     : summary and pdos components

 ********************** Geometry Optimization Parameters ***********************
  
 optimization method                            : LBFGS
 max. no. of LBFGS updates                      : unbounded
 variable cell method                           : fixed basis quality
 max. number of steps                           :        200
 estimated bulk modulus                         :  500.0       GPa
 estimated <frequency>                          :  1668.       cm-1
 geom line minimiser                            : on
 with line minimiser tolerance                  :     0.4000
 total energy convergence tolerance             : 0.1000E-08   eV/atom
        max ionic |force| tolerance             : 0.1000E-04   eV/A
 max ionic |displacement| tolerance             : 0.1000E-04   A
   max |stress component| tolerance             : 0.1000E-04   GPa
 convergence tolerance window                   :          2   steps
 backup results every                           :      14400   seconds
 write geom trajectory file                     : on

 *******************************************************************************
  

                           -------------------------------
                                      Unit Cell
                           -------------------------------
        Real Lattice(A)                      Reciprocal Lattice(1/A)
     3.1922979    -0.0000000     0.0000000        1.968232768   0.000000000  -0.000000000
    -0.0000000     5.9716322     0.0000000        0.000000000   1.052172181  -0.000000001
     0.0000000     0.0000000     3.4944856       -0.000000000  -0.000000001   1.798028692

                       Lattice parameters(A)       Cell Angles
                    a =      3.192298          alpha =   90.000000
                    b =      5.971632          beta  =   90.000000
                    c =      3.494486          gamma =   90.000000

                       Current cell volume =            66.616178       A**3
                                   density =             0.363133   AMU/A**3
                                           =             0.602997     g/cm^3

                           -------------------------------
                                     Cell Contents
                           -------------------------------
                         Total number of ions in cell =   24
                      Total number of species in cell =    1
                        Max number of any one species =   24

            xxxxxxxxxxxxxxxxxxxxxxxxxxxxxxxxxxxxxxxxxxxxxxxxxxxxxxxxxxxx
            x  Element    Atom        Fractional coordinates of atoms  x
            x            Number           u          v          w      x
            x----------------------------------------------------------x
            x  H            1        -0.000000   0.006310   0.106400   x 
            x  H            2         0.000000   0.134976   0.467053   x 
            x  H            3        -0.000000   0.237743   0.347291   x 
            x  H            4         0.500000   0.237743   0.152709   x 
            x  H            5         0.500000   0.134976   0.032947   x 
            x  H            6         0.500000   0.006310   0.393600   x 
            x  H            7         0.500000   0.262257   0.652709   x 
            x  H            8         0.500000   0.365024   0.532947   x 
            x  H            9         0.500000   0.493690   0.893600   x 
            x  H           10         0.500000   0.762257   0.847291   x 
            x  H           11         0.500000   0.865024   0.967053   x 
            x  H           12         0.500000   0.993690   0.606400   x 
            x  H           13         0.500000   0.737743   0.347291   x 
            x  H           14         0.500000   0.634976   0.467053   x 
            x  H           15         0.500000   0.506310   0.106400   x 
            x  H           16         0.000000   0.737743   0.152709   x 
            x  H           17        -0.000000   0.634976   0.032947   x 
            x  H           18        -0.000000   0.506310   0.393600   x 
            x  H           19         0.000000   0.762257   0.652709   x 
            x  H           20         0.000000   0.865024   0.532947   x 
            x  H           21         0.000000   0.993690   0.893600   x 
            x  H           22        -0.000000   0.262257   0.847291   x 
            x  H           23         0.000000   0.365024   0.967053   x 
            x  H           24         0.000000   0.493690   0.606400   x 
            xxxxxxxxxxxxxxxxxxxxxxxxxxxxxxxxxxxxxxxxxxxxxxxxxxxxxxxxxxxx


                         No user defined ionic velocities

                           -------------------------------
                                   Details of Species
                           -------------------------------

                               Mass of species in AMU
                                    H    1.0078250

                          Electric Quadrupole Moment (Barn)
                                    H    0.0028600 Isotope  2

                          Files used for pseudopotentials:
                                    H 1|0.6|13|15|17|10(qc=8)

                           -------------------------------
                              k-Points For BZ Sampling
                           -------------------------------
                       MP grid size for SCF calculation is 10 10 10
                            with an offset of   0.000  0.000  0.000
                       Number of kpoints used =           500

                           -------------------------------
                               Symmetry and Constraints
                           -------------------------------

                      Cell is a supercell containing 2 primitive cells
                      Maximum deviation from symmetry =  0.00000         ANG

                      Number of symmetry operations   =           1
                      Number of ionic constraints     =           3
                      Point group of crystal =     1: C1, 1, 1
                      Space group of crystal =    64: Cmce, -C 2bc 2

             Set iprint > 1 for details on symmetry rotations/translations

                         Centre of mass is constrained
             Set iprint > 1 for details of linear ionic constraints

                         Number of cell constraints= 0
                         Cell constraints are:  1 2 3 4 5 6

                         External pressure/stress (GPa)
                         60.00000   0.00000   0.00000
                                   60.00000   0.00000
                                             60.00000
  
+---------------- MEMORY AND SCRATCH DISK ESTIMATES PER PROCESS --------------+
|                                                     Memory          Disk    |
| Baseline code, static data and system overhead      411.0 MB         0.0 MB |
| BLAS internal memory storage                          0.0 MB         0.0 MB |
| Model and support data                              112.5 MB         0.0 MB |
| Electronic energy minimisation requirements         103.9 MB         0.0 MB |
| Force calculation requirements                       13.2 MB         0.0 MB |
| Stress calculation requirements                      16.7 MB         0.0 MB |
|                                               ----------------------------- |
| Approx. total storage required per process          627.4 MB         0.0 MB |
|                                                                             |
| Requirements will fluctuate during execution and may exceed these estimates |
+-----------------------------------------------------------------------------+
Calculating finite basis set correction with  3 cut-off energies.
Calculating total energy with cut-off of 1190.000 eV.
------------------------------------------------------------------------ <-- SCF
SCF loop      Energy                           Energy gain       Timer   <-- SCF
                                               per atom          (sec)   <-- SCF
------------------------------------------------------------------------ <-- SCF
Initial   6.31986571E+002                                          9.14  <-- SCF
      1  -2.98248981E+002                    3.87598147E+001      31.77  <-- SCF
      2  -3.69599023E+002                    2.97291842E+000      47.76  <-- SCF
      3  -3.70758765E+002                    4.83225691E-002      61.97  <-- SCF
      4  -3.68478238E+002                   -9.50219784E-002      81.63  <-- SCF
      5  -3.68402130E+002                   -3.17114410E-003     102.01  <-- SCF
      6  -3.68404919E+002                    1.16209308E-004     121.66  <-- SCF
      7  -3.68405219E+002                    1.24928764E-005     141.40  <-- SCF
      8  -3.68405220E+002                    4.48330703E-008     161.20  <-- SCF
      9  -3.68405220E+002                    3.11857075E-009     181.30  <-- SCF
     10  -3.68405220E+002                    7.99476017E-011     195.59  <-- SCF
     11  -3.68405220E+002                    7.56878920E-012     209.65  <-- SCF
     12  -3.68405220E+002                    3.74612770E-013     223.62  <-- SCF
------------------------------------------------------------------------ <-- SCF
 
Final energy =  -368.4052201984     eV
(energy not corrected for finite basis set)
 
Calculating total energy with cut-off of 1195.000 eV.
------------------------------------------------------------------------ <-- SCF
SCF loop      Energy                           Energy gain       Timer   <-- SCF
                                               per atom          (sec)   <-- SCF
------------------------------------------------------------------------ <-- SCF
Initial  -3.68405220E+002                                        230.00  <-- SCF
      1  -3.68405251E+002                    1.29624877E-006     248.41  <-- SCF
      2  -3.68405251E+002                    1.19231591E-012     263.75  <-- SCF
      3  -3.68405251E+002                    5.57625207E-010     279.03  <-- SCF
      4  -3.68405251E+002                    2.03781291E-011     294.42  <-- SCF
      5  -3.68405251E+002                   -4.43090374E-014     309.69  <-- SCF
      6  -3.68405251E+002                   -6.44495089E-014     324.83  <-- SCF
------------------------------------------------------------------------ <-- SCF
 
Final energy =  -368.4052513222     eV
(energy not corrected for finite basis set)
 
Calculating total energy with cut-off of 1200.000 eV.
------------------------------------------------------------------------ <-- SCF
SCF loop      Energy                           Energy gain       Timer   <-- SCF
                                               per atom          (sec)   <-- SCF
------------------------------------------------------------------------ <-- SCF
Initial  -3.68405251E+002                                        331.32  <-- SCF
      1  -3.68405285E+002                    1.38985468E-006     352.55  <-- SCF
      2  -3.68405285E+002                    1.14800688E-012     368.78  <-- SCF
      3  -3.68405285E+002                    6.13359934E-010     385.11  <-- SCF
      4  -3.68405285E+002                    2.08615004E-011     401.74  <-- SCF
      5  -3.68405285E+002                    1.51053536E-013     418.05  <-- SCF
      6  -3.68405285E+002                    4.43090374E-014     434.24  <-- SCF
------------------------------------------------------------------------ <-- SCF
 
Final energy =  -368.4052846940     eV
(energy not corrected for finite basis set)
 
 For future reference: finite basis dEtot/dlog(Ecut) =      -0.007682eV
 Total energy corrected for finite basis set =    -368.405285 eV
 
+---------------- MEMORY AND SCRATCH DISK ESTIMATES PER PROCESS --------------+
|                                                     Memory          Disk    |
| Model and support data                              118.2 MB         0.0 MB |
| Electronic energy minimisation requirements         103.9 MB         0.0 MB |
| Geometry minimisation requirements                  143.5 MB         0.0 MB |
|                                               ----------------------------- |
| Approx. total storage required per process          365.7 MB         0.0 MB |
|                                                                             |
| Requirements will fluctuate during execution and may exceed these estimates |
+-----------------------------------------------------------------------------+
 

 ************************************** Forces **************************************
 *                                                                                  *
 *                           Cartesian components (eV/A)                            *
 * -------------------------------------------------------------------------------- *
 *                         x                    y                    z              *
 *                                                                                  *
 * H               1      0.00000             -0.00000             -0.00000         *
 * H               2     -0.00000             -0.00000              0.00000         *
 * H               3     -0.00000              0.00000             -0.00000         *
 * H               4      0.00000              0.00000              0.00000         *
 * H               5     -0.00000              0.00000              0.00000         *
 * H               6     -0.00000              0.00000             -0.00000         *
 * H               7     -0.00000              0.00000             -0.00000         *
 * H               8     -0.00000             -0.00000              0.00000         *
 * H               9     -0.00000             -0.00000             -0.00000         *
 * H              10      0.00000              0.00000              0.00000         *
 * H              11      0.00000             -0.00000             -0.00000         *
 * H              12     -0.00000              0.00000              0.00000         *
 * H              13     -0.00000              0.00000             -0.00000         *
 * H              14      0.00000             -0.00000              0.00000         *
 * H              15      0.00000             -0.00000              0.00000         *
 * H              16      0.00000              0.00000              0.00000         *
 * H              17      0.00000             -0.00000             -0.00000         *
 * H              18      0.00000             -0.00000              0.00000         *
 * H              19     -0.00000              0.00000             -0.00000         *
 * H              20      0.00000             -0.00000              0.00000         *
 * H              21     -0.00000              0.00000              0.00000         *
 * H              22      0.00000              0.00000              0.00000         *
 * H              23     -0.00000             -0.00000             -0.00000         *
 * H              24     -0.00000              0.00000             -0.00000         *
 *                                                                                  *
 ************************************************************************************

 ***************** Stress Tensor *****************
 *                                               *
 *          Cartesian components (GPa)           *
 * --------------------------------------------- *
 *             x             y             z     *
 *                                               *
 *  x    -59.999064      0.000000      0.000000  *
 *  y      0.000000    -59.999073      0.000002  *
 *  z      0.000000      0.000002    -59.999065  *
 *                                               *
 *  Pressure:   59.9991                          *
 *                                               *
 *************************************************
 LBFGS: finished iteration     0 with enthalpy= -3.43458155E+002 eV
  
 +-----------+-----------------+-----------------+------------+-----+ <-- LBFGS
 | Parameter |      value      |    tolerance    |    units   | OK? | <-- LBFGS
 +-----------+-----------------+-----------------+------------+-----+ <-- LBFGS
 |  dE/ion   |   0.000000E+000 |   1.000000E-009 |         eV | No  | <-- LBFGS
 |  |F|max   |   6.176879E-006 |   1.000000E-005 |       eV/A | Yes | <-- LBFGS
 |  |dR|max  |   0.000000E+000 |   1.000000E-005 |          A | No  | <-- LBFGS
 |   Smax    |   9.358552E-004 |   1.000000E-005 |        GPa | No  | <-- LBFGS
 +-----------+-----------------+-----------------+------------+-----+ <-- LBFGS
  

================================================================================
 Starting LBFGS iteration          1 ...
================================================================================
  
 +------------+-------------+-------------+-----------------+ <-- min LBFGS
 |    Step    |   lambda    |   F.delta'  |    enthalpy     | <-- min LBFGS
 +------------+-------------+-------------+-----------------+ <-- min LBFGS
 |  previous  |    0.000000 |    0.000024 |     -343.458155 | <-- min LBFGS
 +------------+-------------+-------------+-----------------+ <-- min LBFGS
  

--------------------------------------------------------------------------------
 LBFGS: starting iteration         1 with trial guess (lambda=  1.000000)
--------------------------------------------------------------------------------

                           -------------------------------
                                      Unit Cell
                           -------------------------------
        Real Lattice(A)              Reciprocal Lattice(1/A)
     3.1922959    -0.0000000     0.0000000        1.968233996   0.000000000  -0.000000000
    -0.0000000     5.9716285    -0.0000000        0.000000000   1.052172831   0.000000001
     0.0000000    -0.0000000     3.4944834       -0.000000000   0.000000001   1.798029813

                       Lattice parameters(A)       Cell Angles
                    a =      3.192296          alpha =   90.000000
                    b =      5.971629          beta  =   90.000000
                    c =      3.494483          gamma =   90.000000

                Current cell volume =            66.616054 A**3

                           -------------------------------
                                     Cell Contents
                           -------------------------------

            xxxxxxxxxxxxxxxxxxxxxxxxxxxxxxxxxxxxxxxxxxxxxxxxxxxxxxxxxxxxxxxxx
            x  Element         Atom        Fractional coordinates of atoms  x
            x                 Number           u          v          w      x
            x---------------------------------------------------------------x
            x  H                 1        -0.000000   0.006310   0.106400   x
            x  H                 2         0.000000   0.134976   0.467053   x
            x  H                 3        -0.000000   0.237744   0.347291   x
            x  H                 4         0.500000   0.237743   0.152709   x
            x  H                 5         0.500000   0.134976   0.032947   x
            x  H                 6         0.500000   0.006310   0.393600   x
            x  H                 7         0.500000   0.262257   0.652709   x
            x  H                 8         0.500000   0.365024   0.532947   x
            x  H                 9         0.500000   0.493690   0.893600   x
            x  H                10         0.500000   0.762257   0.847291   x
            x  H                11         0.500000   0.865024   0.967053   x
            x  H                12         0.500000   0.993690   0.606400   x
            x  H                13         0.500000   0.737743   0.347291   x
            x  H                14         0.500000   0.634976   0.467053   x
            x  H                15         0.500000   0.506310   0.106400   x
            x  H                16         0.000000   0.737744   0.152709   x
            x  H                17        -0.000000   0.634976   0.032947   x
            x  H                18        -0.000000   0.506310   0.393600   x
            x  H                19         0.000000   0.762257   0.652709   x
            x  H                20         0.000000   0.865024   0.532947   x
            x  H                21         0.000000   0.993690   0.893600   x
            x  H                22        -0.000000   0.262257   0.847291   x
            x  H                23         0.000000   0.365024   0.967053   x
            x  H                24         0.000000   0.493690   0.606400   x
            xxxxxxxxxxxxxxxxxxxxxxxxxxxxxxxxxxxxxxxxxxxxxxxxxxxxxxxxxxxxxxxxx


------------------------------------------------------------------------ <-- SCF
SCF loop      Energy                           Energy gain       Timer   <-- SCF
                                               per atom          (sec)   <-- SCF
------------------------------------------------------------------------ <-- SCF
Initial  -3.68405238E+002                                        481.00  <-- SCF
      1  -3.68405238E+002                    1.17862039E-011     495.85  <-- SCF
      2  -3.68405238E+002                    3.78640865E-013     512.38  <-- SCF
      3  -3.68405238E+002                   -1.51053536E-012     528.91  <-- SCF
      4  -3.68405238E+002                   -2.98078979E-013     545.58  <-- SCF
------------------------------------------------------------------------ <-- SCF
 
Final energy =  -368.4052381633     eV
(energy not corrected for finite basis set)
 

 ************************************** Forces **************************************
 *                                                                                  *
 *                           Cartesian components (eV/A)                            *
 * -------------------------------------------------------------------------------- *
 *                         x                    y                    z              *
 *                                                                                  *
 * H               1      0.00000              0.00000              0.00002         *
 * H               2     -0.00000              0.00001             -0.00001         *
 * H               3      0.00000             -0.00001              0.00001         *
 * H               4      0.00000              0.00001              0.00001         *
 * H               5     -0.00000             -0.00001             -0.00001         *
 * H               6      0.00000              0.00000             -0.00001         *
 * H               7     -0.00000             -0.00002              0.00002         *
 * H               8     -0.00000              0.00002             -0.00002         *
 * H               9     -0.00000              0.00000             -0.00000         *
 * H              10     -0.00000             -0.00004             -0.00003         *
 * H              11      0.00000              0.00004              0.00002         *
 * H              12     -0.00000              0.00000              0.00001         *
 * H              13     -0.00000              0.00000             -0.00000         *
 * H              14      0.00000             -0.00000              0.00000         *
 * H              15      0.00000             -0.00000              0.00000         *
 * H              16      0.00000             -0.00002             -0.00001         *
 * H              17      0.00000              0.00002              0.00001         *
 * H              18      0.00000              0.00000             -0.00003         *
 * H              19      0.00000             -0.00002              0.00002         *
 * H              20     -0.00000              0.00002             -0.00002         *
 * H              21     -0.00000             -0.00000             -0.00002         *
 * H              22      0.00000             -0.00002             -0.00001         *
 * H              23     -0.00000              0.00002              0.00001         *
 * H              24     -0.00000             -0.00000              0.00003         *
 *                                                                                  *
 ************************************************************************************

 ***************** Stress Tensor *****************
 *                                               *
 *          Cartesian components (GPa)           *
 * --------------------------------------------- *
 *             x             y             z     *
 *                                               *
 *  x    -59.999352      0.000000      0.000000  *
 *  y      0.000000    -59.999495     -0.000006  *
 *  z      0.000000     -0.000006    -59.999538  *
 *                                               *
 *  Pressure:   59.9995                          *
 *                                               *
 *************************************************
  
 +------------+-------------+-------------+-----------------+ <-- min LBFGS
 |    Step    |   lambda    |   F.delta'  |    enthalpy     | <-- min LBFGS
 +------------+-------------+-------------+-----------------+ <-- min LBFGS
 |  previous  |    0.000000 |    0.000024 |     -343.458155 | <-- min LBFGS
 | trial step |    1.000000 |  8.939E-006 |     -343.458155 | <-- min LBFGS
 +------------+-------------+-------------+-----------------+ <-- min LBFGS
  

--------------------------------------------------------------------------------
 LBFGS: improving iteration         1 with line minimization (lambda=  1.583151)
--------------------------------------------------------------------------------

                           -------------------------------
                                      Unit Cell
                           -------------------------------
        Real Lattice(A)              Reciprocal Lattice(1/A)
     3.1922947    -0.0000000     0.0000000        1.968234712   0.000000000  -0.000000000
    -0.0000000     5.9716264    -0.0000000        0.000000000   1.052173210   0.000000001
     0.0000000    -0.0000000     3.4944821       -0.000000000   0.000000002   1.798030467

                       Lattice parameters(A)       Cell Angles
                    a =      3.192295          alpha =   90.000000
                    b =      5.971626          beta  =   90.000000
                    c =      3.494482          gamma =   90.000000

                Current cell volume =            66.615982 A**3

                           -------------------------------
                                     Cell Contents
                           -------------------------------

            xxxxxxxxxxxxxxxxxxxxxxxxxxxxxxxxxxxxxxxxxxxxxxxxxxxxxxxxxxxxxxxxx
            x  Element         Atom        Fractional coordinates of atoms  x
            x                 Number           u          v          w      x
            x---------------------------------------------------------------x
            x  H                 1        -0.000000   0.006310   0.106400   x
            x  H                 2         0.000000   0.134976   0.467053   x
            x  H                 3        -0.000000   0.237744   0.347291   x
            x  H                 4         0.500000   0.237743   0.152709   x
            x  H                 5         0.500000   0.134976   0.032947   x
            x  H                 6         0.500000   0.006310   0.393600   x
            x  H                 7         0.500000   0.262257   0.652709   x
            x  H                 8         0.500000   0.365024   0.532947   x
            x  H                 9         0.500000   0.493690   0.893600   x
            x  H                10         0.500000   0.762257   0.847291   x
            x  H                11         0.500000   0.865024   0.967053   x
            x  H                12         0.500000   0.993690   0.606400   x
            x  H                13         0.500000   0.737743   0.347291   x
            x  H                14         0.500000   0.634976   0.467053   x
            x  H                15         0.500000   0.506310   0.106400   x
            x  H                16         0.000000   0.737744   0.152709   x
            x  H                17        -0.000000   0.634976   0.032947   x
            x  H                18        -0.000000   0.506310   0.393600   x
            x  H                19         0.000000   0.762257   0.652709   x
            x  H                20         0.000000   0.865024   0.532947   x
            x  H                21         0.000000   0.993690   0.893600   x
            x  H                22        -0.000000   0.262257   0.847291   x
            x  H                23         0.000000   0.365024   0.967053   x
            x  H                24         0.000000   0.493690   0.606400   x
            xxxxxxxxxxxxxxxxxxxxxxxxxxxxxxxxxxxxxxxxxxxxxxxxxxxxxxxxxxxxxxxxx


------------------------------------------------------------------------ <-- SCF
SCF loop      Energy                           Energy gain       Timer   <-- SCF
                                               per atom          (sec)   <-- SCF
------------------------------------------------------------------------ <-- SCF
Initial  -3.68405211E+002                                        591.96  <-- SCF
      1  -3.68405211E+002                    4.07240334E-012     606.76  <-- SCF
      2  -3.68405211E+002                    1.36955206E-013     623.31  <-- SCF
      3  -3.68405211E+002                   -5.51848920E-013     639.81  <-- SCF
      4  -3.68405211E+002                    1.22856876E-013     656.36  <-- SCF
------------------------------------------------------------------------ <-- SCF
 
Final energy =  -368.4052110230     eV
(energy not corrected for finite basis set)
 

 ************************************** Forces **************************************
 *                                                                                  *
 *                           Cartesian components (eV/A)                            *
 * -------------------------------------------------------------------------------- *
 *                         x                    y                    z              *
 *                                                                                  *
 * H               1      0.00000              0.00000              0.00003         *
 * H               2     -0.00000              0.00002             -0.00002         *
 * H               3      0.00000             -0.00002              0.00002         *
 * H               4      0.00000              0.00002              0.00001         *
 * H               5     -0.00000             -0.00002             -0.00001         *
 * H               6      0.00000              0.00000             -0.00001         *
 * H               7     -0.00000             -0.00004              0.00003         *
 * H               8     -0.00000              0.00004             -0.00003         *
 * H               9     -0.00000              0.00000              0.00000         *
 * H              10     -0.00000             -0.00006             -0.00004         *
 * H              11      0.00000              0.00006              0.00004         *
 * H              12     -0.00000              0.00000              0.00001         *
 * H              13      0.00000              0.00000             -0.00000         *
 * H              14      0.00000             -0.00000              0.00000         *
 * H              15      0.00000             -0.00000              0.00000         *
 * H              16     -0.00000             -0.00003             -0.00002         *
 * H              17      0.00000              0.00003              0.00002         *
 * H              18      0.00000              0.00001             -0.00005         *
 * H              19      0.00000             -0.00004              0.00003         *
 * H              20     -0.00000              0.00004             -0.00003         *
 * H              21     -0.00000             -0.00000             -0.00003         *
 * H              22      0.00000             -0.00003             -0.00002         *
 * H              23     -0.00000              0.00003              0.00002         *
 * H              24     -0.00000             -0.00000              0.00005         *
 *                                                                                  *
 ************************************************************************************

 ***************** Stress Tensor *****************
 *                                               *
 *          Cartesian components (GPa)           *
 * --------------------------------------------- *
 *             x             y             z     *
 *                                               *
 *  x    -59.999518      0.000000      0.000000  *
 *  y      0.000000    -59.999742     -0.000011  *
 *  z      0.000000     -0.000011    -59.999816  *
 *                                               *
 *  Pressure:   59.9997                          *
 *                                               *
 *************************************************
  
 +------------+-------------+-------------+-----------------+ <-- min LBFGS
 |    Step    |   lambda    |   F.delta'  |    enthalpy     | <-- min LBFGS
 +------------+-------------+-------------+-----------------+ <-- min LBFGS
 |  previous  |    0.000000 |    0.000024 |     -343.458155 | <-- min LBFGS
 | trial step |    1.000000 |  8.939E-006 |     -343.458155 | <-- min LBFGS
 |  line step |    1.583151 |  6.944E-008 |     -343.458155 | <-- min LBFGS
 +------------+-------------+-------------+-----------------+ <-- min LBFGS
  
 LBFGS: finished iteration     1 with enthalpy= -3.43458155E+002 eV
  
 +-----------+-----------------+-----------------+------------+-----+ <-- LBFGS
 | Parameter |      value      |    tolerance    |    units   | OK? | <-- LBFGS
 +-----------+-----------------+-----------------+------------+-----+ <-- LBFGS
 |  dE/ion   |   3.743409E-011 |   1.000000E-009 |         eV | Yes | <-- LBFGS
 |  |F|max   |   7.385089E-005 |   1.000000E-005 |       eV/A | No  | <-- LBFGS
 |  |dR|max  |   9.485659E-007 |   1.000000E-005 |          A | Yes | <-- LBFGS
 |   Smax    |   4.820644E-004 |   1.000000E-005 |        GPa | No  | <-- LBFGS
 +-----------+-----------------+-----------------+------------+-----+ <-- LBFGS
  

================================================================================
 Starting LBFGS iteration          2 ...
================================================================================
  
 +------------+-------------+-------------+-----------------+ <-- min LBFGS
 |    Step    |   lambda    |   F.delta'  |    enthalpy     | <-- min LBFGS
 +------------+-------------+-------------+-----------------+ <-- min LBFGS
 |  previous  |    0.000000 |    0.000021 |     -343.458155 | <-- min LBFGS
 +------------+-------------+-------------+-----------------+ <-- min LBFGS
  

--------------------------------------------------------------------------------
 LBFGS: starting iteration         2 with trial guess (lambda=  1.000000)
--------------------------------------------------------------------------------

                           -------------------------------
                                      Unit Cell
                           -------------------------------
        Real Lattice(A)              Reciprocal Lattice(1/A)
     3.1922842    -0.0000000     0.0000000        1.968241202   0.000000000  -0.000000000
    -0.0000000     5.9716078     0.0000000        0.000000000   1.052176493  -0.000000001
     0.0000000     0.0000000     3.4944713       -0.000000000  -0.000000002   1.798036033

                       Lattice parameters(A)       Cell Angles
                    a =      3.192284          alpha =   90.000000
                    b =      5.971608          beta  =   90.000000
                    c =      3.494471          gamma =   90.000000

                Current cell volume =            66.615348 A**3

                           -------------------------------
                                     Cell Contents
                           -------------------------------

            xxxxxxxxxxxxxxxxxxxxxxxxxxxxxxxxxxxxxxxxxxxxxxxxxxxxxxxxxxxxxxxxx
            x  Element         Atom        Fractional coordinates of atoms  x
            x                 Number           u          v          w      x
            x---------------------------------------------------------------x
            x  H                 1        -0.000000   0.006310   0.106400   x
            x  H                 2         0.000000   0.134976   0.467053   x
            x  H                 3        -0.000000   0.237743   0.347291   x
            x  H                 4         0.500000   0.237744   0.152709   x
            x  H                 5         0.500000   0.134976   0.032947   x
            x  H                 6         0.500000   0.006310   0.393600   x
            x  H                 7         0.500000   0.262256   0.652710   x
            x  H                 8         0.500000   0.365024   0.532947   x
            x  H                 9         0.500000   0.493690   0.893600   x
            x  H                10         0.500000   0.762256   0.847290   x
            x  H                11         0.500000   0.865024   0.967054   x
            x  H                12         0.500000   0.993690   0.606400   x
            x  H                13         0.500000   0.737744   0.347291   x
            x  H                14         0.500000   0.634976   0.467053   x
            x  H                15         0.500000   0.506310   0.106400   x
            x  H                16         0.000000   0.737743   0.152709   x
            x  H                17        -0.000000   0.634976   0.032947   x
            x  H                18        -0.000000   0.506310   0.393599   x
            x  H                19         0.000000   0.762256   0.652710   x
            x  H                20         0.000000   0.865024   0.532947   x
            x  H                21         0.000000   0.993690   0.893599   x
            x  H                22        -0.000000   0.262256   0.847290   x
            x  H                23         0.000000   0.365024   0.967053   x
            x  H                24         0.000000   0.493690   0.606401   x
            xxxxxxxxxxxxxxxxxxxxxxxxxxxxxxxxxxxxxxxxxxxxxxxxxxxxxxxxxxxxxxxxx


------------------------------------------------------------------------ <-- SCF
SCF loop      Energy                           Energy gain       Timer   <-- SCF
                                               per atom          (sec)   <-- SCF
------------------------------------------------------------------------ <-- SCF
Initial  -3.68404974E+002                                        703.29  <-- SCF
      1  -3.68404974E+002                    8.86295548E-010     725.02  <-- SCF
      2  -3.68404974E+002                    3.24261592E-012     741.68  <-- SCF
      3  -3.68404974E+002                   -1.05896585E-010     758.88  <-- SCF
      4  -3.68404974E+002                   -2.78139912E-012     775.37  <-- SCF
      5  -3.68404974E+002                    4.26977996E-013     791.91  <-- SCF
------------------------------------------------------------------------ <-- SCF
 
Final energy =  -368.4049737193     eV
(energy not corrected for finite basis set)
 

 ************************************** Forces **************************************
 *                                                                                  *
 *                           Cartesian components (eV/A)                            *
 * -------------------------------------------------------------------------------- *
 *                         x                    y                    z              *
 *                                                                                  *
 * H               1      0.00000             -0.00001             -0.00005         *
 * H               2     -0.00000             -0.00007              0.00005         *
 * H               3      0.00000              0.00008             -0.00005         *
 * H               4      0.00000             -0.00002             -0.00001         *
 * H               5     -0.00000              0.00003              0.00002         *
 * H               6      0.00000             -0.00000              0.00001         *
 * H               7      0.00000              0.00008             -0.00005         *
 * H               8      0.00000             -0.00009              0.00006         *
 * H               9     -0.00000             -0.00000             -0.00002         *
 * H              10     -0.00000              0.00013              0.00009         *
 * H              11      0.00000             -0.00014             -0.00009         *
 * H              12      0.00000              0.00000             -0.00000         *
 * H              13      0.00000              0.00001             -0.00001         *
 * H              14     -0.00000              0.00000             -0.00000         *
 * H              15     -0.00000             -0.00000              0.00002         *
 * H              16     -0.00000              0.00009              0.00006         *
 * H              17      0.00000             -0.00008             -0.00005         *
 * H              18     -0.00000             -0.00002              0.00011         *
 * H              19     -0.00000              0.00008             -0.00006         *
 * H              20      0.00000             -0.00009              0.00006         *
 * H              21     -0.00000              0.00001              0.00005         *
 * H              22      0.00000              0.00006              0.00004         *
 * H              23     -0.00000             -0.00006             -0.00004         *
 * H              24      0.00000              0.00001             -0.00011         *
 *                                                                                  *
 ************************************************************************************

 ***************** Stress Tensor *****************
 *                                               *
 *          Cartesian components (GPa)           *
 * --------------------------------------------- *
 *             x             y             z     *
 *                                               *
 *  x    -60.001041     -0.000000      0.000000  *
 *  y     -0.000000    -60.000583      0.000029  *
 *  z      0.000000      0.000029    -60.000631  *
 *                                               *
 *  Pressure:   60.0008                          *
 *                                               *
 *************************************************
  
 +------------+-------------+-------------+-----------------+ <-- min LBFGS
 |    Step    |   lambda    |   F.delta'  |    enthalpy     | <-- min LBFGS
 +------------+-------------+-------------+-----------------+ <-- min LBFGS
 |  previous  |    0.000000 |    0.000021 |     -343.458155 | <-- min LBFGS
 | trial step |    1.000000 |   -0.000045 |     -343.458155 | <-- min LBFGS
 +------------+-------------+-------------+-----------------+ <-- min LBFGS
  

--------------------------------------------------------------------------------
 LBFGS: improving iteration         2 with line minimization (lambda=  0.316059)
--------------------------------------------------------------------------------

                           -------------------------------
                                      Unit Cell
                           -------------------------------
        Real Lattice(A)              Reciprocal Lattice(1/A)
     3.1922914    -0.0000000     0.0000000        1.968236763   0.000000000  -0.000000000
    -0.0000000     5.9716205    -0.0000000        0.000000000   1.052174248   0.000000000
     0.0000000    -0.0000000     3.4944787       -0.000000000   0.000000001   1.798032226

                       Lattice parameters(A)       Cell Angles
                    a =      3.192291          alpha =   90.000000
                    b =      5.971620          beta  =   90.000000
                    c =      3.494479          gamma =   90.000000

                Current cell volume =            66.615781 A**3

                           -------------------------------
                                     Cell Contents
                           -------------------------------

            xxxxxxxxxxxxxxxxxxxxxxxxxxxxxxxxxxxxxxxxxxxxxxxxxxxxxxxxxxxxxxxxx
            x  Element         Atom        Fractional coordinates of atoms  x
            x                 Number           u          v          w      x
            x---------------------------------------------------------------x
            x  H                 1        -0.000000   0.006310   0.106400   x
            x  H                 2         0.000000   0.134976   0.467053   x
            x  H                 3        -0.000000   0.237744   0.347291   x
            x  H                 4         0.500000   0.237744   0.152709   x
            x  H                 5         0.500000   0.134976   0.032947   x
            x  H                 6         0.500000   0.006310   0.393600   x
            x  H                 7         0.500000   0.262256   0.652709   x
            x  H                 8         0.500000   0.365024   0.532947   x
            x  H                 9         0.500000   0.493690   0.893600   x
            x  H                10         0.500000   0.762256   0.847291   x
            x  H                11         0.500000   0.865024   0.967053   x
            x  H                12         0.500000   0.993690   0.606400   x
            x  H                13         0.500000   0.737744   0.347291   x
            x  H                14         0.500000   0.634976   0.467053   x
            x  H                15         0.500000   0.506310   0.106400   x
            x  H                16         0.000000   0.737744   0.152709   x
            x  H                17        -0.000000   0.634976   0.032947   x
            x  H                18        -0.000000   0.506310   0.393600   x
            x  H                19         0.000000   0.762256   0.652709   x
            x  H                20         0.000000   0.865024   0.532947   x
            x  H                21         0.000000   0.993690   0.893600   x
            x  H                22        -0.000000   0.262256   0.847291   x
            x  H                23         0.000000   0.365024   0.967053   x
            x  H                24         0.000000   0.493690   0.606400   x
            xxxxxxxxxxxxxxxxxxxxxxxxxxxxxxxxxxxxxxxxxxxxxxxxxxxxxxxxxxxxxxxxx


------------------------------------------------------------------------ <-- SCF
SCF loop      Energy                           Energy gain       Timer   <-- SCF
                                               per atom          (sec)   <-- SCF
------------------------------------------------------------------------ <-- SCF
Initial  -3.68405136E+002                                        838.71  <-- SCF
      1  -3.68405136E+002                    2.04756291E-009     860.39  <-- SCF
      2  -3.68405136E+002                    1.48435275E-012     876.91  <-- SCF
      3  -3.68405136E+002                   -4.99866363E-011     893.37  <-- SCF
      4  -3.68405136E+002                   -1.11578212E-012     909.88  <-- SCF
      5  -3.68405136E+002                    1.00702358E-013     926.37  <-- SCF
------------------------------------------------------------------------ <-- SCF
 
Final energy =  -368.4051360344     eV
(energy not corrected for finite basis set)
 

 ************************************** Forces **************************************
 *                                                                                  *
 *                           Cartesian components (eV/A)                            *
 * -------------------------------------------------------------------------------- *
 *                         x                    y                    z              *
 *                                                                                  *
 * H               1      0.00000             -0.00000              0.00000         *
 * H               2     -0.00000             -0.00000              0.00000         *
 * H               3      0.00000              0.00001             -0.00001         *
 * H               4     -0.00000              0.00000              0.00000         *
 * H               5     -0.00000             -0.00000             -0.00000         *
 * H               6      0.00000             -0.00000             -0.00001         *
 * H               7     -0.00000             -0.00000              0.00000         *
 * H               8      0.00000             -0.00000              0.00000         *
 * H               9     -0.00000              0.00000             -0.00001         *
 * H              10     -0.00000             -0.00000             -0.00000         *
 * H              11      0.00000             -0.00000             -0.00000         *
 * H              12      0.00000              0.00000              0.00001         *
 * H              13      0.00000              0.00001             -0.00001         *
 * H              14     -0.00000             -0.00000              0.00000         *
 * H              15      0.00000             -0.00000              0.00001         *
 * H              16     -0.00000              0.00001              0.00001         *
 * H              17      0.00000             -0.00001             -0.00000         *
 * H              18      0.00000             -0.00000             -0.00000         *
 * H              19      0.00000             -0.00000              0.00000         *
 * H              20      0.00000             -0.00000              0.00000         *
 * H              21     -0.00000              0.00000             -0.00000         *
 * H              22      0.00000             -0.00000             -0.00000         *
 * H              23     -0.00000             -0.00000             -0.00000         *
 * H              24     -0.00000              0.00000              0.00000         *
 *                                                                                  *
 ************************************************************************************

 ***************** Stress Tensor *****************
 *                                               *
 *          Cartesian components (GPa)           *
 * --------------------------------------------- *
 *             x             y             z     *
 *                                               *
 *  x    -60.000003      0.000000      0.000000  *
 *  y      0.000000    -60.000012      0.000002  *
 *  z      0.000000      0.000002    -60.000076  *
 *                                               *
 *  Pressure:   60.0000                          *
 *                                               *
 *************************************************
  
 +------------+-------------+-------------+-----------------+ <-- min LBFGS
 |    Step    |   lambda    |   F.delta'  |    enthalpy     | <-- min LBFGS
 +------------+-------------+-------------+-----------------+ <-- min LBFGS
 |  previous  |    0.000000 |    0.000021 |     -343.458155 | <-- min LBFGS
 | trial step |    1.000000 |   -0.000045 |     -343.458155 | <-- min LBFGS
 |  line step |    0.316059 | -2.131E-007 |     -343.458155 | <-- min LBFGS
 +------------+-------------+-------------+-----------------+ <-- min LBFGS
  
 LBFGS: finished iteration     2 with enthalpy= -3.43458155E+002 eV
  
 +-----------+-----------------+-----------------+------------+-----+ <-- LBFGS
 | Parameter |      value      |    tolerance    |    units   | OK? | <-- LBFGS
 +-----------+-----------------+-----------------+------------+-----+ <-- LBFGS
 |  dE/ion   |   2.320787E-011 |   1.000000E-009 |         eV | Yes | <-- LBFGS
 |  |F|max   |   1.074281E-005 |   1.000000E-005 |       eV/A | No  | <-- LBFGS
 |  |dR|max  |   1.585641E-006 |   1.000000E-005 |          A | Yes | <-- LBFGS
 |   Smax    |   7.565916E-005 |   1.000000E-005 |        GPa | No  | <-- LBFGS
 +-----------+-----------------+-----------------+------------+-----+ <-- LBFGS
  

================================================================================
 Starting LBFGS iteration          3 ...
================================================================================
  
 +------------+-------------+-------------+-----------------+ <-- min LBFGS
 |    Step    |   lambda    |   F.delta'  |    enthalpy     | <-- min LBFGS
 +------------+-------------+-------------+-----------------+ <-- min LBFGS
 |  previous  |    0.000000 |  3.525E-006 |     -343.458155 | <-- min LBFGS
 +------------+-------------+-------------+-----------------+ <-- min LBFGS
  

--------------------------------------------------------------------------------
 LBFGS: starting iteration         3 with trial guess (lambda=  1.000000)
--------------------------------------------------------------------------------

                           -------------------------------
                                      Unit Cell
                           -------------------------------
        Real Lattice(A)              Reciprocal Lattice(1/A)
     3.1922913    -0.0000000     0.0000000        1.968236846   0.000000000  -0.000000000
    -0.0000000     5.9716203    -0.0000000        0.000000000   1.052174283   0.000000001
     0.0000000    -0.0000000     3.4944787       -0.000000000   0.000000002   1.798032208

                       Lattice parameters(A)       Cell Angles
                    a =      3.192291          alpha =   90.000000
                    b =      5.971620          beta  =   90.000000
                    c =      3.494479          gamma =   90.000000

                Current cell volume =            66.615777 A**3

                           -------------------------------
                                     Cell Contents
                           -------------------------------

            xxxxxxxxxxxxxxxxxxxxxxxxxxxxxxxxxxxxxxxxxxxxxxxxxxxxxxxxxxxxxxxxx
            x  Element         Atom        Fractional coordinates of atoms  x
            x                 Number           u          v          w      x
            x---------------------------------------------------------------x
            x  H                 1        -0.000000   0.006310   0.106400   x
            x  H                 2         0.000000   0.134976   0.467053   x
            x  H                 3        -0.000000   0.237744   0.347291   x
            x  H                 4         0.500000   0.237744   0.152709   x
            x  H                 5         0.500000   0.134976   0.032947   x
            x  H                 6         0.500000   0.006310   0.393600   x
            x  H                 7         0.500000   0.262256   0.652709   x
            x  H                 8         0.500000   0.365024   0.532947   x
            x  H                 9         0.500000   0.493690   0.893600   x
            x  H                10         0.500000   0.762256   0.847291   x
            x  H                11         0.500000   0.865024   0.967053   x
            x  H                12         0.500000   0.993690   0.606400   x
            x  H                13         0.500000   0.737744   0.347291   x
            x  H                14         0.500000   0.634976   0.467053   x
            x  H                15         0.500000   0.506310   0.106400   x
            x  H                16         0.000000   0.737744   0.152709   x
            x  H                17        -0.000000   0.634976   0.032947   x
            x  H                18        -0.000000   0.506310   0.393600   x
            x  H                19         0.000000   0.762256   0.652709   x
            x  H                20         0.000000   0.865024   0.532947   x
            x  H                21         0.000000   0.993690   0.893600   x
            x  H                22        -0.000000   0.262256   0.847291   x
            x  H                23         0.000000   0.365024   0.967053   x
            x  H                24         0.000000   0.493690   0.606400   x
            xxxxxxxxxxxxxxxxxxxxxxxxxxxxxxxxxxxxxxxxxxxxxxxxxxxxxxxxxxxxxxxxx


------------------------------------------------------------------------ <-- SCF
SCF loop      Energy                           Energy gain       Timer   <-- SCF
                                               per atom          (sec)   <-- SCF
------------------------------------------------------------------------ <-- SCF
Initial  -3.68405134E+002                                        973.08  <-- SCF
      1  -3.68405134E+002                    1.72321874E-011     989.34  <-- SCF
      2  -3.68405134E+002                    4.69272987E-013    1005.82  <-- SCF
      3  -3.68405134E+002                   -2.13086189E-012    1022.31  <-- SCF
      4  -3.68405134E+002                   -2.41685658E-014    1038.86  <-- SCF
------------------------------------------------------------------------ <-- SCF
 
Final energy =  -368.4051344047     eV
(energy not corrected for finite basis set)
 

 ************************************** Forces **************************************
 *                                                                                  *
 *                           Cartesian components (eV/A)                            *
 * -------------------------------------------------------------------------------- *
 *                         x                    y                    z              *
 *                                                                                  *
 * H               1      0.00000             -0.00000             -0.00002         *
 * H               2      0.00000              0.00003             -0.00002         *
 * H               3      0.00000             -0.00003              0.00002         *
 * H               4      0.00000             -0.00001             -0.00001         *
 * H               5     -0.00000              0.00001              0.00001         *
 * H               6      0.00000             -0.00000              0.00003         *
 * H               7      0.00000              0.00000             -0.00000         *
 * H               8     -0.00000             -0.00001              0.00001         *
 * H               9     -0.00000              0.00000              0.00003         *
 * H              10     -0.00000             -0.00000             -0.00000         *
 * H              11      0.00000             -0.00000             -0.00000         *
 * H              12     -0.00000              0.00000             -0.00003         *
 * H              13      0.00000             -0.00002              0.00001         *
 * H              14      0.00000              0.00002             -0.00002         *
 * H              15      0.00000             -0.00000             -0.00003         *
 * H              16     -0.00000             -0.00003             -0.00002         *
 * H              17      0.00000              0.00004              0.00002         *
 * H              18      0.00000             -0.00000              0.00002         *
 * H              19      0.00000             -0.00000              0.00000         *
 * H              20      0.00000             -0.00000              0.00000         *
 * H              21     -0.00000              0.00000              0.00002         *
 * H              22      0.00000              0.00000             -0.00000         *
 * H              23     -0.00000             -0.00000             -0.00000         *
 * H              24     -0.00000              0.00000             -0.00002         *
 *                                                                                  *
 ************************************************************************************

 ***************** Stress Tensor *****************
 *                                               *
 *          Cartesian components (GPa)           *
 * --------------------------------------------- *
 *             x             y             z     *
 *                                               *
 *  x    -60.000015      0.000000      0.000000  *
 *  y      0.000000    -59.999815     -0.000010  *
 *  z      0.000000     -0.000010    -59.999799  *
 *                                               *
 *  Pressure:   59.9999                          *
 *                                               *
 *************************************************
  
 +------------+-------------+-------------+-----------------+ <-- min LBFGS
 |    Step    |   lambda    |   F.delta'  |    enthalpy     | <-- min LBFGS
 +------------+-------------+-------------+-----------------+ <-- min LBFGS
 |  previous  |    0.000000 |  3.525E-006 |     -343.458155 | <-- min LBFGS
 | trial step |    1.000000 |   -0.000014 |     -343.458155 | <-- min LBFGS
 +------------+-------------+-------------+-----------------+ <-- min LBFGS
  

--------------------------------------------------------------------------------
 LBFGS: improving iteration         3 with line minimization (lambda=  0.196620)
--------------------------------------------------------------------------------

                           -------------------------------
                                      Unit Cell
                           -------------------------------
        Real Lattice(A)              Reciprocal Lattice(1/A)
     3.1922914    -0.0000000     0.0000000        1.968236779   0.000000000  -0.000000000
    -0.0000000     5.9716205    -0.0000000        0.000000000   1.052174255   0.000000001
     0.0000000    -0.0000000     3.4944787       -0.000000000   0.000000001   1.798032222

                       Lattice parameters(A)       Cell Angles
                    a =      3.192291          alpha =   90.000000
                    b =      5.971620          beta  =   90.000000
                    c =      3.494479          gamma =   90.000000

                Current cell volume =            66.615781 A**3

                           -------------------------------
                                     Cell Contents
                           -------------------------------

            xxxxxxxxxxxxxxxxxxxxxxxxxxxxxxxxxxxxxxxxxxxxxxxxxxxxxxxxxxxxxxxxx
            x  Element         Atom        Fractional coordinates of atoms  x
            x                 Number           u          v          w      x
            x---------------------------------------------------------------x
            x  H                 1        -0.000000   0.006310   0.106400   x
            x  H                 2         0.000000   0.134976   0.467053   x
            x  H                 3        -0.000000   0.237744   0.347291   x
            x  H                 4         0.500000   0.237744   0.152709   x
            x  H                 5         0.500000   0.134976   0.032947   x
            x  H                 6         0.500000   0.006310   0.393600   x
            x  H                 7         0.500000   0.262256   0.652709   x
            x  H                 8         0.500000   0.365024   0.532947   x
            x  H                 9         0.500000   0.493690   0.893600   x
            x  H                10         0.500000   0.762256   0.847291   x
            x  H                11         0.500000   0.865024   0.967053   x
            x  H                12         0.500000   0.993690   0.606400   x
            x  H                13         0.500000   0.737744   0.347291   x
            x  H                14         0.500000   0.634976   0.467053   x
            x  H                15         0.500000   0.506310   0.106400   x
            x  H                16         0.000000   0.737744   0.152709   x
            x  H                17        -0.000000   0.634976   0.032947   x
            x  H                18        -0.000000   0.506310   0.393600   x
            x  H                19         0.000000   0.762256   0.652709   x
            x  H                20         0.000000   0.865024   0.532947   x
            x  H                21         0.000000   0.993690   0.893600   x
            x  H                22        -0.000000   0.262256   0.847291   x
            x  H                23         0.000000   0.365024   0.967053   x
            x  H                24         0.000000   0.493690   0.606400   x
            xxxxxxxxxxxxxxxxxxxxxxxxxxxxxxxxxxxxxxxxxxxxxxxxxxxxxxxxxxxxxxxxx


------------------------------------------------------------------------ <-- SCF
SCF loop      Energy                           Energy gain       Timer   <-- SCF
                                               per atom          (sec)   <-- SCF
------------------------------------------------------------------------ <-- SCF
Initial  -3.68405136E+002                                       1085.40  <-- SCF
      1  -3.68405136E+002                    1.07066747E-011    1100.18  <-- SCF
      2  -3.68405136E+002                    4.12879666E-013    1116.67  <-- SCF
      3  -3.68405136E+002                   -1.05334666E-012    1133.11  <-- SCF
      4  -3.68405136E+002                    1.65151867E-013    1149.64  <-- SCF
------------------------------------------------------------------------ <-- SCF
 
Final energy =  -368.4051357140     eV
(energy not corrected for finite basis set)
 

 ************************************** Forces **************************************
 *                                                                                  *
 *                           Cartesian components (eV/A)                            *
 * -------------------------------------------------------------------------------- *
 *                         x                    y                    z              *
 *                                                                                  *
 * H               1      0.00000             -0.00000             -0.00000         *
 * H               2     -0.00000              0.00000             -0.00000         *
 * H               3      0.00000              0.00000             -0.00000         *
 * H               4     -0.00000              0.00000              0.00000         *
 * H               5     -0.00000              0.00000              0.00000         *
 * H               6      0.00000             -0.00000              0.00000         *
 * H               7      0.00000             -0.00000              0.00000         *
 * H               8     -0.00000             -0.00000              0.00000         *
 * H               9     -0.00000              0.00000              0.00000         *
 * H              10     -0.00000             -0.00000             -0.00000         *
 * H              11      0.00000             -0.00000             -0.00000         *
 * H              12      0.00000              0.00000             -0.00000         *
 * H              13      0.00000              0.00000             -0.00000         *
 * H              14     -0.00000              0.00000             -0.00000         *
 * H              15      0.00000             -0.00000             -0.00000         *
 * H              16     -0.00000              0.00000              0.00000         *
 * H              17      0.00000              0.00000              0.00000         *
 * H              18      0.00000             -0.00000              0.00000         *
 * H              19      0.00000             -0.00000              0.00000         *
 * H              20      0.00000             -0.00000              0.00000         *
 * H              21     -0.00000              0.00000              0.00000         *
 * H              22      0.00000             -0.00000             -0.00000         *
 * H              23     -0.00000             -0.00000             -0.00000         *
 * H              24     -0.00000              0.00000             -0.00000         *
 *                                                                                  *
 ************************************************************************************

 ***************** Stress Tensor *****************
 *                                               *
 *          Cartesian components (GPa)           *
 * --------------------------------------------- *
 *             x             y             z     *
 *                                               *
 *  x    -60.000002      0.000000     -0.000000  *
 *  y      0.000000    -59.999969     -0.000001  *
 *  z     -0.000000     -0.000001    -60.000019  *
 *                                               *
 *  Pressure:   60.0000                          *
 *                                               *
 *************************************************
  
 +------------+-------------+-------------+-----------------+ <-- min LBFGS
 |    Step    |   lambda    |   F.delta'  |    enthalpy     | <-- min LBFGS
 +------------+-------------+-------------+-----------------+ <-- min LBFGS
 |  previous  |    0.000000 |  3.525E-006 |     -343.458155 | <-- min LBFGS
 | trial step |    1.000000 |   -0.000014 |     -343.458155 | <-- min LBFGS
[...]
 * H              11     -0.00000              0.00000              0.00000         *
 * H              12      0.00000             -0.00000              0.00000         *
 * H              13      0.00000              0.00000             -0.00000         *
 * H              14     -0.00000             -0.00000              0.00000         *
 * H              15     -0.00000              0.00000              0.00000         *
 * H              16      0.00000             -0.00000             -0.00000         *
 * H              17      0.00000              0.00000              0.00000         *
 * H              18     -0.00000             -0.00000              0.00000         *
 * H              19      0.00000              0.00000             -0.00000         *
 * H              20     -0.00000             -0.00000              0.00000         *
 * H              21      0.00000             -0.00000             -0.00000         *
 * H              22     -0.00000              0.00000              0.00000         *
 * H              23      0.00000             -0.00000             -0.00000         *
 * H              24      0.00000              0.00000             -0.00000         *
 *                                                                                  *
 ************************************************************************************

 ***************** Stress Tensor *****************
 *                                               *
 *          Cartesian components (GPa)           *
 * --------------------------------------------- *
 *             x             y             z     *
 *                                               *
 *  x    -60.000006      0.000000     -0.000000  *
 *  y      0.000000    -60.000003      0.000002  *
 *  z     -0.000000      0.000002    -59.999990  *
 *                                               *
 *  Pressure:   60.0000                          *
 *                                               *
 *************************************************

 Pseudo atomic calculation performed for H 1s1

 Converged in 24 iterations to a total energy of -12.4866 eV

Charge spilling parameter for spin component 1 = 0.56%

            Orbital Populations       
     Ion    Atom   Orbital             Charge
  -------------------------------------------
      H     1      S                    1.002
      H     2      S                    1.029
      H     3      S                    0.968
      H     4      S                    0.968
      H     5      S                    1.029
      H     6      S                    1.002
      H     7      S                    0.968
      H     8      S                    1.029
      H     9      S                    1.002
      H    10      S                    0.968
      H    11      S                    1.029
      H    12      S                    1.002
      H    13      S                    0.968
      H    14      S                    1.029
      H    15      S                    1.002
      H    16      S                    0.968
      H    17      S                    1.029
      H    18      S                    1.002
      H    19      S                    0.968
      H    20      S                    1.029
      H    21      S                    1.002
      H    22      S                    0.968
      H    23      S                    1.029
      H    24      S                    1.002
  -------------------------------------------
                           Total:      24.000
  -------------------------------------------

     Atomic Populations (Mulliken)
     -----------------------------
Species          Ion     s      p      d      f     Total  Charge (e)
=====================================================================
  H               1     1.00   0.00   0.00   0.00   1.00    -0.00
  H               2     1.03   0.00   0.00   0.00   1.03    -0.03
  H               3     0.97   0.00   0.00   0.00   0.97     0.03
  H               4     0.97   0.00   0.00   0.00   0.97     0.03
  H               5     1.03   0.00   0.00   0.00   1.03    -0.03
  H               6     1.00   0.00   0.00   0.00   1.00    -0.00
  H               7     0.97   0.00   0.00   0.00   0.97     0.03
  H               8     1.03   0.00   0.00   0.00   1.03    -0.03
  H               9     1.00   0.00   0.00   0.00   1.00    -0.00
  H              10     0.97   0.00   0.00   0.00   0.97     0.03
  H              11     1.03   0.00   0.00   0.00   1.03    -0.03
  H              12     1.00   0.00   0.00   0.00   1.00    -0.00
  H              13     0.97   0.00   0.00   0.00   0.97     0.03
  H              14     1.03   0.00   0.00   0.00   1.03    -0.03
  H              15     1.00   0.00   0.00   0.00   1.00    -0.00
  H              16     0.97   0.00   0.00   0.00   0.97     0.03
  H              17     1.03   0.00   0.00   0.00   1.03    -0.03
  H              18     1.00   0.00   0.00   0.00   1.00    -0.00
  H              19     0.97   0.00   0.00   0.00   0.97     0.03
  H              20     1.03   0.00   0.00   0.00   1.03    -0.03
  H              21     1.00   0.00   0.00   0.00   1.00    -0.00
  H              22     0.97   0.00   0.00   0.00   0.97     0.03
  H              23     1.03   0.00   0.00   0.00   1.03    -0.03
  H              24     1.00   0.00   0.00   0.00   1.00    -0.00
=====================================================================

                 Bond                   Population      Length (A)
======================================================================
              H 7  -- H 8                    1.44        0.74281
              H 10 -- H 11                   1.44        0.74281
              H 13 -- H 14                   1.44        0.74281
              H 4  -- H 5                    1.44        0.74281
              H 2  -- H 3                    1.44        0.74281
              H 16 -- H 17                   1.44        0.74281
              H 19 -- H 20                   1.44        0.74281
              H 22 -- H 23                   1.44        0.74281
              H 9  -- H 15                   1.38        0.74743
              H 1  -- H 21                   1.38        0.74743
              H 6  -- H 12                   1.38        0.74743
              H 18 -- H 24                   1.38        0.74743
              H 17 -- H 18                  -0.05        1.47604
              H 23 -- H 24                  -0.05        1.47604
              H 5  -- H 6                   -0.05        1.47604
              H 20 -- H 21                  -0.05        1.47604
              H 11 -- H 12                  -0.05        1.47604
              H 1  -- H 2                   -0.05        1.47604
              H 14 -- H 15                  -0.05        1.47604
              H 8  -- H 9                   -0.05        1.47604
              H 17 -- H 19                  -0.12        1.53076
              H 16 -- H 20                  -0.12        1.53076
              H 2  -- H 22                  -0.12        1.53076
              H 4  -- H 8                   -0.12        1.53076
              H 3  -- H 23                  -0.12        1.53076
              H 11 -- H 13                  -0.12        1.53076
              H 10 -- H 14                  -0.12        1.53076
              H 5  -- H 7                   -0.12        1.53076
              H 19 -- H 24                   0.00        1.61192
              H 21 -- H 22                   0.00        1.61192
              H 3  -- H 18                   0.00        1.61192
              H 1  -- H 16                   0.00        1.61192
              H 9  -- H 10                   0.00        1.61192
              H 4  -- H 15                   0.00        1.61192
              H 7  -- H 12                   0.00        1.61192
              H 6  -- H 13                   0.00        1.61192
              H 16 -- H 18                  -0.09        1.61822
              H 22 -- H 24                  -0.09        1.61822
              H 4  -- H 6                   -0.09        1.61822
              H 10 -- H 12                  -0.09        1.61822
              H 13 -- H 15                  -0.09        1.61822
              H 1  -- H 3                   -0.09        1.61822
              H 7  -- H 9                   -0.09        1.61822
              H 19 -- H 21                  -0.09        1.61822
              H 17 -- H 23                  -0.04        1.62842
              H 2  -- H 20                  -0.04        1.62842
              H 5  -- H 11                  -0.04        1.62842
              H 8  -- H 14                  -0.04        1.62842
              H 18 -- H 23                  -0.15        1.71278
              H 17 -- H 24                  -0.15        1.71278
              H 2  -- H 21                  -0.15        1.71278
              H 9  -- H 14                  -0.15        1.71278
              H 1  -- H 20                  -0.15        1.71278
              H 5  -- H 12                  -0.15        1.71278
              H 6  -- H 11                  -0.15        1.71278
              H 8  -- H 15                  -0.15        1.71278
              H 13 -- H 16                  -0.02        1.73494
              H 3  -- H 4                   -0.02        1.73494
              H 10 -- H 19                  -0.02        1.73494
              H 7  -- H 22                  -0.02        1.73494
              H 4  -- H 7                   -0.19        1.75336
              H 16 -- H 19                  -0.19        1.75336
              H 10 -- H 13                  -0.19        1.75336
              H 3  -- H 22                  -0.19        1.75336
              H 10 -- H 15                  -0.09        1.77649
              H 6  -- H 7                   -0.09        1.77649
              H 1  -- H 22                  -0.09        1.77649
              H 4  -- H 9                   -0.09        1.77649
              H 18 -- H 19                  -0.09        1.77649
              H 16 -- H 21                  -0.09        1.77649
              H 3  -- H 24                  -0.09        1.77649
              H 12 -- H 13                  -0.09        1.77649
              H 15 -- H 17                  -0.11        1.78995
              H 2  -- H 6                   -0.11        1.78995
              H 9  -- H 23                  -0.11        1.78995
              H 12 -- H 20                  -0.11        1.78995
              H 1  -- H 5                   -0.11        1.78995
              H 14 -- H 18                  -0.11        1.78995
              H 11 -- H 21                  -0.11        1.78995
              H 8  -- H 24                  -0.11        1.78995
              H 15 -- H 23                  -0.11        1.86993
              H 9  -- H 17                  -0.11        1.86993
              H 2  -- H 12                  -0.11        1.86993
              H 5  -- H 21                  -0.11        1.86993
              H 1  -- H 11                  -0.11        1.86993
              H 6  -- H 20                  -0.11        1.86993
              H 14 -- H 24                  -0.11        1.86993
              H 8  -- H 18                  -0.11        1.86993
              H 3  -- H 8                   -0.15        1.88316
              H 14 -- H 19                  -0.15        1.88316
              H 5  -- H 22                  -0.15        1.88316
              H 11 -- H 16                  -0.15        1.88316
              H 10 -- H 17                  -0.15        1.88316
              H 2  -- H 7                   -0.15        1.88316
              H 4  -- H 23                  -0.15        1.88316
              H 13 -- H 20                  -0.15        1.88316
              H 9  -- H 24                  -0.09        1.88545
              H 15 -- H 18                  -0.09        1.88545
              H 12 -- H 21                  -0.09        1.88545
              H 1  -- H 6                   -0.09        1.88545
              H 3  -- H 7                   -0.18        1.92567
              H 13 -- H 19                  -0.18        1.92567
              H 10 -- H 16                  -0.18        1.92567
              H 4  -- H 22                  -0.18        1.92567
              H 8  -- H 22                  -0.11        2.03247
              H 14 -- H 16                  -0.11        2.03247
              H 3  -- H 5                   -0.11        2.03247
              H 13 -- H 17                  -0.11        2.03247
              H 2  -- H 4                   -0.11        2.03247
              H 11 -- H 19                  -0.11        2.03247
              H 10 -- H 20                  -0.11        2.03247
              H 7  -- H 23                  -0.11        2.03247
              H 7  -- H 24                  -0.17        2.11752
              H 13 -- H 18                  -0.17        2.11752
              H 10 -- H 21                  -0.17        2.11752
              H 3  -- H 6                   -0.17        2.11752
              H 1  -- H 4                   -0.17        2.11752
              H 15 -- H 16                  -0.17        2.11752
              H 9  -- H 22                  -0.17        2.11752
              H 12 -- H 19                  -0.17        2.11752
              H 2  -- H 8                   -0.15        2.11847
              H 11 -- H 17                  -0.15        2.11847
              H 5  -- H 23                  -0.15        2.11847
              H 14 -- H 20                  -0.15        2.11847
              H 9  -- H 13                  -0.18        2.15349
              H 7  -- H 15                  -0.18        2.15349
              H 4  -- H 12                  -0.18        2.15349
              H 3  -- H 21                  -0.18        2.15349
              H 1  -- H 19                  -0.18        2.15349
              H 6  -- H 10                  -0.18        2.15349
              H 16 -- H 24                  -0.18        2.15349
              H 18 -- H 22                  -0.18        2.15349
              H 6  -- H 8                   -0.11        2.19675
              H 11 -- H 15                  -0.11        2.19675
              H 2  -- H 24                  -0.11        2.19675
              H 5  -- H 9                   -0.11        2.19675
              H 17 -- H 21                  -0.11        2.19675
              H 1  -- H 23                  -0.11        2.19675
              H 12 -- H 14                  -0.11        2.19675
              H 18 -- H 20                  -0.11        2.19675
              H 14 -- H 17                  -0.17        2.20202
              H 2  -- H 5                   -0.17        2.20202
              H 11 -- H 20                  -0.17        2.20202
              H 8  -- H 23                  -0.17        2.20202
              H 5  -- H 8                   -0.15        2.22262
              H 11 -- H 14                  -0.15        2.22262
              H 17 -- H 20                  -0.15        2.22262
              H 2  -- H 23                  -0.15        2.22262
              H 8  -- H 12                  -0.06        2.23227
              H 9  -- H 11                  -0.06        2.23227
              H 1  -- H 17                  -0.06        2.23227
              H 5  -- H 15                  -0.06        2.23227
              H 2  -- H 18                  -0.06        2.23227
              H 21 -- H 23                  -0.06        2.23227
              H 20 -- H 24                  -0.06        2.23227
              H 6  -- H 14                  -0.06        2.23227
              H 7  -- H 14                  -0.04        2.31837
              H 5  -- H 10                  -0.04        2.31837
              H 16 -- H 23                  -0.04        2.31837
              H 3  -- H 20                  -0.04        2.31837
              H 4  -- H 11                  -0.04        2.31837
              H 17 -- H 22                  -0.04        2.31837
              H 8  -- H 13                  -0.04        2.31837
              H 2  -- H 19                  -0.04        2.31837
              H 1  -- H 10                  -0.14        2.34340
              H 7  -- H 18                  -0.14        2.34340
              H 4  -- H 21                  -0.14        2.34340
              H 3  -- H 12                  -0.14        2.34340
              H 15 -- H 22                  -0.14        2.34340
              H 9  -- H 16                  -0.14        2.34340
              H 13 -- H 24                  -0.14        2.34340
              H 6  -- H 19                  -0.14        2.34340
              H 15 -- H 24                  -0.12        2.36774
              H 9  -- H 18                  -0.12        2.36774
              H 1  -- H 12                  -0.12        2.36774
              H 6  -- H 21                  -0.12        2.36774
              H 9  -- H 19                  -0.00        2.41420
              H 4  -- H 18                  -0.00        2.41420
              H 12 -- H 22                  -0.00        2.41420
              H 6  -- H 16                  -0.00        2.41420
              H 1  -- H 13                  -0.00        2.41420
              H 10 -- H 24                  -0.00        2.41420
              H 3  -- H 15                  -0.00        2.41420
              H 7  -- H 21                  -0.00        2.41420
              H 19 -- H 23                  -0.01        2.61411
              H 2  -- H 16                  -0.01        2.61411
              H 20 -- H 22                  -0.01        2.61411
              H 4  -- H 14                  -0.01        2.61411
              H 3  -- H 17                  -0.01        2.61411
              H 5  -- H 13                  -0.01        2.61411
              H 7  -- H 11                  -0.01        2.61411
              H 8  -- H 10                  -0.01        2.61411
              H 15 -- H 19                  -0.02        2.71979
              H 6  -- H 22                  -0.02        2.71979
              H 12 -- H 16                  -0.02        2.71979
              H 3  -- H 9                   -0.02        2.71979
              H 13 -- H 21                  -0.02        2.71979
              H 4  -- H 24                  -0.02        2.71979
              H 1  -- H 7                   -0.02        2.71979
              H 10 -- H 18                  -0.02        2.71979
              H 14 -- H 23                  -0.01        2.86343
              H 5  -- H 20                  -0.01        2.86343
              H 2  -- H 11                  -0.01        2.86343
              H 8  -- H 17                  -0.01        2.86343
              H 3  -- H 14                   0.00        2.88960
              H 10 -- H 23                   0.00        2.88960
              H 4  -- H 17                   0.00        2.88960
              H 5  -- H 16                   0.00        2.88960
              H 8  -- H 19                   0.00        2.88960
              H 11 -- H 22                   0.00        2.88960
              H 2  -- H 13                   0.00        2.88960
              H 7  -- H 20                   0.00        2.88960
======================================================================


Writing analysis data to Cmca-12.castep_bin

Writing model to Cmca-12.check
 
 A BibTeX formatted list of references used in this run has been written to 
 Cmca-12.bib
 
Initialisation time =      5.45 s
Calculation time    =   3212.80 s
Finalisation time   =      8.40 s
Total time          =   3226.65 s
Peak Memory Use     = 694280 kB
  
Overall parallel efficiency rating: Excellent (96%)                             
  
Data was distributed by:-
k-point (16-way); efficiency rating: Excellent (96%)                            
