 +-------------------------------------------------+
 |                                                 |
 |      CCC   AA    SSS  TTTTT  EEEEE  PPPP        |
 |     C     A  A  S       T    E      P   P       |
 |     C     AAAA   SS     T    EEE    PPPP        |
 |     C     A  A     S    T    E      P           |
 |      CCC  A  A  SSS     T    EEEEE  P           |
 |                                                 |
 +-------------------------------------------------+
 |                                                 |
 | Welcome to Academic Release CASTEP version 18.1 |          
 | Ab Initio Total Energy Program                  |
 |                                                 |
 | Authors:                                        |
 | M. Segall, M. Probert, C. Pickard, P. Hasnip,   |
 | S. Clark, K. Refson, J. R. Yates, M. Payne      |
 |                                                 |
 | Contributors:                                   |
 | P. Lindan, P. Haynes, J. White, V. Milman,      |
 | N. Govind, M. Gibson, P. Tulip, V. Cocula,      |
 | B. Montanari, D. Quigley, M. Glover,            |
 | L. Bernasconi, A. Perlov, M. Plummer,           |
 | E. McNellis, J. Meyer, J. Gale, D. Jochym       |
 | J. Aarons, B. Walker, R. Gillen, D. Jones       |
 | T. Green, I. J. Bush, C. J. Armstrong,          |
 | E. J. Higgins, E. L. Brown, M. S. McFly,        |
 | J. Wilkins, B-C. Shih, P. J. P. Byrne           |
 |                                                 |
 | Copyright (c) 2000 - 2017                       |
 |                                                 |
 |     Distributed under the terms of an           |
 |     Agreement between the United Kingdom        |
 |     Car-Parrinello (UKCP) Consortium,           |
 |     Daresbury Laboratory and Accelrys, Inc.     |
 |                                                 |
 | Please cite                                     |
 |                                                 |
 |     "First principles methods using CASTEP"     |
 |                                                 |
 |         Zeitschrift fuer Kristallographie       |
 |           220(5-6) pp. 567-570 (2005)           |
 |                                                 |
 | S. J. Clark, M. D. Segall, C. J. Pickard,       |
 | P. J. Hasnip, M. J. Probert, K. Refson,         |
 | M. C. Payne                                     |
 |                                                 |
 |       in all publications arising from          |
 |              your use of CASTEP                 |
 |                                                 |
 +-------------------------------------------------+


 Compiled for linux_x86_64_gfortran4.8 on Thu, 19 Jul 2018 15:42:32 +0100
 from code version 70483bd0ad64+  Sun, 10 Dec 2017 12:18:29 +0000
 Compiler: GNU Fortran 4.8.5; Optimisation: fast
 MATHLIBS: Intel MKL(2018.0.0) (LAPACK version 3.7.0)
 FFT Lib : mkl
 Fundamental constants values: CODATA 2014

 Run started: Thu, 30 Jul 2020 14:44:12 +0100

 Atomic calculation performed for H: 1s1

 Converged in 41 iterations to an ae energy of -12.488 eV

   ============================================================                
   | Pseudopotential Report - Date of generation 30-07-2020   |                
   ------------------------------------------------------------                
   | Element: H Ionic charge:  1.00 Level of theory: PBE      |                
   | Atomic Solver: Koelling-Harmon                           |                
   |                                                          |                
   |               Reference Electronic Structure             |                
   |         Orbital         Occupation         Energy        |                
   |            1s              1.000           -0.239        |                
   |                                                          |                
   |                 Pseudopotential Definition               |                
   |        Beta     l      e      Rc     scheme   norm       |                
   |          1      0   -0.239   0.599     qc      0         |                
   |          2      0    0.250   0.599     qc      0         |                
   |         loc     1    0.000   0.599     pn      0         |                
   |                                                          |                
   | Augmentation charge Rinner = 0.421                       |                
   | No partial core correction                               |                
   ------------------------------------------------------------                
   | "1|0.6|13|15|17|10(qc=8)"                                |                
   ------------------------------------------------------------                
   |      Author: Chris J. Pickard, Cambridge University      |                
   ============================================================                

 Pseudo atomic calculation performed for H 1s1

 Converged in 24 iterations to a total energy of -12.4866 eV

 Calculation parallelised over 16 processes.
 Data is distributed by k-point(16-way)

 ************************************ Title ************************************
 

 ***************************** General Parameters ******************************
  
 output verbosity                               : normal  (1)
 write checkpoint data to                       : Cmca4.check
 type of calculation                            : geometry optimization
 stress calculation                             : on
 density difference calculation                 : off
 electron localisation func (ELF) calculation   : off
 Hirshfeld analysis                             : off
 unlimited duration calculation
 timing information                             : on
 memory usage estimate                          : on
 write extra output files                       : on
 write final potential to formatted file        : off
 write final density to formatted file          : off
 write structure in CELL formatted file         : on
 write BibTeX reference list                    : on
 write OTFG pseudopotential files               : on
 write electrostatic potential file             : on
 write bands file                               : on
 checkpoint writing                             : both castep_bin and check files
  
 output         length unit                     : A
 output           mass unit                     : amu
 output           time unit                     : ps
 output         charge unit                     : e
 output           spin unit                     : hbar/2
 output         energy unit                     : eV
 output          force unit                     : eV/A
 output       velocity unit                     : A/ps
 output       pressure unit                     : GPa
 output     inv_length unit                     : 1/A
 output      frequency unit                     : cm-1
 output force constant unit                     : eV/A**2
 output         volume unit                     : A**3
 output   IR intensity unit                     : (D/A)**2/amu
 output         dipole unit                     : D
 output         efield unit                     : eV/A/e
 output        entropy unit                     : J/mol/K
  
 wavefunctions paging                           : none
 random number generator seed                   : randomised (144412429)
 data distribution                              : optimal for this architecture
 optimization strategy                          : minimize memory(---)

 *********************** Exchange-Correlation Parameters ***********************
  
 using functional                               : Perdew Burke Ernzerhof
 relativistic treatment                         : Koelling-Harmon
 DFT+D: Semi-empirical dispersion correction    : off

 ************************* Pseudopotential Parameters **************************
  
 pseudopotential representation                 : reciprocal space
 <beta|phi> representation                      : reciprocal space
 spin-orbit coupling                            : off

 **************************** Basis Set Parameters *****************************
  
 plane wave basis set cut-off                   :  1200.0000   eV
 size of standard grid                          :     2.0000
 size of   fine   gmax                          :    35.4943   1/A
 finite basis set correction                    : automatic
 number of sample energies                      :          3
           sample  spacing                      :     5.0000   eV

 **************************** Electronic Parameters ****************************
  
 number of  electrons                           :  8.000    
 net charge of system                           :  0.000    
 treating system as non-spin-polarized
 number of bands                                :          4

 ********************* Electronic Minimization Parameters **********************
  
 Method: Treating system as non-metallic,
         and number of  SD  steps               :          1
         and number of  CG  steps               :          4
  
 total energy / atom convergence tol.           : 0.1000E-10   eV
 eigen-energy convergence tolerance             : 0.2000E-10   eV
 max force / atom convergence tol.              : ignored
 convergence tolerance window                   :          3   cycles
 max. number of SCF cycles                      :        100
 periodic dipole correction                     : NONE

 ************************** Density Mixing Parameters **************************
  
 density-mixing scheme                          : Broyden
 max. length of mixing history                  :         20
 charge density mixing amplitude                : 0.8000    
 cut-off energy for mixing                      :  1200.       eV

 *********************** Population Analysis Parameters ************************
  
 Population analysis with cutoff                :  3.000       A
 Population analysis output                     : summary and pdos components

 ********************** Geometry Optimization Parameters ***********************
  
 optimization method                            : LBFGS
 max. no. of LBFGS updates                      : unbounded
 variable cell method                           : fixed basis quality
 max. number of steps                           :         60
 estimated bulk modulus                         :  500.0       GPa
 estimated <frequency>                          :  1668.       cm-1
 geom line minimiser                            : on
 with line minimiser tolerance                  :     0.4000
 total energy convergence tolerance             : 0.1000E-08   eV/atom
        max ionic |force| tolerance             : 0.1000E-03   eV/A
 max ionic |displacement| tolerance             : 0.1000E-03   A
   max |stress component| tolerance             : 0.1000E-03   GPa
 convergence tolerance window                   :          2   steps
 backup results every                           :      14400   seconds
 write geom trajectory file                     : on

 *******************************************************************************
  

                           -------------------------------
                                      Unit Cell
                           -------------------------------
        Real Lattice(A)                      Reciprocal Lattice(1/A)
     1.6241320     0.0000000     0.0000000        3.868642003  -0.000000000   0.000000000
     0.0000000     2.8041912     0.0000000       -0.000000000   2.240640845   0.000000000
     0.0000000     0.0000000     2.5435356        0.000000000   0.000000000   2.470256529

                       Lattice parameters(A)       Cell Angles
                    a =      1.624132          alpha =   90.000000
                    b =      2.804191          beta  =   90.000000
                    c =      2.543536          gamma =   90.000000

                       Current cell volume =            11.584219       A**3
                                   density =             0.696078   AMU/A**3
                                           =             1.155865     g/cm^3

                           -------------------------------
                                     Cell Contents
                           -------------------------------
                         Total number of ions in cell =    8
                      Total number of species in cell =    1
                        Max number of any one species =    8

            xxxxxxxxxxxxxxxxxxxxxxxxxxxxxxxxxxxxxxxxxxxxxxxxxxxxxxxxxxxx
            x  Element    Atom        Fractional coordinates of atoms  x
            x            Number           u          v          w      x
            x----------------------------------------------------------x
            x  H            1        -0.000000   0.372989   0.439474   x 
            x  H            2         0.000000   0.127011   0.939474   x 
            x  H            3         0.000000   0.872989   0.060526   x 
            x  H            4        -0.000000   0.627011   0.560526   x 
            x  H            5         0.500000   0.872989   0.439474   x 
            x  H            6         0.500000   0.627011   0.939474   x 
            x  H            7         0.500000   0.372989   0.060526   x 
            x  H            8         0.500000   0.127011   0.560526   x 
            xxxxxxxxxxxxxxxxxxxxxxxxxxxxxxxxxxxxxxxxxxxxxxxxxxxxxxxxxxxx


                         No user defined ionic velocities

                           -------------------------------
                                   Details of Species
                           -------------------------------

                               Mass of species in AMU
                                    H    2.0141018

                          Electric Quadrupole Moment (Barn)
                                    H    0.0028600 Isotope  2

                          Files used for pseudopotentials:
                                    H 1|0.6|13|15|17|10(qc=8)

                           -------------------------------
                              k-Points For BZ Sampling
                           -------------------------------
                       MP grid size for SCF calculation is 11 11 11
                            with an offset of   0.000  0.000  0.000
                       Number of kpoints used =           216

                           -------------------------------
                               Symmetry and Constraints
                           -------------------------------

                      Cell is a supercell containing 2 primitive cells
                      Maximum deviation from symmetry = 0.317688E-15     ANG

                      Number of symmetry operations   =          16
                      Number of ionic constraints     =           3
                      Point group of crystal =     8: D2h, mmm, 2/m 2/m 2/m
                      Space group of crystal =    64: Cmce, -C 2bc 2

             Set iprint > 1 for details on symmetry rotations/translations

                         Centre of mass is constrained
             Set iprint > 1 for details of linear ionic constraints

                         Number of cell constraints= 3
                         Cell constraints are:  1 2 3 0 0 0

                         External pressure/stress (GPa)
                        300.00000   0.00000   0.00000
                                  300.00000   0.00000
                                            300.00000
  
+---------------- MEMORY AND SCRATCH DISK ESTIMATES PER PROCESS --------------+
|                                                     Memory          Disk    |
| Baseline code, static data and system overhead      414.0 MB         0.0 MB |
| BLAS internal memory storage                          0.0 MB         0.0 MB |
| Model and support data                               13.6 MB         0.5 MB |
| Electronic energy minimisation requirements           4.4 MB         1.9 MB |
| Force calculation requirements                        1.9 MB         0.0 MB |
| Stress calculation requirements                       2.5 MB         0.0 MB |
|                                               ----------------------------- |
| Approx. total storage required per process          432.0 MB         2.4 MB |
|                                                                             |
| Requirements will fluctuate during execution and may exceed these estimates |
+-----------------------------------------------------------------------------+
Calculating finite basis set correction with  3 cut-off energies.
Calculating total energy with cut-off of 1190.000 eV.
------------------------------------------------------------------------ <-- SCF
SCF loop      Energy                           Energy gain       Timer   <-- SCF
                                               per atom          (sec)   <-- SCF
------------------------------------------------------------------------ <-- SCF
Initial   1.78841401E+002                                          4.09  <-- SCF
      1  -1.02560929E+002                    3.51752913E+001       4.61  <-- SCF
      2  -1.13589783E+002                    1.37860672E+000       5.00  <-- SCF
      3  -1.13528572E+002                   -7.65142778E-003       5.60  <-- SCF
      4  -1.13527634E+002                   -1.17235196E-004       6.22  <-- SCF
      5  -1.13527718E+002                    1.05549204E-005       6.79  <-- SCF
      6  -1.13527725E+002                    8.07795903E-007       7.35  <-- SCF
      7  -1.13527725E+002                    1.08973344E-009       7.93  <-- SCF
      8  -1.13527725E+002                    5.53006997E-011       8.40  <-- SCF
      9  -1.13527725E+002                    1.58606213E-012       8.85  <-- SCF
     10  -1.13527725E+002                    6.34424853E-014       9.30  <-- SCF
------------------------------------------------------------------------ <-- SCF
 
Final energy =  -113.5277246593     eV
(energy not corrected for finite basis set)
 
Calculating total energy with cut-off of 1195.000 eV.
------------------------------------------------------------------------ <-- SCF
SCF loop      Energy                           Energy gain       Timer   <-- SCF
                                               per atom          (sec)   <-- SCF
------------------------------------------------------------------------ <-- SCF
Initial  -1.13527725E+002                                          9.70  <-- SCF
      1  -1.13527741E+002                    2.02084278E-006      10.12  <-- SCF
      2  -1.13527741E+002                    1.29906041E-012      10.57  <-- SCF
      3  -1.13527741E+002                    4.95890634E-010      11.02  <-- SCF
      4  -1.13527741E+002                    6.78230379E-012      11.48  <-- SCF
      5  -1.13527741E+002                   -2.62833153E-013      11.93  <-- SCF
------------------------------------------------------------------------ <-- SCF
 
Final energy =  -113.5277408301     eV
(energy not corrected for finite basis set)
 
Calculating total energy with cut-off of 1200.000 eV.
------------------------------------------------------------------------ <-- SCF
SCF loop      Energy                           Energy gain       Timer   <-- SCF
                                               per atom          (sec)   <-- SCF
------------------------------------------------------------------------ <-- SCF
Initial  -1.13527741E+002                                         12.34  <-- SCF
      1  -1.13527757E+002                    1.99899539E-006      12.75  <-- SCF
      2  -1.13527757E+002                    1.54980928E-012      13.20  <-- SCF
      3  -1.13527757E+002                    4.92664130E-010      13.65  <-- SCF
      4  -1.13527757E+002                    6.48019672E-012      14.19  <-- SCF
      5  -1.13527757E+002                   -8.45899804E-014      14.64  <-- SCF
------------------------------------------------------------------------ <-- SCF
 
Final energy =  -113.5277568260     eV
(energy not corrected for finite basis set)
 
 For future reference: finite basis dEtot/dlog(Ecut) =      -0.003870eV
 Total energy corrected for finite basis set =    -113.527757 eV
 
+---------------- MEMORY AND SCRATCH DISK ESTIMATES PER PROCESS --------------+
|                                                     Memory          Disk    |
| Model and support data                               23.8 MB         0.5 MB |
| Electronic energy minimisation requirements           4.4 MB         1.9 MB |
| Geometry minimisation requirements                    6.0 MB         1.9 MB |
|                                               ----------------------------- |
| Approx. total storage required per process           34.1 MB         4.3 MB |
|                                                                             |
| Requirements will fluctuate during execution and may exceed these estimates |
+-----------------------------------------------------------------------------+
 

 ******************************** Symmetrised Forces ********************************
 *                                                                                  *
 *                           Cartesian components (eV/A)                            *
 * -------------------------------------------------------------------------------- *
 *                         x                    y                    z              *
 *                                                                                  *
 * H               1     -0.00000             -0.01279             -0.00780         *
 * H               2     -0.00000              0.01279             -0.00780         *
 * H               3      0.00000             -0.01279              0.00780         *
 * H               4     -0.00000              0.01279              0.00780         *
 * H               5     -0.00000             -0.01279             -0.00780         *
 * H               6      0.00000              0.01279             -0.00780         *
 * H               7      0.00000             -0.01279              0.00780         *
 * H               8     -0.00000              0.01279              0.00780         *
 *                                                                                  *
 ************************************************************************************

 *********** Symmetrised Stress Tensor ***********
 *                                               *
 *          Cartesian components (GPa)           *
 * --------------------------------------------- *
 *             x             y             z     *
 *                                               *
 *  x   -299.656430      0.000000      0.000000  *
 *  y      0.000000   -300.183555      0.000000  *
 *  z      0.000000      0.000000   -299.800598  *
 *                                               *
 *  Pressure:  299.8802                          *
 *                                               *
 *************************************************
 LBFGS: finished iteration     0 with enthalpy= -9.18368543E+001 eV
  
 +-----------+-----------------+-----------------+------------+-----+ <-- LBFGS
 | Parameter |      value      |    tolerance    |    units   | OK? | <-- LBFGS
 +-----------+-----------------+-----------------+------------+-----+ <-- LBFGS
 |  dE/ion   |   0.000000E+000 |   1.000000E-009 |         eV | No  | <-- LBFGS
 |  |F|max   |   1.497768E-002 |   1.000000E-004 |       eV/A | No  | <-- LBFGS
 |  |dR|max  |   0.000000E+000 |   1.000000E-004 |          A | No  | <-- LBFGS
 |   Smax    |   3.435702E-001 |   1.000000E-004 |        GPa | No  | <-- LBFGS
 +-----------+-----------------+-----------------+------------+-----+ <-- LBFGS
  

================================================================================
 Starting LBFGS iteration          1 ...
================================================================================
  
 +------------+-------------+-------------+-----------------+ <-- min LBFGS
 |    Step    |   lambda    |   F.delta'  |    enthalpy     | <-- min LBFGS
 +------------+-------------+-------------+-----------------+ <-- min LBFGS
 |  previous  |    0.000000 |    0.004377 |      -91.836854 | <-- min LBFGS
 +------------+-------------+-------------+-----------------+ <-- min LBFGS
  

--------------------------------------------------------------------------------
 LBFGS: starting iteration         1 with trial guess (lambda=  1.000000)
--------------------------------------------------------------------------------

                           -------------------------------
                                      Unit Cell
                           -------------------------------
        Real Lattice(A)              Reciprocal Lattice(1/A)
     1.6237600     0.0000000     0.0000000        3.869528307  -0.000000000   0.000000000
     0.0000000     2.8045343     0.0000000       -0.000000000   2.240366691   0.000000000
     0.0000000     0.0000000     2.5431974        0.000000000   0.000000000   2.470584956

                       Lattice parameters(A)       Cell Angles
                    a =      1.623760          alpha =   90.000000
                    b =      2.804534          beta  =   90.000000
                    c =      2.543197          gamma =   90.000000

                Current cell volume =            11.581443 A**3

                           -------------------------------
                                     Cell Contents
                           -------------------------------

            xxxxxxxxxxxxxxxxxxxxxxxxxxxxxxxxxxxxxxxxxxxxxxxxxxxxxxxxxxxxxxxxx
            x  Element         Atom        Fractional coordinates of atoms  x
            x                 Number           u          v          w      x
            x---------------------------------------------------------------x
            x  H                 1        -0.000000   0.372768   0.439325   x
            x  H                 2        -0.000000   0.127232   0.939325   x
            x  H                 3         0.000000   0.872768   0.060675   x
            x  H                 4         0.000000   0.627232   0.560675   x
            x  H                 5         0.500000   0.872768   0.439325   x
            x  H                 6         0.500000   0.627232   0.939325   x
            x  H                 7         0.500000   0.372768   0.060675   x
            x  H                 8         0.500000   0.127232   0.560675   x
            xxxxxxxxxxxxxxxxxxxxxxxxxxxxxxxxxxxxxxxxxxxxxxxxxxxxxxxxxxxxxxxxx


------------------------------------------------------------------------ <-- SCF
SCF loop      Energy                           Energy gain       Timer   <-- SCF
                                               per atom          (sec)   <-- SCF
------------------------------------------------------------------------ <-- SCF
Initial  -1.13522208E+002                                         16.01  <-- SCF
      1  -1.13522591E+002                    4.78926963E-005      16.44  <-- SCF
      2  -1.13522592E+002                    1.03873865E-007      17.00  <-- SCF
      3  -1.13522574E+002                   -2.29176737E-006      17.56  <-- SCF
      4  -1.13522573E+002                   -1.19255867E-007      18.13  <-- SCF
      5  -1.13522573E+002                    1.65560718E-010      18.62  <-- SCF
      6  -1.13522573E+002                    1.07429275E-011      19.12  <-- SCF
      7  -1.13522573E+002                    2.71896366E-014      19.56  <-- SCF
      8  -1.13522573E+002                   -5.74003439E-014      20.01  <-- SCF
------------------------------------------------------------------------ <-- SCF
 
Final energy =  -113.5225728684     eV
(energy not corrected for finite basis set)
 

 ******************************** Symmetrised Forces ********************************
 *                                                                                  *
 *                           Cartesian components (eV/A)                            *
 * -------------------------------------------------------------------------------- *
 *                         x                    y                    z              *
 *                                                                                  *
 * H               1      0.00000              0.01115              0.00324         *
 * H               2      0.00000             -0.01115              0.00324         *
 * H               3     -0.00000              0.01115             -0.00324         *
 * H               4      0.00000             -0.01115             -0.00324         *
 * H               5      0.00000              0.01115              0.00324         *
 * H               6     -0.00000             -0.01115              0.00324         *
 * H               7     -0.00000              0.01115             -0.00324         *
 * H               8     -0.00000             -0.01115             -0.00324         *
 *                                                                                  *
 ************************************************************************************

 *********** Symmetrised Stress Tensor ***********
 *                                               *
 *          Cartesian components (GPa)           *
 * --------------------------------------------- *
 *             x             y             z     *
 *                                               *
 *  x   -299.891561      0.000000      0.000000  *
 *  y      0.000000   -299.309967      0.000000  *
 *  z      0.000000      0.000000   -299.886545  *
 *                                               *
 *  Pressure:  299.6960                          *
 *                                               *
 *************************************************
  
 +------------+-------------+-------------+-----------------+ <-- min LBFGS
 |    Step    |   lambda    |   F.delta'  |    enthalpy     | <-- min LBFGS
 +------------+-------------+-------------+-----------------+ <-- min LBFGS
 |  previous  |    0.000000 |    0.004377 |      -91.836854 | <-- min LBFGS
 | trial step |    1.000000 |   -0.003109 |      -91.836868 | <-- min LBFGS
 +------------+-------------+-------------+-----------------+ <-- min LBFGS
  

--------------------------------------------------------------------------------
 LBFGS: improving iteration         1 with line minimization (lambda=  0.584726)
--------------------------------------------------------------------------------

                           -------------------------------
                                      Unit Cell
                           -------------------------------
        Real Lattice(A)              Reciprocal Lattice(1/A)
     1.6239145     0.0000000     0.0000000        3.869160199  -0.000000000   0.000000000
     0.0000000     2.8043918     0.0000000       -0.000000000   2.240480532   0.000000000
     0.0000000     0.0000000     2.5433378        0.000000000   0.000000000   2.470448558

                       Lattice parameters(A)       Cell Angles
                    a =      1.623914          alpha =   90.000000
                    b =      2.804392          beta  =   90.000000
                    c =      2.543338          gamma =   90.000000

                Current cell volume =            11.582596 A**3

                           -------------------------------
                                     Cell Contents
                           -------------------------------

            xxxxxxxxxxxxxxxxxxxxxxxxxxxxxxxxxxxxxxxxxxxxxxxxxxxxxxxxxxxxxxxxx
            x  Element         Atom        Fractional coordinates of atoms  x
            x                 Number           u          v          w      x
            x---------------------------------------------------------------x
            x  H                 1        -0.000000   0.372860   0.439387   x
            x  H                 2        -0.000000   0.127140   0.939387   x
            x  H                 3         0.000000   0.872860   0.060613   x
            x  H                 4         0.000000   0.627140   0.560613   x
            x  H                 5         0.500000   0.872860   0.439387   x
            x  H                 6         0.500000   0.627140   0.939387   x
            x  H                 7         0.500000   0.372860   0.060613   x
            x  H                 8         0.500000   0.127140   0.560613   x
            xxxxxxxxxxxxxxxxxxxxxxxxxxxxxxxxxxxxxxxxxxxxxxxxxxxxxxxxxxxxxxxxx


------------------------------------------------------------------------ <-- SCF
SCF loop      Energy                           Energy gain       Timer   <-- SCF
                                               per atom          (sec)   <-- SCF
------------------------------------------------------------------------ <-- SCF
Initial  -1.13524683E+002                                         21.37  <-- SCF
      1  -1.13524749E+002                    8.29475034E-006      21.81  <-- SCF
      2  -1.13524749E+002                    1.80398284E-008      22.38  <-- SCF
      3  -1.13524746E+002                   -3.94284660E-007      22.96  <-- SCF
      4  -1.13524746E+002                   -2.05539272E-008      23.54  <-- SCF
      5  -1.13524746E+002                    2.82077374E-011      23.99  <-- SCF
      6  -1.13524746E+002                    1.93952741E-012      24.43  <-- SCF
      7  -1.13524746E+002                    5.10560953E-013      24.88  <-- SCF
------------------------------------------------------------------------ <-- SCF
 
Final energy =  -113.5247457399     eV
(energy not corrected for finite basis set)
 

 ******************************** Symmetrised Forces ********************************
 *                                                                                  *
 *                           Cartesian components (eV/A)                            *
 * -------------------------------------------------------------------------------- *
 *                         x                    y                    z              *
 *                                                                                  *
 * H               1     -0.00000              0.00125             -0.00133         *
 * H               2     -0.00000             -0.00125             -0.00133         *
 * H               3      0.00000              0.00125              0.00133         *
 * H               4      0.00000             -0.00125              0.00133         *
 * H               5      0.00000              0.00125             -0.00133         *
 * H               6      0.00000             -0.00125             -0.00133         *
 * H               7     -0.00000              0.00125              0.00133         *
 * H               8     -0.00000             -0.00125              0.00133         *
 *                                                                                  *
 ************************************************************************************

 *********** Symmetrised Stress Tensor ***********
 *                                               *
 *          Cartesian components (GPa)           *
 * --------------------------------------------- *
 *             x             y             z     *
 *                                               *
 *  x   -299.793461      0.000000      0.000000  *
 *  y      0.000000   -299.672042      0.000000  *
 *  z      0.000000      0.000000   -299.850531  *
 *                                               *
 *  Pressure:  299.7720                          *
 *                                               *
 *************************************************
  
 +------------+-------------+-------------+-----------------+ <-- min LBFGS
 |    Step    |   lambda    |   F.delta'  |    enthalpy     | <-- min LBFGS
 +------------+-------------+-------------+-----------------+ <-- min LBFGS
 |  previous  |    0.000000 |    0.004377 |      -91.836854 | <-- min LBFGS
 | trial step |    1.000000 |   -0.003109 |      -91.836868 | <-- min LBFGS
 |  line step |    0.584726 |   -0.000011 |      -91.836882 | <-- min LBFGS
 +------------+-------------+-------------+-----------------+ <-- min LBFGS
  
 LBFGS: finished iteration     1 with enthalpy= -9.18368824E+001 eV
  
 +-----------+-----------------+-----------------+------------+-----+ <-- LBFGS
 | Parameter |      value      |    tolerance    |    units   | OK? | <-- LBFGS
 +-----------+-----------------+-----------------+------------+-----+ <-- LBFGS
 |  dE/ion   |   3.503103E-006 |   1.000000E-009 |         eV | No  | <-- LBFGS
 |  |F|max   |   1.823508E-003 |   1.000000E-004 |       eV/A | No  | <-- LBFGS
 |  |dR|max  |   4.250995E-004 |   1.000000E-004 |          A | No  | <-- LBFGS
 |   Smax    |   3.279576E-001 |   1.000000E-004 |        GPa | No  | <-- LBFGS
 +-----------+-----------------+-----------------+------------+-----+ <-- LBFGS
  

================================================================================
 Starting LBFGS iteration          2 ...
================================================================================
  
 +------------+-------------+-------------+-----------------+ <-- min LBFGS
 |    Step    |   lambda    |   F.delta'  |    enthalpy     | <-- min LBFGS
 +------------+-------------+-------------+-----------------+ <-- min LBFGS
 |  previous  |    0.000000 |    0.001148 |      -91.836882 | <-- min LBFGS
 +------------+-------------+-------------+-----------------+ <-- min LBFGS
  

--------------------------------------------------------------------------------
 LBFGS: starting iteration         2 with trial guess (lambda=  1.000000)
--------------------------------------------------------------------------------

                           -------------------------------
                                      Unit Cell
                           -------------------------------
        Real Lattice(A)              Reciprocal Lattice(1/A)
     1.6236541     0.0000000     0.0000000        3.869780668  -0.000000000   0.000000000
     0.0000000     2.8038147     0.0000000       -0.000000000   2.240941677   0.000000000
     0.0000000     0.0000000     2.5430511        0.000000000   0.000000000   2.470727086

                       Lattice parameters(A)       Cell Angles
                    a =      1.623654          alpha =   90.000000
                    b =      2.803815          beta  =   90.000000
                    c =      2.543051          gamma =   90.000000

                Current cell volume =            11.577050 A**3

                           -------------------------------
                                     Cell Contents
                           -------------------------------

            xxxxxxxxxxxxxxxxxxxxxxxxxxxxxxxxxxxxxxxxxxxxxxxxxxxxxxxxxxxxxxxxx
            x  Element         Atom        Fractional coordinates of atoms  x
            x                 Number           u          v          w      x
            x---------------------------------------------------------------x
            x  H                 1        -0.000000   0.372859   0.439347   x
            x  H                 2        -0.000000   0.127141   0.939347   x
            x  H                 3         0.000000   0.872859   0.060653   x
            x  H                 4        -0.000000   0.627141   0.560653   x
            x  H                 5         0.500000   0.872859   0.439347   x
            x  H                 6         0.500000   0.627141   0.939347   x
            x  H                 7         0.500000   0.372859   0.060653   x
            x  H                 8         0.500000   0.127141   0.560653   x
            xxxxxxxxxxxxxxxxxxxxxxxxxxxxxxxxxxxxxxxxxxxxxxxxxxxxxxxxxxxxxxxxx


------------------------------------------------------------------------ <-- SCF
SCF loop      Energy                           Energy gain       Timer   <-- SCF
                                               per atom          (sec)   <-- SCF
------------------------------------------------------------------------ <-- SCF
Initial  -1.13514360E+002                                         26.25  <-- SCF
      1  -1.13514365E+002                    5.91420156E-007      26.68  <-- SCF
      2  -1.13514365E+002                    1.59971133E-009      27.25  <-- SCF
      3  -1.13514365E+002                   -1.78234110E-009      27.82  <-- SCF
      4  -1.13514365E+002                    1.90025349E-012      28.39  <-- SCF
      5  -1.13514365E+002                    2.25976091E-012      28.84  <-- SCF
------------------------------------------------------------------------ <-- SCF
 
Final energy =  -113.5143649068     eV
(energy not corrected for finite basis set)
 

 ******************************** Symmetrised Forces ********************************
 *                                                                                  *
 *                           Cartesian components (eV/A)                            *
 * -------------------------------------------------------------------------------- *
 *                         x                    y                    z              *
 *                                                                                  *
 * H               1      0.00000              0.00038             -0.00153         *
 * H               2      0.00000             -0.00038             -0.00153         *
 * H               3     -0.00000              0.00038              0.00153         *
 * H               4      0.00000             -0.00038              0.00153         *
 * H               5      0.00000              0.00038             -0.00153         *
 * H               6      0.00000             -0.00038             -0.00153         *
 * H               7     -0.00000              0.00038              0.00153         *
 * H               8     -0.00000             -0.00038              0.00153         *
 *                                                                                  *
 ************************************************************************************

 *********** Symmetrised Stress Tensor ***********
 *                                               *
 *          Cartesian components (GPa)           *
 * --------------------------------------------- *
 *             x             y             z     *
 *                                               *
 *  x   -300.148203      0.000000      0.000000  *
 *  y      0.000000   -300.130372      0.000000  *
 *  z      0.000000      0.000000   -300.149840  *
 *                                               *
 *  Pressure:  300.1428                          *
 *                                               *
 *************************************************
  
 +------------+-------------+-------------+-----------------+ <-- min LBFGS
 |    Step    |   lambda    |   F.delta'  |    enthalpy     | <-- min LBFGS
 +------------+-------------+-------------+-----------------+ <-- min LBFGS
 |  previous  |    0.000000 |    0.001148 |      -91.836882 | <-- min LBFGS
 | trial step |    1.000000 |   -0.000436 |      -91.836885 | <-- min LBFGS
 +------------+-------------+-------------+-----------------+ <-- min LBFGS
  
 LBFGS: finished iteration     2 with enthalpy= -9.18368853E+001 eV
  
 +-----------+-----------------+-----------------+------------+-----+ <-- LBFGS
 | Parameter |      value      |    tolerance    |    units   | OK? | <-- LBFGS
 +-----------+-----------------+-----------------+------------+-----+ <-- LBFGS
 |  dE/ion   |   3.719072E-007 |   1.000000E-009 |         eV | No  | <-- LBFGS
 |  |F|max   |   1.577180E-003 |   1.000000E-004 |       eV/A | No  | <-- LBFGS
 |  |dR|max  |   1.021962E-004 |   1.000000E-004 |          A | No  | <-- LBFGS
 |   Smax    |   1.498402E-001 |   1.000000E-004 |        GPa | No  | <-- LBFGS
 +-----------+-----------------+-----------------+------------+-----+ <-- LBFGS
  

================================================================================
 Starting LBFGS iteration          3 ...
================================================================================
  
 +------------+-------------+-------------+-----------------+ <-- min LBFGS
 |    Step    |   lambda    |   F.delta'  |    enthalpy     | <-- min LBFGS
 +------------+-------------+-------------+-----------------+ <-- min LBFGS
 |  previous  |    0.000000 |    0.000762 |      -91.836885 | <-- min LBFGS
 +------------+-------------+-------------+-----------------+ <-- min LBFGS
  

--------------------------------------------------------------------------------
 LBFGS: starting iteration         3 with trial guess (lambda=  1.000000)
--------------------------------------------------------------------------------

                           -------------------------------
                                      Unit Cell
                           -------------------------------
        Real Lattice(A)              Reciprocal Lattice(1/A)
     1.6237441     0.0000000     0.0000000        3.869566129  -0.000000000   0.000000000
     0.0000000     2.8039013     0.0000000       -0.000000000   2.240872490   0.000000000
     0.0000000     0.0000000     2.5432043        0.000000000   0.000000000   2.470578236

                       Lattice parameters(A)       Cell Angles
                    a =      1.623744          alpha =   90.000000
                    b =      2.803901          beta  =   90.000000
                    c =      2.543204          gamma =   90.000000

                Current cell volume =            11.578747 A**3

                           -------------------------------
                                     Cell Contents
                           -------------------------------

            xxxxxxxxxxxxxxxxxxxxxxxxxxxxxxxxxxxxxxxxxxxxxxxxxxxxxxxxxxxxxxxxx
            x  Element         Atom        Fractional coordinates of atoms  x
            x                 Number           u          v          w      x
            x---------------------------------------------------------------x
            x  H                 1        -0.000000   0.372870   0.439324   x
            x  H                 2        -0.000000   0.127130   0.939324   x
            x  H                 3         0.000000   0.872870   0.060676   x
            x  H                 4         0.000000   0.627130   0.560676   x
            x  H                 5         0.500000   0.872870   0.439324   x
            x  H                 6         0.500000   0.627130   0.939324   x
            x  H                 7         0.500000   0.372870   0.060676   x
            x  H                 8         0.500000   0.127130   0.560676   x
            xxxxxxxxxxxxxxxxxxxxxxxxxxxxxxxxxxxxxxxxxxxxxxxxxxxxxxxxxxxxxxxxx


------------------------------------------------------------------------ <-- SCF
SCF loop      Energy                           Energy gain       Timer   <-- SCF
                                               per atom          (sec)   <-- SCF
------------------------------------------------------------------------ <-- SCF
Initial  -1.13517542E+002                                         30.22  <-- SCF
      1  -1.13517544E+002                    2.31134427E-007      30.65  <-- SCF
      2  -1.13517544E+002                    6.18482663E-010      31.21  <-- SCF
      3  -1.13517544E+002                   -1.30697562E-010      31.78  <-- SCF
      4  -1.13517544E+002                    2.55250266E-011      32.25  <-- SCF
      5  -1.13517544E+002                    7.52246612E-013      32.69  <-- SCF
      6  -1.13517544E+002                    4.95455600E-013      33.15  <-- SCF
------------------------------------------------------------------------ <-- SCF
 
Final energy =  -113.5175439208     eV
(energy not corrected for finite basis set)
 

 ******************************** Symmetrised Forces ********************************
 *                                                                                  *
 *                           Cartesian components (eV/A)                            *
 * -------------------------------------------------------------------------------- *
 *                         x                    y                    z              *
 *                                                                                  *
 * H               1      0.00000              0.00060             -0.00117         *
 * H               2      0.00000             -0.00060             -0.00117         *
 * H               3     -0.00000              0.00060              0.00117         *
 * H               4      0.00000             -0.00060              0.00117         *
 * H               5     -0.00000              0.00060             -0.00117         *
 * H               6      0.00000             -0.00060             -0.00117         *
 * H               7     -0.00000              0.00060              0.00117         *
 * H               8      0.00000             -0.00060              0.00117         *
 *                                                                                  *
 ************************************************************************************

 *********** Symmetrised Stress Tensor ***********
 *                                               *
 *          Cartesian components (GPa)           *
 * --------------------------------------------- *
 *             x             y             z     *
 *                                               *
 *  x   -300.030666      0.000000      0.000000  *
 *  y      0.000000   -300.025432      0.000000  *
 *  z      0.000000      0.000000   -300.026630  *
 *                                               *
 *  Pressure:  300.0276                          *
 *                                               *
 *************************************************
  
 +------------+-------------+-------------+-----------------+ <-- min LBFGS
 |    Step    |   lambda    |   F.delta'  |    enthalpy     | <-- min LBFGS
 +------------+-------------+-------------+-----------------+ <-- min LBFGS
 |  previous  |    0.000000 |    0.000762 |      -91.836885 | <-- min LBFGS
 | trial step |    1.000000 |    0.000320 |      -91.836887 | <-- min LBFGS
 +------------+-------------+-------------+-----------------+ <-- min LBFGS
  

--------------------------------------------------------------------------------
 LBFGS: improving iteration         3 with line minimization (lambda=  1.724960)
--------------------------------------------------------------------------------

                           -------------------------------
                                      Unit Cell
                           -------------------------------
        Real Lattice(A)              Reciprocal Lattice(1/A)
     1.6238094     0.0000000     0.0000000        3.869410612  -0.000000000   0.000000000
     0.0000000     2.8039641     0.0000000       -0.000000000   2.240822334   0.000000000
     0.0000000     0.0000000     2.5433154        0.000000000   0.000000000   2.470470336

                       Lattice parameters(A)       Cell Angles
                    a =      1.623809          alpha =   90.000000
                    b =      2.803964          beta  =   90.000000
                    c =      2.543315          gamma =   90.000000

                Current cell volume =            11.579978 A**3

                           -------------------------------
                                     Cell Contents
                           -------------------------------

            xxxxxxxxxxxxxxxxxxxxxxxxxxxxxxxxxxxxxxxxxxxxxxxxxxxxxxxxxxxxxxxxx
            x  Element         Atom        Fractional coordinates of atoms  x
            x                 Number           u          v          w      x
            x---------------------------------------------------------------x
            x  H                 1        -0.000000   0.372878   0.439308   x
            x  H                 2        -0.000000   0.127122   0.939308   x
            x  H                 3         0.000000   0.872878   0.060692   x
            x  H                 4         0.000000   0.627122   0.560692   x
            x  H                 5         0.500000   0.872878   0.439308   x
            x  H                 6         0.500000   0.627122   0.939308   x
            x  H                 7         0.500000   0.372878   0.060692   x
            x  H                 8         0.500000   0.127122   0.560692   x
            xxxxxxxxxxxxxxxxxxxxxxxxxxxxxxxxxxxxxxxxxxxxxxxxxxxxxxxxxxxxxxxxx


------------------------------------------------------------------------ <-- SCF
SCF loop      Energy                           Energy gain       Timer   <-- SCF
                                               per atom          (sec)   <-- SCF
------------------------------------------------------------------------ <-- SCF
Initial  -1.13519847E+002                                         34.77  <-- SCF
      1  -1.13519848E+002                    1.38943747E-007      35.20  <-- SCF
      2  -1.13519848E+002                    3.23626160E-010      35.75  <-- SCF
      3  -1.13519848E+002                   -6.84755892E-011      36.32  <-- SCF
      4  -1.13519848E+002                    1.28606981E-011      36.76  <-- SCF
      5  -1.13519848E+002                    1.23863900E-012      37.21  <-- SCF
      6  -1.13519848E+002                   -1.54074607E-013      37.66  <-- SCF
------------------------------------------------------------------------ <-- SCF
 
Final energy =  -113.5198479826     eV
(energy not corrected for finite basis set)
 

 ******************************** Symmetrised Forces ********************************
 *                                                                                  *
 *                           Cartesian components (eV/A)                            *
 * -------------------------------------------------------------------------------- *
 *                         x                    y                    z              *
 *                                                                                  *
 * H               1     -0.00000              0.00076             -0.00091         *
 * H               2     -0.00000             -0.00076             -0.00091         *
 * H               3      0.00000              0.00076              0.00091         *
 * H               4      0.00000             -0.00076              0.00091         *
 * H               5     -0.00000              0.00076             -0.00091         *
 * H               6     -0.00000             -0.00076             -0.00091         *
 * H               7      0.00000              0.00076              0.00091         *
 * H               8      0.00000             -0.00076              0.00091         *
 *                                                                                  *
 ************************************************************************************

 *********** Symmetrised Stress Tensor ***********
 *                                               *
 *          Cartesian components (GPa)           *
 * --------------------------------------------- *
 *             x             y             z     *
 *                                               *
 *  x   -299.945461     -0.000000      0.000000  *
 *  y     -0.000000   -299.949394      0.000000  *
 *  z      0.000000      0.000000   -299.937290  *
 *                                               *
 *  Pressure:  299.9440                          *
 *                                               *
 *************************************************
  
 +------------+-------------+-------------+-----------------+ <-- min LBFGS
 |    Step    |   lambda    |   F.delta'  |    enthalpy     | <-- min LBFGS
 +------------+-------------+-------------+-----------------+ <-- min LBFGS
 |  previous  |    0.000000 |    0.000762 |      -91.836885 | <-- min LBFGS
 | trial step |    1.000000 |    0.000320 |      -91.836887 | <-- min LBFGS
 |  line step |    1.724960 |  1.073E-008 |      -91.836887 | <-- min LBFGS
 +------------+-------------+-------------+-----------------+ <-- min LBFGS
  
 LBFGS: finished iteration     3 with enthalpy= -9.18368873E+001 eV
  
 +-----------+-----------------+-----------------+------------+-----+ <-- LBFGS
 | Parameter |      value      |    tolerance    |    units   | OK? | <-- LBFGS
 +-----------+-----------------+-----------------+------------+-----+ <-- LBFGS
 |  dE/ion   |   2.509730E-007 |   1.000000E-009 |         eV | No  | <-- LBFGS
 |  |F|max   |   1.186248E-003 |   1.000000E-004 |       eV/A | No  | <-- LBFGS
 |  |dR|max  |   1.124095E-004 |   1.000000E-004 |          A | No  | <-- LBFGS
 |   Smax    |   6.271009E-002 |   1.000000E-004 |        GPa | No  | <-- LBFGS
 +-----------+-----------------+-----------------+------------+-----+ <-- LBFGS
  

================================================================================
 Starting LBFGS iteration          4 ...
================================================================================
  
 +------------+-------------+-------------+-----------------+ <-- min LBFGS
 |    Step    |   lambda    |   F.delta'  |    enthalpy     | <-- min LBFGS
 +------------+-------------+-------------+-----------------+ <-- min LBFGS
 |  previous  |    0.000000 |    0.000332 |      -91.836887 | <-- min LBFGS
 +------------+-------------+-------------+-----------------+ <-- min LBFGS
  

--------------------------------------------------------------------------------
 LBFGS: starting iteration         4 with trial guess (lambda=  1.000000)
--------------------------------------------------------------------------------

                           -------------------------------
                                      Unit Cell
                           -------------------------------
        Real Lattice(A)              Reciprocal Lattice(1/A)
     1.6237977     0.0000000     0.0000000        3.869438390  -0.000000000   0.000000000
     0.0000000     2.8039216     0.0000000       -0.000000000   2.240856237   0.000000000
     0.0000000     0.0000000     2.5433037        0.000000000   0.000000000   2.470481758

                       Lattice parameters(A)       Cell Angles
                    a =      1.623798          alpha =   90.000000
                    b =      2.803922          beta  =   90.000000
                    c =      2.543304          gamma =   90.000000

                Current cell volume =            11.579666 A**3

                           -------------------------------
                                     Cell Contents
                           -------------------------------

            xxxxxxxxxxxxxxxxxxxxxxxxxxxxxxxxxxxxxxxxxxxxxxxxxxxxxxxxxxxxxxxxx
            x  Element         Atom        Fractional coordinates of atoms  x
            x                 Number           u          v          w      x
            x---------------------------------------------------------------x
            x  H                 1         0.000000   0.372893   0.439268   x
            x  H                 2        -0.000000   0.127107   0.939268   x
            x  H                 3         0.000000   0.872893   0.060732   x
            x  H                 4         0.000000   0.627107   0.560732   x
            x  H                 5         0.500000   0.872893   0.439268   x
            x  H                 6         0.500000   0.627107   0.939268   x
            x  H                 7         0.500000   0.372893   0.060732   x
            x  H                 8         0.500000   0.127107   0.560732   x
            xxxxxxxxxxxxxxxxxxxxxxxxxxxxxxxxxxxxxxxxxxxxxxxxxxxxxxxxxxxxxxxxx


------------------------------------------------------------------------ <-- SCF
SCF loop      Energy                           Energy gain       Timer   <-- SCF
                                               per atom          (sec)   <-- SCF
------------------------------------------------------------------------ <-- SCF
Initial  -1.13519261E+002                                         39.02  <-- SCF
      1  -1.13519265E+002                    4.61925844E-007      39.48  <-- SCF
      2  -1.13519265E+002                    1.40369520E-009      40.06  <-- SCF
      3  -1.13519265E+002                    3.08664307E-009      40.64  <-- SCF
      4  -1.13519265E+002                    2.09595845E-010      41.10  <-- SCF
      5  -1.13519265E+002                    1.96369597E-012      41.55  <-- SCF
      6  -1.13519265E+002                    2.96064932E-013      42.00  <-- SCF
------------------------------------------------------------------------ <-- SCF
 
Final energy =  -113.5192648941     eV
(energy not corrected for finite basis set)
 

 ******************************** Symmetrised Forces ********************************
 *                                                                                  *
 *                           Cartesian components (eV/A)                            *
 * -------------------------------------------------------------------------------- *
 *                         x                    y                    z              *
 *                                                                                  *
 * H               1     -0.00000              0.00056             -0.00063         *
 * H               2      0.00000             -0.00056             -0.00063         *
 * H               3      0.00000              0.00056              0.00063         *
 * H               4      0.00000             -0.00056              0.00063         *
 * H               5     -0.00000              0.00056             -0.00063         *
 * H               6     -0.00000             -0.00056             -0.00063         *
 * H               7     -0.00000              0.00056              0.00063         *
 * H               8      0.00000             -0.00056              0.00063         *
 *                                                                                  *
 ************************************************************************************

 *********** Symmetrised Stress Tensor ***********
 *                                               *
 *          Cartesian components (GPa)           *
 * --------------------------------------------- *
 *             x             y             z     *
 *                                               *
 *  x   -299.960799      0.000000      0.000000  *
 *  y      0.000000   -299.976714      0.000000  *
 *  z      0.000000      0.000000   -299.950049  *
 *                                               *
 *  Pressure:  299.9625                          *
 *                                               *
 *************************************************
  
 +------------+-------------+-------------+-----------------+ <-- min LBFGS
 |    Step    |   lambda    |   F.delta'  |    enthalpy     | <-- min LBFGS
 +------------+-------------+-------------+-----------------+ <-- min LBFGS
 |  previous  |    0.000000 |    0.000332 |      -91.836887 | <-- min LBFGS
 | trial step |    1.000000 |    0.000230 |      -91.836888 | <-- min LBFGS
 +------------+-------------+-------------+-----------------+ <-- min LBFGS
  

--------------------------------------------------------------------------------
 LBFGS: improving iteration         4 with line minimization (lambda=  3.261321)
--------------------------------------------------------------------------------

                           -------------------------------
                                      Unit Cell
                           -------------------------------
        Real Lattice(A)              Reciprocal Lattice(1/A)
     1.6237714     0.0000000     0.0000000        3.869501206  -0.000000000   0.000000000
     0.0000000     2.8038257     0.0000000       -0.000000000   2.240932905   0.000000000
     0.0000000     0.0000000     2.5432771        0.000000000   0.000000000   2.470507588

                       Lattice parameters(A)       Cell Angles
                    a =      1.623771          alpha =   90.000000
                    b =      2.803826          beta  =   90.000000
                    c =      2.543277          gamma =   90.000000

                Current cell volume =            11.578961 A**3

                           -------------------------------
                                     Cell Contents
                           -------------------------------

            xxxxxxxxxxxxxxxxxxxxxxxxxxxxxxxxxxxxxxxxxxxxxxxxxxxxxxxxxxxxxxxxx
            x  Element         Atom        Fractional coordinates of atoms  x
            x                 Number           u          v          w      x
            x---------------------------------------------------------------x
            x  H                 1         0.000000   0.372927   0.439178   x
            x  H                 2         0.000000   0.127073   0.939178   x
            x  H                 3        -0.000000   0.872927   0.060822   x
            x  H                 4        -0.000000   0.627073   0.560822   x
            x  H                 5         0.500000   0.872927   0.439178   x
            x  H                 6         0.500000   0.627073   0.939178   x
            x  H                 7         0.500000   0.372927   0.060822   x
            x  H                 8         0.500000   0.127073   0.560822   x
            xxxxxxxxxxxxxxxxxxxxxxxxxxxxxxxxxxxxxxxxxxxxxxxxxxxxxxxxxxxxxxxxx


------------------------------------------------------------------------ <-- SCF
SCF loop      Energy                           Energy gain       Timer   <-- SCF
                                               per atom          (sec)   <-- SCF
------------------------------------------------------------------------ <-- SCF
Initial  -1.13517926E+002                                         43.36  <-- SCF
      1  -1.13517945E+002                    2.36248397E-006      43.88  <-- SCF
      2  -1.13517945E+002                    7.17788883E-009      44.45  <-- SCF
      3  -1.13517945E+002                    1.57711735E-008      45.03  <-- SCF
      4  -1.13517945E+002                    1.07230791E-009      45.63  <-- SCF
      5  -1.13517945E+002                    9.48918316E-012      46.09  <-- SCF
      6  -1.13517945E+002                    6.88804126E-013      46.54  <-- SCF
      7  -1.13517945E+002                   -2.05432810E-013      46.99  <-- SCF
------------------------------------------------------------------------ <-- SCF
 
Final energy =  -113.5179452779     eV
(energy not corrected for finite basis set)
 

 ******************************** Symmetrised Forces ********************************
 *                                                                                  *
 *                           Cartesian components (eV/A)                            *
 * -------------------------------------------------------------------------------- *
 *                         x                    y                    z              *
 *                                                                                  *
 * H               1     -0.00000              0.00013              0.00001         *
 * H               2     -0.00000             -0.00013              0.00001         *
 * H               3      0.00000              0.00013             -0.00001         *
 * H               4      0.00000             -0.00013             -0.00001         *
 * H               5      0.00000              0.00013              0.00001         *
 * H               6      0.00000             -0.00013              0.00001         *
 * H               7     -0.00000              0.00013             -0.00001         *
 * H               8     -0.00000             -0.00013             -0.00001         *
 *                                                                                  *
 ************************************************************************************

 *********** Symmetrised Stress Tensor ***********
 *                                               *
 *          Cartesian components (GPa)           *
 * --------------------------------------------- *
 *             x             y             z     *
 *                                               *
 *  x   -299.995579      0.000000      0.000000  *
 *  y      0.000000   -300.038320      0.000000  *
 *  z      0.000000      0.000000   -299.978858  *
 *                                               *
 *  Pressure:  300.0043                          *
 *                                               *
 *************************************************
  
 +------------+-------------+-------------+-----------------+ <-- min LBFGS
 |    Step    |   lambda    |   F.delta'  |    enthalpy     | <-- min LBFGS
 +------------+-------------+-------------+-----------------+ <-- min LBFGS
 |  previous  |    0.000000 |    0.000332 |      -91.836887 | <-- min LBFGS
 | trial step |    1.000000 |    0.000230 |      -91.836888 | <-- min LBFGS
 |  line step |    3.261321 | -1.276E-007 |      -91.836889 | <-- min LBFGS
 +------------+-------------+-------------+-----------------+ <-- min LBFGS
  
 LBFGS: finished iteration     4 with enthalpy= -9.18368891E+001 eV
  
 +-----------+-----------------+-----------------+------------+-----+ <-- LBFGS
 | Parameter |      value      |    tolerance    |    units   | OK? | <-- LBFGS
 +-----------+-----------------+-----------------+------------+-----+ <-- LBFGS
 |  dE/ion   |   2.205254E-007 |   1.000000E-009 |         eV | No  | <-- LBFGS
 |  |F|max   |   1.297137E-004 |   1.000000E-004 |       eV/A | No  | <-- LBFGS
 |  |dR|max  |   3.589988E-004 |   1.000000E-004 |          A | No  | <-- LBFGS
 |   Smax    |   3.832003E-002 |   1.000000E-004 |        GPa | No  | <-- LBFGS
 +-----------+-----------------+-----------------+------------+-----+ <-- LBFGS
  

================================================================================
 Starting LBFGS iteration          5 ...
================================================================================
  
 +------------+-------------+-------------+-----------------+ <-- min LBFGS
 |    Step    |   lambda    |   F.delta'  |    enthalpy     | <-- min LBFGS
 +------------+-------------+-------------+-----------------+ <-- min LBFGS
 |  previous  |    0.000000 |    0.000120 |      -91.836889 | <-- min LBFGS
 +------------+-------------+-------------+-----------------+ <-- min LBFGS
  

--------------------------------------------------------------------------------
 LBFGS: starting iteration         5 with trial guess (lambda=  1.000000)
--------------------------------------------------------------------------------

                           -------------------------------
                                      Unit Cell
                           -------------------------------
        Real Lattice(A)              Reciprocal Lattice(1/A)
     1.6237649     0.0000000     0.0000000        3.869516680  -0.000000000   0.000000000
     0.0000000     2.8038923     0.0000000       -0.000000000   2.240879666   0.000000000
     0.0000000     0.0000000     2.5432372        0.000000000   0.000000000   2.470546341

                       Lattice parameters(A)       Cell Angles
                    a =      1.623765          alpha =   90.000000
                    b =      2.803892          beta  =   90.000000
                    c =      2.543237          gamma =   90.000000

                Current cell volume =            11.579008 A**3

                           -------------------------------
                                     Cell Contents
                           -------------------------------

            xxxxxxxxxxxxxxxxxxxxxxxxxxxxxxxxxxxxxxxxxxxxxxxxxxxxxxxxxxxxxxxxx
            x  Element         Atom        Fractional coordinates of atoms  x
            x                 Number           u          v          w      x
            x---------------------------------------------------------------x
            x  H                 1         0.000000   0.372931   0.439176   x
            x  H                 2        -0.000000   0.127069   0.939176   x
            x  H                 3        -0.000000   0.872931   0.060824   x
            x  H                 4         0.000000   0.627069   0.560824   x
            x  H                 5         0.500000   0.872931   0.439176   x
            x  H                 6         0.500000   0.627069   0.939176   x
            x  H                 7         0.500000   0.372931   0.060824   x
            x  H                 8         0.500000   0.127069   0.560824   x
            xxxxxxxxxxxxxxxxxxxxxxxxxxxxxxxxxxxxxxxxxxxxxxxxxxxxxxxxxxxxxxxxx


------------------------------------------------------------------------ <-- SCF
SCF loop      Energy                           Energy gain       Timer   <-- SCF
                                               per atom          (sec)   <-- SCF
------------------------------------------------------------------------ <-- SCF
Initial  -1.13518033E+002                                         48.36  <-- SCF
      1  -1.13518034E+002                    2.33187477E-008      48.79  <-- SCF
      2  -1.13518034E+002                    7.25238239E-011      49.32  <-- SCF
      3  -1.13518034E+002                   -6.87142537E-011      49.78  <-- SCF
      4  -1.13518034E+002                   -1.03622726E-012      50.23  <-- SCF
      5  -1.13518034E+002                    3.08149214E-013      50.68  <-- SCF
------------------------------------------------------------------------ <-- SCF
 
Final energy =  -113.5180336797     eV
(energy not corrected for finite basis set)
 

 ******************************** Symmetrised Forces ********************************
 *                                                                                  *
 *                           Cartesian components (eV/A)                            *
 * -------------------------------------------------------------------------------- *
 *                         x                    y                    z              *
 *                                                                                  *
 * H               1      0.00000              0.00003              0.00000         *
 * H               2      0.00000             -0.00003              0.00000         *
 * H               3     -0.00000              0.00003             -0.00000         *
 * H               4     -0.00000             -0.00003             -0.00000         *
 * H               5      0.00000              0.00003              0.00000         *
 * H               6     -0.00000             -0.00003              0.00000         *
 * H               7     -0.00000              0.00003             -0.00000         *
 * H               8     -0.00000             -0.00003             -0.00000         *
 *                                                                                  *
 ************************************************************************************

 *********** Symmetrised Stress Tensor ***********
 *                                               *
 *          Cartesian components (GPa)           *
 * --------------------------------------------- *
 *             x             y             z     *
 *                                               *
 *  x   -299.997907      0.000000      0.000000  *
 *  y      0.000000   -300.009394      0.000000  *
 *  z      0.000000      0.000000   -299.995808  *
 *                                               *
 *  Pressure:  300.0010                          *
 *                                               *
 *************************************************
  
 +------------+-------------+-------------+-----------------+ <-- min LBFGS
 |    Step    |   lambda    |   F.delta'  |    enthalpy     | <-- min LBFGS
 +------------+-------------+-------------+-----------------+ <-- min LBFGS
 |  previous  |    0.000000 |    0.000120 |      -91.836889 | <-- min LBFGS
 | trial step |    1.000000 |    0.000028 |      -91.836889 | <-- min LBFGS
 +------------+-------------+-------------+-----------------+ <-- min LBFGS
  
 LBFGS: finished iteration     5 with enthalpy= -9.18368892E+001 eV
  
 +-----------+-----------------+-----------------+------------+-----+ <-- LBFGS
 | Parameter |      value      |    tolerance    |    units   | OK? | <-- LBFGS
 +-----------+-----------------+-----------------+------------+-----+ <-- LBFGS
 |  dE/ion   |   1.179800E-008 |   1.000000E-009 |         eV | No  | <-- LBFGS
 |  |F|max   |   3.273079E-005 |   1.000000E-004 |       eV/A | Yes | <-- LBFGS
 |  |dR|max  |   1.200612E-005 |   1.000000E-004 |          A | Yes | <-- LBFGS
 |   Smax    |   9.394248E-003 |   1.000000E-004 |        GPa | No  | <-- LBFGS
 +-----------+-----------------+-----------------+------------+-----+ <-- LBFGS
  

================================================================================
 Starting LBFGS iteration          6 ...
================================================================================
  
 +------------+-------------+-------------+-----------------+ <-- min LBFGS
 |    Step    |   lambda    |   F.delta'  |    enthalpy     | <-- min LBFGS
 +------------+-------------+-------------+-----------------+ <-- min LBFGS
 |  previous  |    0.000000 |    0.000029 |      -91.836889 | <-- min LBFGS
 +------------+-------------+-------------+-----------------+ <-- min LBFGS
  

--------------------------------------------------------------------------------
 LBFGS: starting iteration         6 with trial guess (lambda=  1.000000)
--------------------------------------------------------------------------------

                           -------------------------------
                                      Unit Cell
                           -------------------------------
        Real Lattice(A)              Reciprocal Lattice(1/A)
     1.6237614     0.0000000     0.0000000        3.869525074  -0.000000000   0.000000000
     0.0000000     2.8039139     0.0000000       -0.000000000   2.240862457   0.000000000
     0.0000000     0.0000000     2.5432265        0.000000000   0.000000000   2.470556685

                       Lattice parameters(A)       Cell Angles
                    a =      1.623761          alpha =   90.000000
                    b =      2.803914          beta  =   90.000000
                    c =      2.543227          gamma =   90.000000

                Current cell volume =            11.579023 A**3

                           -------------------------------
                                     Cell Contents
                           -------------------------------

            xxxxxxxxxxxxxxxxxxxxxxxxxxxxxxxxxxxxxxxxxxxxxxxxxxxxxxxxxxxxxxxxx
            x  Element         Atom        Fractional coordinates of atoms  x
            x                 Number           u          v          w      x
            x---------------------------------------------------------------x
            x  H                 1         0.000000   0.372933   0.439175   x
            x  H                 2        -0.000000   0.127067   0.939175   x
            x  H                 3        -0.000000   0.872933   0.060825   x
            x  H                 4         0.000000   0.627067   0.560825   x
            x  H                 5         0.500000   0.872933   0.439175   x
[...]
                                               per atom          (sec)   <-- SCF
------------------------------------------------------------------------ <-- SCF
Initial  -1.24759352E+002                                        264.94  <-- SCF
      1  -1.24759357E+002                    5.74241717E-007     266.37  <-- SCF
      2  -1.24759357E+002                    4.48680362E-010     268.21  <-- SCF
      3  -1.24759357E+002                    1.71083658E-008     269.95  <-- SCF
      4  -1.24759357E+002                    1.78145895E-009     271.80  <-- SCF
      5  -1.24759357E+002                    2.19359946E-011     273.12  <-- SCF
      6  -1.24759357E+002                    2.23861341E-012     274.55  <-- SCF
      7  -1.24759357E+002                   -8.15689097E-014     275.97  <-- SCF
------------------------------------------------------------------------ <-- SCF
 
Final energy =  -124.7593569930     eV
(energy not corrected for finite basis set)
 

 ******************************** Symmetrised Forces ********************************
 *                                                                                  *
 *                           Cartesian components (eV/A)                            *
 * -------------------------------------------------------------------------------- *
 *                         x                    y                    z              *
 *                                                                                  *
 * H               1     -0.00000             -0.00001             -0.00001         *
 * H               2     -0.00000              0.00001             -0.00001         *
 * H               3      0.00000             -0.00001              0.00001         *
 * H               4      0.00000              0.00001              0.00001         *
 * H               5     -0.00000             -0.00001             -0.00001         *
 * H               6      0.00000              0.00001             -0.00001         *
 * H               7      0.00000             -0.00001              0.00001         *
 * H               8      0.00000              0.00001              0.00001         *
 *                                                                                  *
 ************************************************************************************

 *********** Symmetrised Stress Tensor ***********
 *                                               *
 *          Cartesian components (GPa)           *
 * --------------------------------------------- *
 *             x             y             z     *
 *                                               *
 *  x    -29.999936     -0.000000      0.000000  *
 *  y     -0.000000    -30.000052      0.000000  *
 *  z      0.000000      0.000000    -29.999919  *
 *                                               *
 *  Pressure:   30.0000                          *
 *                                               *
 *************************************************
  
 +------------+-------------+-------------+-----------------+ <-- min LBFGS
 |    Step    |   lambda    |   F.delta'  |    enthalpy     | <-- min LBFGS
 +------------+-------------+-------------+-----------------+ <-- min LBFGS
 |  previous  |    0.000000 |    0.000032 |     -119.333792 | <-- min LBFGS
 | trial step |    1.000000 |    0.000025 |     -119.333792 | <-- min LBFGS
 |  line step |    4.304587 | -8.007E-008 |     -119.333792 | <-- min LBFGS
 +------------+-------------+-------------+-----------------+ <-- min LBFGS
  
 LBFGS: finished iteration     9 with enthalpy= -1.19333792E+002 eV
  
 +-----------+-----------------+-----------------+------------+-----+ <-- LBFGS
 | Parameter |      value      |    tolerance    |    units   | OK? | <-- LBFGS
 +-----------+-----------------+-----------------+------------+-----+ <-- LBFGS
 |  dE/ion   |   7.419789E-009 |   1.000000E-009 |         eV | No  | <-- LBFGS
 |  |F|max   |   1.099605E-005 |   1.000000E-004 |       eV/A | Yes | <-- LBFGS
 |  |dR|max  |   1.601207E-004 |   1.000000E-004 |          A | No  | <-- LBFGS
 |   Smax    |   8.116944E-005 |   1.000000E-004 |        GPa | Yes | <-- LBFGS
 +-----------+-----------------+-----------------+------------+-----+ <-- LBFGS
  

================================================================================
 Starting LBFGS iteration         10 ...
================================================================================
  
 +------------+-------------+-------------+-----------------+ <-- min LBFGS
 |    Step    |   lambda    |   F.delta'  |    enthalpy     | <-- min LBFGS
 +------------+-------------+-------------+-----------------+ <-- min LBFGS
 |  previous  |    0.000000 |  9.284E-007 |     -119.333792 | <-- min LBFGS
 +------------+-------------+-------------+-----------------+ <-- min LBFGS
  

--------------------------------------------------------------------------------
 LBFGS: starting iteration        10 with trial guess (lambda=  1.000000)
--------------------------------------------------------------------------------

                           -------------------------------
                                      Unit Cell
                           -------------------------------
        Real Lattice(A)              Reciprocal Lattice(1/A)
     3.0905401     0.0000000     0.0000000        2.033037957  -0.000000000   0.000000000
     0.0000000     3.0505194     0.0000000       -0.000000000   2.059710026   0.000000000
     0.0000000     0.0000000     3.0734456        0.000000000   0.000000000   2.044345717

                       Lattice parameters(A)       Cell Angles
                    a =      3.090540          alpha =   90.000000
                    b =      3.050519          beta  =   90.000000
                    c =      3.073446          gamma =   90.000000

                Current cell volume =            28.975684 A**3

                           -------------------------------
                                     Cell Contents
                           -------------------------------

            xxxxxxxxxxxxxxxxxxxxxxxxxxxxxxxxxxxxxxxxxxxxxxxxxxxxxxxxxxxxxxxxx
            x  Element         Atom        Fractional coordinates of atoms  x
            x                 Number           u          v          w      x
            x---------------------------------------------------------------x
            x  H                 1        -0.000000   0.412619   0.416675   x
            x  H                 2         0.000000   0.087381   0.916675   x
            x  H                 3         0.000000   0.912619   0.083325   x
            x  H                 4        -0.000000   0.587381   0.583325   x
            x  H                 5         0.500000   0.912619   0.416675   x
            x  H                 6         0.500000   0.587381   0.916675   x
            x  H                 7         0.500000   0.412619   0.083325   x
            x  H                 8         0.500000   0.087381   0.583325   x
            xxxxxxxxxxxxxxxxxxxxxxxxxxxxxxxxxxxxxxxxxxxxxxxxxxxxxxxxxxxxxxxxx


------------------------------------------------------------------------ <-- SCF
SCF loop      Energy                           Energy gain       Timer   <-- SCF
                                               per atom          (sec)   <-- SCF
------------------------------------------------------------------------ <-- SCF
Initial  -1.24759352E+002                                        279.76  <-- SCF
      1  -1.24759352E+002                    2.98554294E-010     281.12  <-- SCF
      2  -1.24759352E+002                    2.53769941E-013     282.50  <-- SCF
      3  -1.24759352E+002                    7.73092000E-012     283.88  <-- SCF
      4  -1.24759352E+002                    8.18710168E-013     285.27  <-- SCF
------------------------------------------------------------------------ <-- SCF
 
Final energy =  -124.7593516531     eV
(energy not corrected for finite basis set)
 

 ******************************** Symmetrised Forces ********************************
 *                                                                                  *
 *                           Cartesian components (eV/A)                            *
 * -------------------------------------------------------------------------------- *
 *                         x                    y                    z              *
 *                                                                                  *
 * H               1      0.00000             -0.00000              0.00000         *
 * H               2      0.00000              0.00000              0.00000         *
 * H               3      0.00000             -0.00000             -0.00000         *
 * H               4      0.00000              0.00000             -0.00000         *
 * H               5      0.00000             -0.00000              0.00000         *
 * H               6      0.00000              0.00000              0.00000         *
 * H               7      0.00000             -0.00000             -0.00000         *
 * H               8      0.00000              0.00000             -0.00000         *
 *                                                                                  *
 ************************************************************************************

 *********** Symmetrised Stress Tensor ***********
 *                                               *
 *          Cartesian components (GPa)           *
 * --------------------------------------------- *
 *             x             y             z     *
 *                                               *
 *  x    -29.999965     -0.000000      0.000000  *
 *  y     -0.000000    -30.000075      0.000000  *
 *  z      0.000000      0.000000    -29.999964  *
 *                                               *
 *  Pressure:   30.0000                          *
 *                                               *
 *************************************************
  
 +------------+-------------+-------------+-----------------+ <-- min LBFGS
 |    Step    |   lambda    |   F.delta'  |    enthalpy     | <-- min LBFGS
 +------------+-------------+-------------+-----------------+ <-- min LBFGS
 |  previous  |    0.000000 |  9.284E-007 |     -119.333792 | <-- min LBFGS
 | trial step |    1.000000 |  1.996E-008 |     -119.333792 | <-- min LBFGS
 +------------+-------------+-------------+-----------------+ <-- min LBFGS
  
 LBFGS: finished iteration    10 with enthalpy= -1.19333792E+002 eV
  
 +-----------+-----------------+-----------------+------------+-----+ <-- LBFGS
 | Parameter |      value      |    tolerance    |    units   | OK? | <-- LBFGS
 +-----------+-----------------+-----------------+------------+-----+ <-- LBFGS
 |  dE/ion   |   5.380527E-012 |   1.000000E-009 |         eV | Yes | <-- LBFGS
 |  |F|max   |   6.645484E-007 |   1.000000E-004 |       eV/A | Yes | <-- LBFGS
 |  |dR|max  |   3.037778E-006 |   1.000000E-004 |          A | Yes | <-- LBFGS
 |   Smax    |   7.452785E-005 |   1.000000E-004 |        GPa | Yes | <-- LBFGS
 +-----------+-----------------+-----------------+------------+-----+ <-- LBFGS
  
 LBFGS: Geometry optimization completed successfully.

================================================================================
 LBFGS: Final Configuration:
================================================================================

                           -------------------------------
                                      Unit Cell
                           -------------------------------
        Real Lattice(A)              Reciprocal Lattice(1/A)
     3.0905401     0.0000000     0.0000000        2.033037957  -0.000000000   0.000000000
     0.0000000     3.0505194     0.0000000       -0.000000000   2.059710026   0.000000000
     0.0000000     0.0000000     3.0734456        0.000000000   0.000000000   2.044345717

                       Lattice parameters(A)       Cell Angles
                    a =      3.090540          alpha =   90.000000
                    b =      3.050519          beta  =   90.000000
                    c =      3.073446          gamma =   90.000000

                Current cell volume =            28.975684 A**3

                           -------------------------------
                                     Cell Contents
                           -------------------------------

            xxxxxxxxxxxxxxxxxxxxxxxxxxxxxxxxxxxxxxxxxxxxxxxxxxxxxxxxxxxxxxxxx
            x  Element         Atom        Fractional coordinates of atoms  x
            x                 Number           u          v          w      x
            x---------------------------------------------------------------x
            x  H                 1        -0.000000   0.412619   0.416675   x
            x  H                 2         0.000000   0.087381   0.916675   x
            x  H                 3         0.000000   0.912619   0.083325   x
            x  H                 4        -0.000000   0.587381   0.583325   x
            x  H                 5         0.500000   0.912619   0.416675   x
            x  H                 6         0.500000   0.587381   0.916675   x
            x  H                 7         0.500000   0.412619   0.083325   x
            x  H                 8         0.500000   0.087381   0.583325   x
            xxxxxxxxxxxxxxxxxxxxxxxxxxxxxxxxxxxxxxxxxxxxxxxxxxxxxxxxxxxxxxxxx


 LBFGS: Final Enthalpy     = -1.19333792E+002 eV
 LBFGS: Final <frequency>  =     591.97599 cm-1
 LBFGS: Final bulk modulus =      87.31302 GPa

 ******************************** Symmetrised Forces ********************************
 *                                                                                  *
 *                           Cartesian components (eV/A)                            *
 * -------------------------------------------------------------------------------- *
 *                         x                    y                    z              *
 *                                                                                  *
 * H               1      0.00000             -0.00000              0.00000         *
 * H               2      0.00000              0.00000              0.00000         *
 * H               3      0.00000             -0.00000             -0.00000         *
 * H               4      0.00000              0.00000             -0.00000         *
 * H               5      0.00000             -0.00000              0.00000         *
 * H               6      0.00000              0.00000              0.00000         *
 * H               7      0.00000             -0.00000             -0.00000         *
 * H               8      0.00000              0.00000             -0.00000         *
 *                                                                                  *
 ************************************************************************************

 *********** Symmetrised Stress Tensor ***********
 *                                               *
 *          Cartesian components (GPa)           *
 * --------------------------------------------- *
 *             x             y             z     *
 *                                               *
 *  x    -29.999965     -0.000000      0.000000  *
 *  y     -0.000000    -30.000075      0.000000  *
 *  z      0.000000      0.000000    -29.999964  *
 *                                               *
 *  Pressure:   30.0000                          *
 *                                               *
 *************************************************

 Pseudo atomic calculation performed for H 1s1

 Converged in 24 iterations to a total energy of -12.4866 eV

Charge spilling parameter for spin component 1 = 0.76%

            Orbital Populations       
     Ion    Atom   Orbital             Charge
  -------------------------------------------
      H     1      S                    1.000
      H     2      S                    1.000
      H     3      S                    1.000
      H     4      S                    1.000
      H     5      S                    1.000
      H     6      S                    1.000
      H     7      S                    1.000
      H     8      S                    1.000
  -------------------------------------------
                           Total:       8.000
  -------------------------------------------

     Atomic Populations (Mulliken)
     -----------------------------
Species          Ion     s      p      d      f     Total  Charge (e)
=====================================================================
  H               1     1.00   0.00   0.00   0.00   1.00     0.00
  H               2     1.00   0.00   0.00   0.00   1.00     0.00
  H               3     1.00   0.00   0.00   0.00   1.00     0.00
  H               4     1.00   0.00   0.00   0.00   1.00     0.00
  H               5     1.00   0.00   0.00   0.00   1.00     0.00
  H               6     1.00   0.00   0.00   0.00   1.00     0.00
  H               7     1.00   0.00   0.00   0.00   1.00     0.00
  H               8     1.00   0.00   0.00   0.00   1.00     0.00
=====================================================================

                 Bond                   Population      Length (A)
======================================================================
               H 5 -- H 8                    1.32        0.73929
               H 2 -- H 3                    1.32        0.73929
               H 1 -- H 4                    1.32        0.73929
               H 6 -- H 7                    1.32        0.73929
               H 5 -- H 6                   -0.19        1.82917
               H 3 -- H 4                   -0.19        1.82917
               H 7 -- H 8                   -0.19        1.82917
               H 1 -- H 2                   -0.19        1.82917
               H 6 -- H 8                   -0.20        1.83741
               H 2 -- H 4                   -0.20        1.83741
               H 5 -- H 7                   -0.20        1.83741
               H 1 -- H 3                   -0.20        1.83741
               H 4 -- H 6                   -0.16        1.85406
               H 2 -- H 8                   -0.16        1.85406
               H 3 -- H 5                   -0.16        1.85406
               H 1 -- H 7                   -0.16        1.85406
               H 4 -- H 5                   -0.16        1.90645
               H 3 -- H 6                   -0.16        1.90645
               H 2 -- H 7                   -0.16        1.90645
               H 1 -- H 8                   -0.16        1.90645
               H 4 -- H 8                   -0.18        2.17124
               H 2 -- H 6                   -0.18        2.17124
               H 3 -- H 7                   -0.18        2.17124
               H 1 -- H 5                   -0.18        2.17124
               H 3 -- H 8                   -0.17        2.24357
               H 2 -- H 5                   -0.17        2.24357
               H 4 -- H 7                   -0.17        2.24357
               H 1 -- H 6                   -0.17        2.24357
======================================================================


Writing analysis data to Cmca4.castep_bin

Writing model to Cmca4.check
 
 A BibTeX formatted list of references used in this run has been written to 
 Cmca4.bib
 
Initialisation time =      3.67 s
Calculation time    =    286.59 s
Finalisation time   =      0.86 s
Total time          =    291.12 s
Peak Memory Use     = 484868 kB
  
Overall parallel efficiency rating: Excellent (93%)                             
  
Data was distributed by:-
k-point (16-way); efficiency rating: Excellent (93%)                            
  
Parallel notes:
1) Calculation only took 290.3 s, so efficiency estimates may be inaccurate.    
