 +-------------------------------------------------+
 |                                                 |
 |      CCC   AA    SSS  TTTTT  EEEEE  PPPP        |
 |     C     A  A  S       T    E      P   P       |
 |     C     AAAA   SS     T    EEE    PPPP        |
 |     C     A  A     S    T    E      P           |
 |      CCC  A  A  SSS     T    EEEEE  P           |
 |                                                 |
 +-------------------------------------------------+
 |                                                 |
 | Welcome to Academic Release CASTEP version 18.1 |          
 | Ab Initio Total Energy Program                  |
 |                                                 |
 | Authors:                                        |
 | M. Segall, M. Probert, C. Pickard, P. Hasnip,   |
 | S. Clark, K. Refson, J. R. Yates, M. Payne      |
 |                                                 |
 | Contributors:                                   |
 | P. Lindan, P. Haynes, J. White, V. Milman,      |
 | N. Govind, M. Gibson, P. Tulip, V. Cocula,      |
 | B. Montanari, D. Quigley, M. Glover,            |
 | L. Bernasconi, A. Perlov, M. Plummer,           |
 | E. McNellis, J. Meyer, J. Gale, D. Jochym       |
 | J. Aarons, B. Walker, R. Gillen, D. Jones       |
 | T. Green, I. J. Bush, C. J. Armstrong,          |
 | E. J. Higgins, E. L. Brown, M. S. McFly,        |
 | J. Wilkins, B-C. Shih, P. J. P. Byrne           |
 |                                                 |
 | Copyright (c) 2000 - 2017                       |
 |                                                 |
 |     Distributed under the terms of an           |
 |     Agreement between the United Kingdom        |
 |     Car-Parrinello (UKCP) Consortium,           |
 |     Daresbury Laboratory and Accelrys, Inc.     |
 |                                                 |
 | Please cite                                     |
 |                                                 |
 |     "First principles methods using CASTEP"     |
 |                                                 |
 |         Zeitschrift fuer Kristallographie       |
 |           220(5-6) pp. 567-570 (2005)           |
 |                                                 |
 | S. J. Clark, M. D. Segall, C. J. Pickard,       |
 | P. J. Hasnip, M. J. Probert, K. Refson,         |
 | M. C. Payne                                     |
 |                                                 |
 |       in all publications arising from          |
 |              your use of CASTEP                 |
 |                                                 |
 +-------------------------------------------------+


 Compiled for linux_x86_64_gfortran4.8 on Thu, 19 Jul 2018 15:42:32 +0100
 from code version 70483bd0ad64+  Sun, 10 Dec 2017 12:18:29 +0000
 Compiler: GNU Fortran 4.8.5; Optimisation: fast
 MATHLIBS: Intel MKL(2018.0.0) (LAPACK version 3.7.0)
 FFT Lib : mkl
 Fundamental constants values: CODATA 2014

 Run started: Sat, 25 Jul 2020 22:33:45 +0100

 Atomic calculation performed for H: 1s1

 Converged in 41 iterations to an ae energy of -12.488 eV

   ============================================================                
   | Pseudopotential Report - Date of generation 25-07-2020   |                
   ------------------------------------------------------------                
   | Element: H Ionic charge:  1.00 Level of theory: PBE      |                
   | Atomic Solver: Koelling-Harmon                           |                
   |                                                          |                
   |               Reference Electronic Structure             |                
   |         Orbital         Occupation         Energy        |                
   |            1s              1.000           -0.239        |                
   |                                                          |                
   |                 Pseudopotential Definition               |                
   |        Beta     l      e      Rc     scheme   norm       |                
   |         loc     0   -0.239   0.702     qc      1         |                
   |                                                          |                
   | No charge augmentation                                   |                
   | No partial core correction                               |                
   ------------------------------------------------------------                
   | "0|0.7|2|6|8|10L(qc=10)"                                 |                
   ------------------------------------------------------------                
   |      Author: Chris J. Pickard, Cambridge University      |                
   ============================================================                

 Pseudo atomic calculation performed for H 1s1

 Converged in 24 iterations to a total energy of -12.4843 eV

 Calculation parallelised over 16 processes.
 Data is distributed by k-point(16-way)

 ************************************ Title ************************************
 

 ***************************** General Parameters ******************************
  
 output verbosity                               : normal  (1)
 write checkpoint data to                       : P21c.check
 type of calculation                            : geometry optimization
 stress calculation                             : on
 density difference calculation                 : off
 electron localisation func (ELF) calculation   : off
 Hirshfeld analysis                             : off
 unlimited duration calculation
 timing information                             : on
 memory usage estimate                          : on
 write extra output files                       : on
 write final potential to formatted file        : off
 write final density to formatted file          : off
 write structure in CELL formatted file         : on
 write BibTeX reference list                    : on
 write OTFG pseudopotential files               : on
 write electrostatic potential file             : on
 write bands file                               : on
 checkpoint writing                             : both castep_bin and check files
  
 output         length unit                     : A
 output           mass unit                     : amu
 output           time unit                     : ps
 output         charge unit                     : e
 output           spin unit                     : hbar/2
 output         energy unit                     : eV
 output          force unit                     : eV/A
 output       velocity unit                     : A/ps
 output       pressure unit                     : GPa
 output     inv_length unit                     : 1/A
 output      frequency unit                     : cm-1
 output force constant unit                     : eV/A**2
 output         volume unit                     : A**3
 output   IR intensity unit                     : (D/A)**2/amu
 output         dipole unit                     : D
 output         efield unit                     : eV/A/e
 output        entropy unit                     : J/mol/K
  
 wavefunctions paging                           : none
 random number generator seed                   : randomised (223345409)
 data distribution                              : optimal for this architecture
 optimization strategy                          : minimize memory(---)

 *********************** Exchange-Correlation Parameters ***********************
  
 using functional                               : Perdew Burke Ernzerhof
 relativistic treatment                         : Koelling-Harmon
 DFT+D: Semi-empirical dispersion correction    : off

 ************************* Pseudopotential Parameters **************************
  
 pseudopotential representation                 : reciprocal space
 <beta|phi> representation                      : reciprocal space
 spin-orbit coupling                            : off

 **************************** Basis Set Parameters *****************************
  
 plane wave basis set cut-off                   :  1200.0000   eV
 size of standard grid                          :     2.0000
 size of   fine   gmax                          :    35.4943   1/A
 finite basis set correction                    : automatic
 number of sample energies                      :          3
           sample  spacing                      :     5.0000   eV

 **************************** Electronic Parameters ****************************
  
 number of  electrons                           :  24.00    
 net charge of system                           :  0.000    
 treating system as non-spin-polarized
 number of bands                                :         12

 ********************* Electronic Minimization Parameters **********************
  
 Method: Treating system as non-metallic,
         and number of  SD  steps               :          1
         and number of  CG  steps               :          4
  
 total energy / atom convergence tol.           : 0.1000E-10   eV
 eigen-energy convergence tolerance             : 0.2000E-10   eV
 max force / atom convergence tol.              : ignored
 convergence tolerance window                   :          3   cycles
 max. number of SCF cycles                      :        100
 periodic dipole correction                     : NONE

 ************************** Density Mixing Parameters **************************
  
 density-mixing scheme                          : Broyden
 max. length of mixing history                  :         20
 charge density mixing amplitude                : 0.8000    
 cut-off energy for mixing                      :  1200.       eV

 *********************** Population Analysis Parameters ************************
  
 Population analysis with cutoff                :  3.000       A
 Population analysis output                     : summary and pdos components

 ********************** Geometry Optimization Parameters ***********************
  
 optimization method                            : LBFGS
 max. no. of LBFGS updates                      : unbounded
 variable cell method                           : fixed basis quality
 max. number of steps                           :         60
 estimated bulk modulus                         :  500.0       GPa
 estimated <frequency>                          :  1668.       cm-1
 geom line minimiser                            : on
 with line minimiser tolerance                  :     0.4000
 total energy convergence tolerance             : 0.1000E-08   eV/atom
        max ionic |force| tolerance             : 0.1000E-03   eV/A
 max ionic |displacement| tolerance             : 0.1000E-03   A
   max |stress component| tolerance             : 0.1000E-03   GPa
 convergence tolerance window                   :          2   steps
 backup results every                           :      14400   seconds
 write geom trajectory file                     : on

 *******************************************************************************
  

                           -------------------------------
                                      Unit Cell
                           -------------------------------
        Real Lattice(A)                      Reciprocal Lattice(1/A)
     9.8527061     0.0000000     0.0013851        0.637545775   0.000000000   1.179802221
     0.0000000     2.0591219     0.0000000        0.000000000   3.051390699   0.000000000
    -6.5700168     0.0000000     3.5503293       -0.000248725   0.000000000   1.769286900

                       Lattice parameters(A)       Cell Angles
                    a =      9.852706          alpha =   90.000000
                    b =      2.059122          beta  =  151.605885
                    c =      7.467929          gamma =   90.000000

                       Current cell volume =            72.047545       A**3
                                   density =             0.335758   AMU/A**3
                                           =             0.557540     g/cm^3

                           -------------------------------
                                     Cell Contents
                           -------------------------------
                         Total number of ions in cell =   24
                      Total number of species in cell =    1
                        Max number of any one species =   24

            xxxxxxxxxxxxxxxxxxxxxxxxxxxxxxxxxxxxxxxxxxxxxxxxxxxxxxxxxxxx
            x  Element    Atom        Fractional coordinates of atoms  x
            x            Number           u          v          w      x
            x----------------------------------------------------------x
            x  H            1         0.835574   0.652876   0.103678   x 
            x  H            2         0.164426   0.347124   0.896322   x 
            x  H            3         0.835574   0.847124   0.603678   x 
            x  H            4         0.164426   0.152876   0.396322   x 
            x  H            5         0.882545   0.406307   0.223229   x 
            x  H            6         0.117455   0.593693   0.776771   x 
            x  H            7         0.882545   0.093693   0.723229   x 
            x  H            8         0.117455   0.906307   0.276771   x 
            x  H            9         0.859883   0.118795   0.416269   x 
            x  H           10         0.140117   0.881205   0.583731   x 
            x  H           11         0.859883   0.381205   0.916269   x 
            x  H           12         0.140117   0.618795   0.083731   x 
            x  H           13         0.749293   0.908967   0.247918   x 
            x  H           14         0.250707   0.091033   0.752082   x 
            x  H           15         0.749293   0.591033   0.747918   x 
            x  H           16         0.250707   0.408967   0.252082   x 
            x  H           17         0.573808   0.392445   0.193389   x 
            x  H           18         0.426192   0.607555   0.806611   x 
            x  H           19         0.573808   0.107555   0.693389   x 
            x  H           20         0.426192   0.892445   0.306611   x 
            x  H           21         0.478882   0.598861   0.137442   x 
            x  H           22         0.521118   0.401139   0.862558   x 
            x  H           23         0.478882   0.901139   0.637442   x 
            x  H           24         0.521118   0.098861   0.362558   x 
            xxxxxxxxxxxxxxxxxxxxxxxxxxxxxxxxxxxxxxxxxxxxxxxxxxxxxxxxxxxx


                         No user defined ionic velocities

                           -------------------------------
                                   Details of Species
                           -------------------------------

                               Mass of species in AMU
                                    H    1.0079400

                          Electric Quadrupole Moment (Barn)
                                    H    0.0028600 Isotope  2

                          Files used for pseudopotentials:
                                    H 0|0.7|2|6|8|10L(qc=10)

                           -------------------------------
                              k-Points For BZ Sampling
                           -------------------------------
                       MP grid size for SCF calculation is  8 13 11
                            with an offset of   0.000  0.000  0.000
                       Number of kpoints used =           308

                           -------------------------------
                               Symmetry and Constraints
                           -------------------------------

                      Maximum deviation from symmetry = 0.167743E-13     ANG

                      Number of symmetry operations   =           4
                      Number of ionic constraints     =           3
                      Point group of crystal =     5: C2h, 2/m, 2/m
                      Space group of crystal =    14: P2_1/c, -P 2ybc

             Set iprint > 1 for details on symmetry rotations/translations

                         Centre of mass is constrained
             Set iprint > 1 for details of linear ionic constraints

                         Number of cell constraints= 2
                         Cell constraints are:  1 2 3 0 5 0

                         External pressure/stress (GPa)
                         40.00000   0.00000   0.00000
                                   40.00000   0.00000
                                             40.00000
  
+---------------- MEMORY AND SCRATCH DISK ESTIMATES PER PROCESS --------------+
|                                                     Memory          Disk    |
| Baseline code, static data and system overhead      412.0 MB         0.0 MB |
| BLAS internal memory storage                          0.0 MB         0.0 MB |
| Model and support data                              105.7 MB         0.0 MB |
| Electronic energy minimisation requirements          45.7 MB        50.0 MB |
| Force calculation requirements                       25.7 MB         0.0 MB |
| Stress calculation requirements                      33.6 MB         0.0 MB |
|                                               ----------------------------- |
| Approx. total storage required per process          563.4 MB        50.0 MB |
|                                                                             |
| Requirements will fluctuate during execution and may exceed these estimates |
+-----------------------------------------------------------------------------+
Calculating finite basis set correction with  3 cut-off energies.
Calculating total energy with cut-off of 1190.000 eV.
------------------------------------------------------------------------ <-- SCF
SCF loop      Energy                           Energy gain       Timer   <-- SCF
                                               per atom          (sec)   <-- SCF
------------------------------------------------------------------------ <-- SCF
Initial   6.23747471E+002                                         10.19  <-- SCF
      1  -2.95432523E+002                    3.82991664E+001      38.79  <-- SCF
      2  -3.71806443E+002                    3.18224669E+000      58.06  <-- SCF
      3  -3.73119104E+002                    5.46942133E-002      74.27  <-- SCF
      4  -3.70699617E+002                   -1.00811958E-001     103.65  <-- SCF
      5  -3.70620783E+002                   -3.28475549E-003     130.88  <-- SCF
      6  -3.70624348E+002                    1.48520008E-004     158.84  <-- SCF
      7  -3.70624743E+002                    1.64634373E-005     187.63  <-- SCF
      8  -3.70624744E+002                    5.22655387E-008     215.88  <-- SCF
      9  -3.70624744E+002                    4.31535382E-009     244.09  <-- SCF
     10  -3.70624744E+002                    1.20963672E-011     264.13  <-- SCF
     11  -3.70624744E+002                    2.60416297E-012     284.31  <-- SCF
     12  -3.70624744E+002                    6.02200099E-013     304.59  <-- SCF
------------------------------------------------------------------------ <-- SCF
 
Final energy =  -370.6247440172     eV
(energy not corrected for finite basis set)
 
Calculating total energy with cut-off of 1195.000 eV.
------------------------------------------------------------------------ <-- SCF
SCF loop      Energy                           Energy gain       Timer   <-- SCF
                                               per atom          (sec)   <-- SCF
------------------------------------------------------------------------ <-- SCF
Initial  -3.70624744E+002                                        316.68  <-- SCF
      1  -3.70626453E+002                    7.11922758E-005     338.81  <-- SCF
      2  -3.70626453E+002                    8.97539973E-011     368.39  <-- SCF
      3  -3.70626453E+002                    3.39198007E-008     396.58  <-- SCF
      4  -3.70626453E+002                    1.92796074E-009     426.26  <-- SCF
      5  -3.70626453E+002                    3.50262940E-011     448.29  <-- SCF
      6  -3.70626453E+002                   -1.82875481E-012     470.03  <-- SCF
      7  -3.70626453E+002                    3.77835246E-012     491.24  <-- SCF
------------------------------------------------------------------------ <-- SCF
 
Final energy =  -370.6264534952     eV
(energy not corrected for finite basis set)
 
Calculating total energy with cut-off of 1200.000 eV.
------------------------------------------------------------------------ <-- SCF
SCF loop      Energy                           Energy gain       Timer   <-- SCF
                                               per atom          (sec)   <-- SCF
------------------------------------------------------------------------ <-- SCF
Initial  -3.70626453E+002                                        503.65  <-- SCF
      1  -3.70628103E+002                    6.87278210E-005     527.50  <-- SCF
      2  -3.70628103E+002                    8.53653886E-011     555.86  <-- SCF
      3  -3.70628104E+002                    3.25731484E-008     584.23  <-- SCF
      4  -3.70628104E+002                    1.84051282E-009     612.65  <-- SCF
      5  -3.70628104E+002                    3.45328525E-011     633.78  <-- SCF
      6  -3.70628104E+002                   -1.72201032E-012     654.96  <-- SCF
      7  -3.70628104E+002                    3.16406808E-012     675.75  <-- SCF
------------------------------------------------------------------------ <-- SCF
 
Final energy =  -370.6281037918     eV
(energy not corrected for finite basis set)
 
 For future reference: finite basis dEtot/dlog(Ecut) =      -0.399143eV
 Total energy corrected for finite basis set =    -370.628085 eV
 
+---------------- MEMORY AND SCRATCH DISK ESTIMATES PER PROCESS --------------+
|                                                     Memory          Disk    |
| Model and support data                              104.8 MB         0.0 MB |
| Electronic energy minimisation requirements          45.7 MB        50.0 MB |
| Geometry minimisation requirements                   75.1 MB        50.0 MB |
|                                               ----------------------------- |
| Approx. total storage required per process          225.6 MB       100.1 MB |
|                                                                             |
| Requirements will fluctuate during execution and may exceed these estimates |
+-----------------------------------------------------------------------------+
 

 ******************************** Symmetrised Forces ********************************
 *                                                                                  *
 *                           Cartesian components (eV/A)                            *
 * -------------------------------------------------------------------------------- *
 *                         x                    y                    z              *
 *                                                                                  *
 * H               1      0.00000             -0.00000              0.00000         *
 * H               2     -0.00000              0.00000             -0.00000         *
 * H               3      0.00000              0.00000              0.00000         *
 * H               4     -0.00000             -0.00000             -0.00000         *
 * H               5      0.00000              0.00000              0.00000         *
 * H               6     -0.00000             -0.00000             -0.00000         *
 * H               7      0.00000             -0.00000              0.00000         *
 * H               8     -0.00000              0.00000             -0.00000         *
 * H               9     -0.00000             -0.00000             -0.00000         *
 * H              10      0.00000              0.00000              0.00000         *
 * H              11     -0.00000              0.00000             -0.00000         *
 * H              12      0.00000             -0.00000              0.00000         *
 * H              13     -0.00000             -0.00000             -0.00000         *
 * H              14      0.00000              0.00000              0.00000         *
 * H              15     -0.00000              0.00000             -0.00000         *
 * H              16      0.00000             -0.00000              0.00000         *
 * H              17      0.00000             -0.00000             -0.00000         *
 * H              18     -0.00000              0.00000              0.00000         *
 * H              19      0.00000              0.00000             -0.00000         *
 * H              20     -0.00000             -0.00000              0.00000         *
 * H              21      0.00000              0.00000              0.00000         *
 * H              22     -0.00000             -0.00000             -0.00000         *
 * H              23      0.00000             -0.00000              0.00000         *
 * H              24     -0.00000              0.00000             -0.00000         *
 *                                                                                  *
 ************************************************************************************

 *********** Symmetrised Stress Tensor ***********
 *                                               *
 *          Cartesian components (GPa)           *
 * --------------------------------------------- *
 *             x             y             z     *
 *                                               *
 *  x    -49.979568      0.000000     -0.000021  *
 *  y      0.000000    -49.979559      0.000000  *
 *  z     -0.000021      0.000000    -49.979423  *
 *                                               *
 *  Pressure:   49.9795                          *
 *                                               *
 *************************************************
 LBFGS: finished iteration     0 with enthalpy= -3.52640669E+002 eV
  
 +-----------+-----------------+-----------------+------------+-----+ <-- LBFGS
 | Parameter |      value      |    tolerance    |    units   | OK? | <-- LBFGS
 +-----------+-----------------+-----------------+------------+-----+ <-- LBFGS
 |  dE/ion   |   0.000000E+000 |   1.000000E-009 |         eV | No  | <-- LBFGS
 |  |F|max   |   4.120987E-006 |   1.000000E-004 |       eV/A | Yes | <-- LBFGS
 |  |dR|max  |   0.000000E+000 |   1.000000E-004 |          A | No  | <-- LBFGS
 |   Smax    |   9.979568E+000 |   1.000000E-004 |        GPa | No  | <-- LBFGS
 +-----------+-----------------+-----------------+------------+-----+ <-- LBFGS
  

================================================================================
 Starting LBFGS iteration          1 ...
================================================================================
  
 +------------+-------------+-------------+-----------------+ <-- min LBFGS
 |    Step    |   lambda    |   F.delta'  |    enthalpy     | <-- min LBFGS
 +------------+-------------+-------------+-----------------+ <-- min LBFGS
 |  previous  |    0.000000 |    0.285646 |     -352.640669 | <-- min LBFGS
 +------------+-------------+-------------+-----------------+ <-- min LBFGS
  

--------------------------------------------------------------------------------
 LBFGS: starting iteration         1 with trial guess (lambda=  1.000000)
--------------------------------------------------------------------------------
 
+---------------- MEMORY AND SCRATCH DISK ESTIMATES PER PROCESS --------------+
|                                                     Memory          Disk    |
| Model and support data                              105.7 MB         0.0 MB |
| Electronic energy minimisation requirements          46.1 MB        51.1 MB |
| Geometry minimisation requirements                   76.0 MB        51.1 MB |
|                                               ----------------------------- |
| Approx. total storage required per process          227.9 MB       102.1 MB |
|                                                                             |
| Requirements will fluctuate during execution and may exceed these estimates |
+-----------------------------------------------------------------------------+
 

                           -------------------------------
                                      Unit Cell
                           -------------------------------
        Real Lattice(A)              Reciprocal Lattice(1/A)
     9.9182566     0.0000000     0.0013944        0.633332171   0.000000000   1.172004924
     0.0000000     2.0728213     0.0000000        0.000000000   3.031223847   0.000000000
    -6.6137273     0.0000000     3.5739494       -0.000247106   0.000000000   1.757593720

                       Lattice parameters(A)       Cell Angles
                    a =      9.918257          alpha =   90.000000
                    b =      2.072821          beta  =  151.605887
                    c =      7.517613          gamma =   90.000000

                Current cell volume =            73.495133 A**3

                           -------------------------------
                                     Cell Contents
                           -------------------------------

            xxxxxxxxxxxxxxxxxxxxxxxxxxxxxxxxxxxxxxxxxxxxxxxxxxxxxxxxxxxxxxxxx
            x  Element         Atom        Fractional coordinates of atoms  x
            x                 Number           u          v          w      x
            x---------------------------------------------------------------x
            x  H                 1         0.835574   0.652875   0.103678   x
            x  H                 2         0.164426   0.347125   0.896322   x
            x  H                 3         0.835574   0.847125   0.603678   x
            x  H                 4         0.164426   0.152875   0.396322   x
            x  H                 5         0.882545   0.406307   0.223229   x
            x  H                 6         0.117455   0.593693   0.776771   x
            x  H                 7         0.882545   0.093693   0.723229   x
            x  H                 8         0.117455   0.906307   0.276771   x
            x  H                 9         0.859883   0.118795   0.416269   x
            x  H                10         0.140117   0.881205   0.583731   x
            x  H                11         0.859883   0.381205   0.916269   x
            x  H                12         0.140117   0.618795   0.083731   x
            x  H                13         0.749293   0.908967   0.247918   x
            x  H                14         0.250707   0.091033   0.752082   x
            x  H                15         0.749293   0.591033   0.747918   x
            x  H                16         0.250707   0.408967   0.252082   x
            x  H                17         0.573808   0.392445   0.193389   x
            x  H                18         0.426192   0.607555   0.806611   x
            x  H                19         0.573808   0.107555   0.693389   x
            x  H                20         0.426192   0.892445   0.306611   x
            x  H                21         0.478882   0.598861   0.137443   x
            x  H                22         0.521118   0.401139   0.862557   x
            x  H                23         0.478882   0.901139   0.637443   x
            x  H                24         0.521118   0.098861   0.362557   x
            xxxxxxxxxxxxxxxxxxxxxxxxxxxxxxxxxxxxxxxxxxxxxxxxxxxxxxxxxxxxxxxxx


------------------------------------------------------------------------ <-- SCF
SCF loop      Energy                           Energy gain       Timer   <-- SCF
                                               per atom          (sec)   <-- SCF
------------------------------------------------------------------------ <-- SCF
Initial  -3.71049020E+002                                        698.53  <-- SCF
      1  -3.71063761E+002                    6.14207541E-004     721.14  <-- SCF
      2  -3.71063792E+002                    1.29939130E-006     749.16  <-- SCF
      3  -3.71063189E+002                   -2.51170707E-005     777.32  <-- SCF
      4  -3.71063175E+002                   -6.10009631E-007     805.17  <-- SCF
      5  -3.71063176E+002                    3.39637553E-008     833.08  <-- SCF
      6  -3.71063176E+002                    3.60336399E-009     861.00  <-- SCF
      7  -3.71063176E+002                    1.45454485E-011     881.48  <-- SCF
      8  -3.71063176E+002                    9.10349313E-013     901.82  <-- SCF
      9  -3.71063176E+002                    4.69272987E-013     922.04  <-- SCF
------------------------------------------------------------------------ <-- SCF
 
Final energy =  -371.0631757421     eV
(energy not corrected for finite basis set)
 

 ******************************** Symmetrised Forces ********************************
 *                                                                                  *
 *                           Cartesian components (eV/A)                            *
 * -------------------------------------------------------------------------------- *
 *                         x                    y                    z              *
 *                                                                                  *
 * H               1     -0.06659             -0.10462              0.08780         *
 * H               2      0.06659              0.10462             -0.08780         *
 * H               3     -0.06659              0.10462              0.08780         *
 * H               4      0.06659             -0.10462             -0.08780         *
 * H               5      0.06584              0.10398             -0.08652         *
 * H               6     -0.06584             -0.10398              0.08652         *
 * H               7      0.06584             -0.10398             -0.08652         *
 * H               8     -0.06584              0.10398              0.08652         *
 * H               9      0.00283             -0.08827             -0.12142         *
 * H              10     -0.00283              0.08827              0.12142         *
 * H              11      0.00283              0.08827             -0.12142         *
 * H              12     -0.00283             -0.08827              0.12142         *
 * H              13     -0.00358              0.08808              0.12208         *
 * H              14      0.00358             -0.08808             -0.12208         *
 * H              15     -0.00358             -0.08808              0.12208         *
 * H              16      0.00358              0.08808             -0.12208         *
 * H              17     -0.11575              0.08686             -0.04074         *
 * H              18      0.11575             -0.08686              0.04074         *
 * H              19     -0.11575             -0.08686             -0.04074         *
 * H              20      0.11575              0.08686              0.04074         *
 * H              21      0.11595             -0.08767              0.04100         *
 * H              22     -0.11595              0.08767             -0.04100         *
 * H              23      0.11595              0.08767              0.04100         *
 * H              24     -0.11595             -0.08767             -0.04100         *
 *                                                                                  *
 ************************************************************************************

 *********** Symmetrised Stress Tensor ***********
 *                                               *
 *          Cartesian components (GPa)           *
 * --------------------------------------------- *
 *             x             y             z     *
 *                                               *
 *  x    -46.667264      0.000000     -0.059803  *
 *  y      0.000000    -46.249930      0.000000  *
 *  z     -0.059803      0.000000    -46.326184  *
 *                                               *
 *  Pressure:   46.4145                          *
 *                                               *
 *************************************************
  
 +------------+-------------+-------------+-----------------+ <-- min LBFGS
 |    Step    |   lambda    |   F.delta'  |    enthalpy     | <-- min LBFGS
 +------------+-------------+-------------+-----------------+ <-- min LBFGS
 |  previous  |    0.000000 |    0.285646 |     -352.640669 | <-- min LBFGS
 | trial step |    1.000000 |    0.186054 |     -352.714360 | <-- min LBFGS
 +------------+-------------+-------------+-----------------+ <-- min LBFGS
  

--------------------------------------------------------------------------------
 LBFGS: improving iteration         1 with line minimization (lambda=  2.868164)
--------------------------------------------------------------------------------
 
+---------------- MEMORY AND SCRATCH DISK ESTIMATES PER PROCESS --------------+
|                                                     Memory          Disk    |
| Model and support data                              107.5 MB         0.0 MB |
| Electronic energy minimisation requirements          47.0 MB        53.0 MB |
| Geometry minimisation requirements                   77.8 MB        53.0 MB |
|                                               ----------------------------- |
| Approx. total storage required per process          232.3 MB       106.0 MB |
|                                                                             |
| Requirements will fluctuate during execution and may exceed these estimates |
+-----------------------------------------------------------------------------+
 

                           -------------------------------
                                      Unit Cell
                           -------------------------------
        Real Lattice(A)              Reciprocal Lattice(1/A)
    10.0407157     0.0000000     0.0014119        0.625607866   0.000000000   1.157711050
     0.0000000     2.0984140     0.0000000        0.000000000   2.994254321   0.000000000
    -6.6953858     0.0000000     3.6180755       -0.000244135   0.000000000   1.736157977

                       Lattice parameters(A)       Cell Angles
                    a =     10.040716          alpha =   90.000000
                    b =      2.098414          beta  =  151.605891
                    c =      7.610431          gamma =   90.000000

                Current cell volume =            76.251165 A**3

                           -------------------------------
                                     Cell Contents
                           -------------------------------

            xxxxxxxxxxxxxxxxxxxxxxxxxxxxxxxxxxxxxxxxxxxxxxxxxxxxxxxxxxxxxxxxx
            x  Element         Atom        Fractional coordinates of atoms  x
            x                 Number           u          v          w      x
            x---------------------------------------------------------------x
            x  H                 1         0.835574   0.652875   0.103678   x
            x  H                 2         0.164426   0.347125   0.896322   x
            x  H                 3         0.835574   0.847125   0.603678   x
            x  H                 4         0.164426   0.152875   0.396322   x
            x  H                 5         0.882545   0.406307   0.223229   x
            x  H                 6         0.117455   0.593693   0.776771   x
            x  H                 7         0.882545   0.093693   0.723229   x
            x  H                 8         0.117455   0.906307   0.276771   x
            x  H                 9         0.859883   0.118795   0.416269   x
            x  H                10         0.140117   0.881205   0.583731   x
            x  H                11         0.859883   0.381205   0.916269   x
            x  H                12         0.140117   0.618795   0.083731   x
            x  H                13         0.749293   0.908967   0.247918   x
            x  H                14         0.250707   0.091033   0.752082   x
            x  H                15         0.749293   0.591033   0.747918   x
            x  H                16         0.250707   0.408967   0.252082   x
            x  H                17         0.573808   0.392445   0.193389   x
            x  H                18         0.426192   0.607555   0.806611   x
            x  H                19         0.573808   0.107555   0.693389   x
            x  H                20         0.426192   0.892445   0.306611   x
            x  H                21         0.478883   0.598861   0.137443   x
            x  H                22         0.521117   0.401139   0.862557   x
            x  H                23         0.478883   0.901139   0.637443   x
            x  H                24         0.521117   0.098861   0.362557   x
            xxxxxxxxxxxxxxxxxxxxxxxxxxxxxxxxxxxxxxxxxxxxxxxxxxxxxxxxxxxxxxxxx


------------------------------------------------------------------------ <-- SCF
SCF loop      Energy                           Energy gain       Timer   <-- SCF
                                               per atom          (sec)   <-- SCF
------------------------------------------------------------------------ <-- SCF
Initial  -3.71766810E+002                                        945.06  <-- SCF
      1  -3.71809107E+002                    1.76237337E-003     967.87  <-- SCF
      2  -3.71809211E+002                    4.33916585E-006     996.53  <-- SCF
      3  -3.71807124E+002                   -8.69611326E-005    1024.96  <-- SCF
      4  -3.71807073E+002                   -2.12180758E-006    1053.33  <-- SCF
      5  -3.71807076E+002                    1.26015253E-007    1082.15  <-- SCF
      6  -3.71807076E+002                    1.36806127E-008    1111.39  <-- SCF
      7  -3.71807076E+002                    5.36844269E-011    1132.65  <-- SCF
      8  -3.71807076E+002                    5.63530393E-012    1153.33  <-- SCF
      9  -3.71807076E+002                    2.51755894E-013    1173.92  <-- SCF
------------------------------------------------------------------------ <-- SCF
 
Final energy =  -371.8070763457     eV
(energy not corrected for finite basis set)
 

 ******************************** Symmetrised Forces ********************************
 *                                                                                  *
 *                           Cartesian components (eV/A)                            *
 * -------------------------------------------------------------------------------- *
 *                         x                    y                    z              *
 *                                                                                  *
 * H               1     -0.18591             -0.29205              0.24512         *
 * H               2      0.18591              0.29205             -0.24512         *
 * H               3     -0.18591              0.29205              0.24512         *
 * H               4      0.18591             -0.29205             -0.24512         *
 * H               5      0.18384              0.29030             -0.24155         *
 * H               6     -0.18384             -0.29030              0.24155         *
 * H               7      0.18384             -0.29030             -0.24155         *
 * H               8     -0.18384              0.29030              0.24155         *
 * H               9      0.00793             -0.24639             -0.33897         *
 * H              10     -0.00793              0.24639              0.33897         *
 * H              11      0.00793              0.24639             -0.33897         *
 * H              12     -0.00793             -0.24639              0.33897         *
 * H              13     -0.00999              0.24592              0.34085         *
 * H              14      0.00999             -0.24592             -0.34085         *
 * H              15     -0.00999             -0.24592              0.34085         *
 * H              16      0.00999              0.24592             -0.34085         *
 * H              17     -0.32320              0.24246             -0.11372         *
 * H              18      0.32320             -0.24246              0.11372         *
 * H              19     -0.32320             -0.24246             -0.11372         *
 * H              20      0.32320              0.24246              0.11372         *
 * H              21      0.32374             -0.24476              0.11449         *
 * H              22     -0.32374              0.24476             -0.11449         *
 * H              23      0.32374              0.24476              0.11449         *
 * H              24     -0.32374             -0.24476             -0.11449         *
 *                                                                                  *
 ************************************************************************************

 *********** Symmetrised Stress Tensor ***********
 *                                               *
 *          Cartesian components (GPa)           *
 * --------------------------------------------- *
 *             x             y             z     *
 *                                               *
 *  x    -40.942847      0.000000     -0.163286  *
 *  y      0.000000    -39.812524      0.000000  *
 *  z     -0.163286      0.000000    -40.020680  *
 *                                               *
 *  Pressure:   40.2587                          *
 *                                               *
 *************************************************
  
 +------------+-------------+-------------+-----------------+ <-- min LBFGS
 |    Step    |   lambda    |   F.delta'  |    enthalpy     | <-- min LBFGS
 +------------+-------------+-------------+-----------------+ <-- min LBFGS
 |  previous  |    0.000000 |    0.285646 |     -352.640669 | <-- min LBFGS
 | trial step |    1.000000 |    0.186054 |     -352.714360 | <-- min LBFGS
 |  line step |    2.868164 |    0.007691 |     -352.770183 | <-- min LBFGS
 +------------+-------------+-------------+-----------------+ <-- min LBFGS
  
 LBFGS: finished iteration     1 with enthalpy= -3.52770183E+002 eV
  
 +-----------+-----------------+-----------------+------------+-----+ <-- LBFGS
 | Parameter |      value      |    tolerance    |    units   | OK? | <-- LBFGS
 +-----------+-----------------+-----------------+------------+-----+ <-- LBFGS
 |  dE/ion   |   5.396417E-003 |   1.000000E-009 |         eV | No  | <-- LBFGS
 |  |F|max   |   4.241963E-001 |   1.000000E-004 |       eV/A | No  | <-- LBFGS
 |  |dR|max  |   1.168265E-006 |   1.000000E-004 |          A | Yes | <-- LBFGS
 |   Smax    |   9.428472E-001 |   1.000000E-004 |        GPa | No  | <-- LBFGS
 +-----------+-----------------+-----------------+------------+-----+ <-- LBFGS
  

================================================================================
 Starting LBFGS iteration          2 ...
================================================================================
  
 +------------+-------------+-------------+-----------------+ <-- min LBFGS
 |    Step    |   lambda    |   F.delta'  |    enthalpy     | <-- min LBFGS
 +------------+-------------+-------------+-----------------+ <-- min LBFGS
 |  previous  |    0.000000 |    0.172131 |     -352.770183 | <-- min LBFGS
 +------------+-------------+-------------+-----------------+ <-- min LBFGS
  

--------------------------------------------------------------------------------
 LBFGS: starting iteration         2 with trial guess (lambda=  0.775567)
--------------------------------------------------------------------------------
 
+---------------- MEMORY AND SCRATCH DISK ESTIMATES PER PROCESS --------------+
|                                                     Memory          Disk    |
| Model and support data                              113.0 MB         0.0 MB |
| Electronic energy minimisation requirements          49.9 MB        57.3 MB |
| Geometry minimisation requirements                   83.0 MB        57.3 MB |
|                                               ----------------------------- |
| Approx. total storage required per process          245.9 MB       114.6 MB |
|                                                                             |
| Requirements will fluctuate during execution and may exceed these estimates |
+-----------------------------------------------------------------------------+
 

                           -------------------------------
                                      Unit Cell
                           -------------------------------
        Real Lattice(A)              Reciprocal Lattice(1/A)
    10.3053027     0.0000000     0.0023367        0.609448218   0.000000000   1.128483926
     0.0000000     2.1524258     0.0000000        0.000000000   2.919118223   0.000000000
    -6.8714985     0.0000000     3.7110165       -0.000383750   0.000000000   1.692406460

                       Lattice parameters(A)       Cell Angles
                    a =     10.305303          alpha =   90.000000
                    b =      2.152426          beta  =  151.615332
                    c =      7.809554          gamma =   90.000000

                Current cell volume =            82.350100 A**3

                           -------------------------------
                                     Cell Contents
                           -------------------------------

            xxxxxxxxxxxxxxxxxxxxxxxxxxxxxxxxxxxxxxxxxxxxxxxxxxxxxxxxxxxxxxxxx
            x  Element         Atom        Fractional coordinates of atoms  x
            x                 Number           u          v          w      x
            x---------------------------------------------------------------x
            x  H                 1         0.837714   0.641701   0.109117   x
            x  H                 2         0.162286   0.358299   0.890883   x
            x  H                 3         0.837714   0.858299   0.609117   x
            x  H                 4         0.162286   0.141701   0.390883   x
            x  H                 5         0.880442   0.417414   0.217870   x
            x  H                 6         0.119558   0.582586   0.782130   x
            x  H                 7         0.880442   0.082586   0.717870   x
            x  H                 8         0.119558   0.917414   0.282130   x
            x  H                 9         0.854932   0.109369   0.408749   x
            x  H                10         0.145068   0.890631   0.591251   x
            x  H                11         0.854932   0.390631   0.908749   x
            x  H                12         0.145068   0.609369   0.091251   x
            x  H                13         0.754255   0.918375   0.255479   x
            x  H                14         0.245745   0.081625   0.744521   x
            x  H                15         0.754255   0.581625   0.755479   x
            x  H                16         0.245745   0.418375   0.244521   x
            x  H                17         0.569542   0.401721   0.190867   x
            x  H                18         0.430458   0.598279   0.809133   x
            x  H                19         0.569542   0.098279   0.690867   x
            x  H                20         0.430458   0.901721   0.309133   x
            x  H                21         0.483164   0.589498   0.139982   x
            x  H                22         0.516836   0.410502   0.860018   x
            x  H                23         0.483164   0.910502   0.639982   x
            x  H                24         0.516836   0.089498   0.360018   x
            xxxxxxxxxxxxxxxxxxxxxxxxxxxxxxxxxxxxxxxxxxxxxxxxxxxxxxxxxxxxxxxxx


------------------------------------------------------------------------ <-- SCF
SCF loop      Energy                           Energy gain       Timer   <-- SCF
                                               per atom          (sec)   <-- SCF
------------------------------------------------------------------------ <-- SCF
Initial  -3.70089357E+002                                       1197.68  <-- SCF
      1  -3.73263458E+002                    1.32254217E-001    1221.98  <-- SCF
      2  -3.73273315E+002                    4.10687657E-004    1251.72  <-- SCF
      3  -3.72990218E+002                   -1.17956925E-002    1280.99  <-- SCF
      4  -3.72980662E+002                   -3.98184152E-004    1311.27  <-- SCF
      5  -3.72980881E+002                    9.14355106E-006    1341.49  <-- SCF
      6  -3.72980907E+002                    1.08178749E-006    1371.81  <-- SCF
      7  -3.72980907E+002                    6.71699831E-009    1402.72  <-- SCF
      8  -3.72980907E+002                    6.92087023E-010    1433.74  <-- SCF
      9  -3.72980907E+002                    1.49220754E-011    1455.68  <-- SCF
     10  -3.72980907E+002                    9.92925246E-013    1477.47  <-- SCF
     11  -3.72980907E+002                    1.12786641E-013    1499.42  <-- SCF
------------------------------------------------------------------------ <-- SCF
 
Final energy =  -372.9809073468     eV
(energy not corrected for finite basis set)
 

 ******************************** Symmetrised Forces ********************************
 *                                                                                  *
 *                           Cartesian components (eV/A)                            *
 * -------------------------------------------------------------------------------- *
 *                         x                    y                    z              *
 *                                                                                  *
 * H               1      0.66191              1.02168             -0.86006         *
 * H               2     -0.66191             -1.02168              0.86006         *
 * H               3      0.66191             -1.02168             -0.86006         *
 * H               4     -0.66191              1.02168              0.86006         *
 * H               5     -0.65852             -1.04783              0.87160         *
 * H               6      0.65852              1.04783             -0.87160         *
 * H               7     -0.65852              1.04783              0.87160         *
 * H               8      0.65852             -1.04783             -0.87160         *
 * H               9     -0.02848              0.84024              1.18111         *
 * H              10      0.02848             -0.84024             -1.18111         *
 * H              11     -0.02848             -0.84024              1.18111         *
 * H              12      0.02848              0.84024             -1.18111         *
 * H              13      0.03660             -0.85808             -1.17050         *
 * H              14     -0.03660              0.85808              1.17050         *
 * H              15      0.03660              0.85808             -1.17050         *
 * H              16     -0.03660             -0.85808              1.17050         *
 * H              17      1.14402             -0.85190              0.40046         *
 * H              18     -1.14402              0.85190             -0.40046         *
 * H              19      1.14402              0.85190              0.40046         *
 * H              20     -1.14402             -0.85190             -0.40046         *
 * H              21     -1.13635              0.84952             -0.39703         *
 * H              22      1.13635             -0.84952              0.39703         *
 * H              23     -1.13635             -0.84952             -0.39703         *
 * H              24      1.13635              0.84952              0.39703         *
 *                                                                                  *
 ************************************************************************************

 *********** Symmetrised Stress Tensor ***********
 *                                               *
 *          Cartesian components (GPa)           *
 * --------------------------------------------- *
 *             x             y             z     *
 *                                               *
 *  x    -40.691124      0.000000      0.522289  *
 *  y      0.000000    -42.868193      0.000000  *
 *  z      0.522289      0.000000    -42.268860  *
 *                                               *
 *  Pressure:   41.9427                          *
 *                                               *
 *************************************************
  
 +------------+-------------+-------------+-----------------+ <-- min LBFGS
 |    Step    |   lambda    |   F.delta'  |    enthalpy     | <-- min LBFGS
 +------------+-------------+-------------+-----------------+ <-- min LBFGS
 |  previous  |    0.000000 |    0.172131 |     -352.770183 | <-- min LBFGS
 | trial step |    0.775567 |   -0.565352 |     -352.421352 | <-- min LBFGS
 +------------+-------------+-------------+-----------------+ <-- min LBFGS
  

--------------------------------------------------------------------------------
 LBFGS: improving iteration         2 with line minimization (lambda=  0.181019)
--------------------------------------------------------------------------------

                           -------------------------------
                                      Unit Cell
                           -------------------------------
        Real Lattice(A)              Reciprocal Lattice(1/A)
    10.1024710     0.0000000     0.0016278        0.621759977   0.000000000   1.150754728
     0.0000000     2.1110205     0.0000000        0.000000000   2.976373386   0.000000000
    -6.7364910     0.0000000     3.6397682       -0.000278060   0.000000000   1.725745093

                       Lattice parameters(A)       Cell Angles
                    a =     10.102471          alpha =   90.000000
                    b =      2.111021          beta  =  151.608138
                    c =      7.656907          gamma =   90.000000

                Current cell volume =            77.646751 A**3

                           -------------------------------
                                     Cell Contents
                           -------------------------------

            xxxxxxxxxxxxxxxxxxxxxxxxxxxxxxxxxxxxxxxxxxxxxxxxxxxxxxxxxxxxxxxxx
            x  Element         Atom        Fractional coordinates of atoms  x
            x                 Number           u          v          w      x
            x---------------------------------------------------------------x
            x  H                 1         0.836074   0.650267   0.104948   x
            x  H                 2         0.163926   0.349733   0.895052   x
            x  H                 3         0.836074   0.849733   0.604948   x
            x  H                 4         0.163926   0.150267   0.395052   x
            x  H                 5         0.882054   0.408900   0.221978   x
            x  H                 6         0.117946   0.591100   0.778022   x
            x  H                 7         0.882054   0.091100   0.721978   x
            x  H                 8         0.117946   0.908900   0.278022   x
            x  H                 9         0.858728   0.116595   0.414514   x
            x  H                10         0.141272   0.883405   0.585486   x
            x  H                11         0.858728   0.383405   0.914514   x
            x  H                12         0.141272   0.616595   0.085486   x
            x  H                13         0.750451   0.911163   0.249682   x
            x  H                14         0.249549   0.088837   0.750318   x
            x  H                15         0.750451   0.588837   0.749682   x
            x  H                16         0.249549   0.411163   0.250318   x
            x  H                17         0.572812   0.394610   0.192800   x
            x  H                18         0.427188   0.605390   0.807200   x
            x  H                19         0.572812   0.105390   0.692800   x
            x  H                20         0.427188   0.894610   0.307200   x
            x  H                21         0.479882   0.596676   0.138035   x
            x  H                22         0.520118   0.403324   0.861965   x
            x  H                23         0.479882   0.903324   0.638035   x
            x  H                24         0.520118   0.096676   0.361965   x
            xxxxxxxxxxxxxxxxxxxxxxxxxxxxxxxxxxxxxxxxxxxxxxxxxxxxxxxxxxxxxxxxx


------------------------------------------------------------------------ <-- SCF
SCF loop      Energy                           Energy gain       Timer   <-- SCF
                                               per atom          (sec)   <-- SCF
------------------------------------------------------------------------ <-- SCF
Initial  -3.70365912E+002                                       1521.64  <-- SCF
      1  -3.72380986E+002                    8.39614284E-002    1544.46  <-- SCF
      2  -3.72386762E+002                    2.40643138E-004    1573.24  <-- SCF
      3  -3.72208777E+002                   -7.41601963E-003    1602.15  <-- SCF
      4  -3.72203088E+002                   -2.37044456E-004    1631.90  <-- SCF
      5  -3.72203174E+002                    3.57133658E-006    1661.00  <-- SCF
      6  -3.72203183E+002                    3.64700907E-007    1690.11  <-- SCF
      7  -3.72203183E+002                    1.76812797E-009    1719.04  <-- SCF
      8  -3.72203183E+002                    2.84915166E-010    1746.27  <-- SCF
      9  -3.72203183E+002                    1.04690171E-011    1766.76  <-- SCF
     10  -3.72203183E+002                    3.14191356E-013    1787.60  <-- SCF
     11  -3.72203183E+002                    2.27587328E-013    1808.14  <-- SCF
------------------------------------------------------------------------ <-- SCF
 
Final energy =  -372.2031827593     eV
(energy not corrected for finite basis set)
 

 ******************************** Symmetrised Forces ********************************
 *                                                                                  *
 *                           Cartesian components (eV/A)                            *
 * -------------------------------------------------------------------------------- *
 *                         x                    y                    z              *
 *                                                                                  *
 * H               1     -0.02014             -0.03708              0.02988         *
 * H               2      0.02014              0.03708             -0.02988         *
 * H               3     -0.02014              0.03708              0.02988         *
 * H               4      0.02014             -0.03708             -0.02988         *
 * H               5      0.01954              0.02816             -0.02401         *
 * H               6     -0.01954             -0.02816              0.02401         *
 * H               7      0.01954             -0.02816             -0.02401         *
 * H               8     -0.01954              0.02816              0.02401         *
 * H               9      0.00138             -0.03564             -0.04249         *
 * H              10     -0.00138              0.03564              0.04249         *
 * H              11      0.00138              0.03564             -0.04249         *
 * H              12     -0.00138             -0.03564              0.04249         *
 * H              13     -0.00040              0.02992              0.04699         *
 * H              14      0.00040             -0.02992             -0.04699         *
 * H              15     -0.00040             -0.02992              0.04699         *
 * H              16      0.00040              0.02992             -0.04699         *
 * H              17     -0.03657              0.02892             -0.01309         *
 * H              18      0.03657             -0.02892              0.01309         *
 * H              19     -0.03657             -0.02892             -0.01309         *
 * H              20      0.03657              0.02892              0.01309         *
 * H              21      0.03904             -0.03103              0.01474         *
 * H              22     -0.03904              0.03103             -0.01474         *
 * H              23      0.03904              0.03103              0.01474         *
 * H              24     -0.03904             -0.03103             -0.01474         *
 *                                                                                  *
 ************************************************************************************

 *********** Symmetrised Stress Tensor ***********
 *                                               *
 *          Cartesian components (GPa)           *
 * --------------------------------------------- *
 *             x             y             z     *
 *                                               *
 *  x    -40.645571      0.000000     -0.016074  *
 *  y      0.000000    -40.191300      0.000000  *
 *  z     -0.016074      0.000000    -40.235200  *
 *                                               *
 *  Pressure:   40.3574                          *
 *                                               *
 *************************************************
  
 +------------+-------------+-------------+-----------------+ <-- min LBFGS
 |    Step    |   lambda    |   F.delta'  |    enthalpy     | <-- min LBFGS
 +------------+-------------+-------------+-----------------+ <-- min LBFGS
 |  previous  |    0.000000 |    0.172131 |     -352.770183 | <-- min LBFGS
 | trial step |    0.775567 |   -0.565352 |     -352.421352 | <-- min LBFGS
 |  line step |    0.181019 |    0.026935 |     -352.817861 | <-- min LBFGS
 +------------+-------------+-------------+-----------------+ <-- min LBFGS
  
 LBFGS: finished iteration     2 with enthalpy= -3.52817861E+002 eV
  
 +-----------+-----------------+-----------------+------------+-----+ <-- LBFGS
 | Parameter |      value      |    tolerance    |    units   | OK? | <-- LBFGS
 +-----------+-----------------+-----------------+------------+-----+ <-- LBFGS
 |  dE/ion   |   1.986594E-003 |   1.000000E-009 |         eV | No  | <-- LBFGS
 |  |F|max   |   5.570819E-002 |   1.000000E-004 |       eV/A | No  | <-- LBFGS
 |  |dR|max  |   7.996801E-003 |   1.000000E-004 |          A | No  | <-- LBFGS
 |   Smax    |   6.455709E-001 |   1.000000E-004 |        GPa | No  | <-- LBFGS
 +-----------+-----------------+-----------------+------------+-----+ <-- LBFGS
  

================================================================================
 Starting LBFGS iteration          3 ...
================================================================================
  
 +------------+-------------+-------------+-----------------+ <-- min LBFGS
 |    Step    |   lambda    |   F.delta'  |    enthalpy     | <-- min LBFGS
 +------------+-------------+-------------+-----------------+ <-- min LBFGS
 |  previous  |    0.000000 |    0.023701 |     -352.817861 | <-- min LBFGS
 +------------+-------------+-------------+-----------------+ <-- min LBFGS
  

--------------------------------------------------------------------------------
 LBFGS: starting iteration         3 with trial guess (lambda=  1.000000)
--------------------------------------------------------------------------------

                           -------------------------------
                                      Unit Cell
                           -------------------------------
        Real Lattice(A)              Reciprocal Lattice(1/A)
    10.1234699     0.0000000     0.0016404        0.620469174   0.000000000   1.148670183
     0.0000000     2.1148078     0.0000000        0.000000000   2.971043165   0.000000000
    -6.7504899     0.0000000     3.6463651       -0.000279133   0.000000000   1.722619864

                       Lattice parameters(A)       Cell Angles
                    a =     10.123470          alpha =   90.000000
                    b =      2.114808          beta  =  151.614438
                    c =      7.672359          gamma =   90.000000

                Current cell volume =            78.089155 A**3

                           -------------------------------
                                     Cell Contents
                           -------------------------------

            xxxxxxxxxxxxxxxxxxxxxxxxxxxxxxxxxxxxxxxxxxxxxxxxxxxxxxxxxxxxxxxxx
            x  Element         Atom        Fractional coordinates of atoms  x
            x                 Number           u          v          w      x
            x---------------------------------------------------------------x
            x  H                 1         0.836201   0.649673   0.105196   x
            x  H                 2         0.163799   0.350327   0.894804   x
            x  H                 3         0.836201   0.850327   0.605196   x
            x  H                 4         0.163799   0.149673   0.394804   x
            x  H                 5         0.882044   0.408992   0.221914   x
            x  H                 6         0.117956   0.591008   0.778086   x
            x  H                 7         0.882044   0.091008   0.721914   x
            x  H                 8         0.117956   0.908992   0.278086   x
            x  H                 9         0.858481   0.115845   0.414132   x
            x  H                10         0.141519   0.884155   0.585868   x
            x  H                11         0.858481   0.384155   0.914132   x
            x  H                12         0.141519   0.615845   0.085868   x
            x  H                13         0.750807   0.911589   0.250208   x
            x  H                14         0.249193   0.088411   0.749792   x
            x  H                15         0.750807   0.588411   0.750208   x
            x  H                16         0.249193   0.411589   0.249792   x
            x  H                17         0.572669   0.394997   0.192711   x
            x  H                18         0.427331   0.605003   0.807289   x
            x  H                19         0.572669   0.105003   0.692711   x
            x  H                20         0.427331   0.894997   0.307289   x
            x  H                21         0.480089   0.596180   0.138177   x
            x  H                22         0.519911   0.403820   0.861823   x
            x  H                23         0.480089   0.903820   0.638177   x
            x  H                24         0.519911   0.096180   0.361823   x
            xxxxxxxxxxxxxxxxxxxxxxxxxxxxxxxxxxxxxxxxxxxxxxxxxxxxxxxxxxxxxxxxx


------------------------------------------------------------------------ <-- SCF
SCF loop      Energy                           Energy gain       Timer   <-- SCF
                                               per atom          (sec)   <-- SCF
------------------------------------------------------------------------ <-- SCF
Initial  -3.72306007E+002                                       1831.83  <-- SCF
      1  -3.72315639E+002                    4.01323323E-004    1855.86  <-- SCF
      2  -3.72315669E+002                    1.27047081E-006    1885.25  <-- SCF
      3  -3.72314879E+002                   -3.29473541E-005    1914.60  <-- SCF
      4  -3.72314852E+002                   -1.10932333E-006    1943.16  <-- SCF
      5  -3.72314853E+002                    1.89908051E-008    1971.59  <-- SCF
      6  -3.72314853E+002                    2.19052602E-009    2000.01  <-- SCF
      7  -3.72314853E+002                    2.07446857E-012    2020.89  <-- SCF
      8  -3.72314853E+002                    4.57591513E-012    2041.47  <-- SCF
------------------------------------------------------------------------ <-- SCF
 
Final energy =  -372.3148526477     eV
(energy not corrected for finite basis set)
 

 ******************************** Symmetrised Forces ********************************
 *                                                                                  *
 *                           Cartesian components (eV/A)                            *
 * -------------------------------------------------------------------------------- *
 *                         x                    y                    z              *
 *                                                                                  *
 * H               1     -0.01158             -0.02260              0.01798         *
 * H               2      0.01158              0.02260             -0.01798         *
 * H               3     -0.01158              0.02260              0.01798         *
 * H               4      0.01158             -0.02260             -0.01798         *
 * H               5      0.01043              0.01364             -0.01297         *
 * H               6     -0.01043             -0.01364              0.01297         *
 * H               7      0.01043             -0.01364             -0.01297         *
 * H               8     -0.01043              0.01364              0.01297         *
 * H               9     -0.00144              0.02237              0.03754         *
 * H              10      0.00144             -0.02237             -0.03754         *
 * H              11     -0.00144             -0.02237              0.03754         *
 * H              12      0.00144              0.02237             -0.03754         *
 * H              13      0.00208             -0.02824             -0.03390         *
 * H              14     -0.00208              0.02824              0.03390         *
 * H              15      0.00208              0.02824             -0.03390         *
 * H              16     -0.00208             -0.02824              0.03390         *
 * H              17      0.00082              0.00087             -0.00009         *
 * H              18     -0.00082             -0.00087              0.00009         *
 * H              19      0.00082             -0.00087             -0.00009         *
 * H              20     -0.00082              0.00087              0.00009         *
 * H              21      0.00090             -0.00268              0.00125         *
 * H              22     -0.00090              0.00268             -0.00125         *
 * H              23      0.00090              0.00268              0.00125         *
 * H              24     -0.00090             -0.00268             -0.00125         *
 *                                                                                  *
 ************************************************************************************

 *********** Symmetrised Stress Tensor ***********
 *                                               *
 *          Cartesian components (GPa)           *
 * --------------------------------------------- *
 *             x             y             z     *
 *                                               *
 *  x    -40.188146      0.000000     -0.034637  *
 *  y      0.000000    -39.900310      0.000000  *
 *  z     -0.034637      0.000000    -40.035713  *
 *                                               *
 *  Pressure:   40.0414                          *
 *                                               *
 *************************************************
  
 +------------+-------------+-------------+-----------------+ <-- min LBFGS
 |    Step    |   lambda    |   F.delta'  |    enthalpy     | <-- min LBFGS
 +------------+-------------+-------------+-----------------+ <-- min LBFGS
 |  previous  |    0.000000 |    0.023701 |     -352.817861 | <-- min LBFGS
 | trial step |    1.000000 |   -0.002651 |     -352.819077 | <-- min LBFGS
 +------------+-------------+-------------+-----------------+ <-- min LBFGS
  
 LBFGS: finished iteration     3 with enthalpy= -3.52819077E+002 eV
  
 +-----------+-----------------+-----------------+------------+-----+ <-- LBFGS
 | Parameter |      value      |    tolerance    |    units   | OK? | <-- LBFGS
 +-----------+-----------------+-----------------+------------+-----+ <-- LBFGS
 |  dE/ion   |   5.066159E-005 |   1.000000E-009 |         eV | No  | <-- LBFGS
 |  |F|max   |   4.417344E-002 |   1.000000E-004 |       eV/A | No  | <-- LBFGS
 |  |dR|max  |   2.117910E-003 |   1.000000E-004 |          A | No  | <-- LBFGS
 |   Smax    |   1.881463E-001 |   1.000000E-004 |        GPa | No  | <-- LBFGS
 +-----------+-----------------+-----------------+------------+-----+ <-- LBFGS
  

================================================================================
 Starting LBFGS iteration          4 ...
================================================================================
  
 +------------+-------------+-------------+-----------------+ <-- min LBFGS
 |    Step    |   lambda    |   F.delta'  |    enthalpy     | <-- min LBFGS
 +------------+-------------+-------------+-----------------+ <-- min LBFGS
 |  previous  |    0.000000 |    0.012209 |     -352.819077 | <-- min LBFGS
 +------------+-------------+-------------+-----------------+ <-- min LBFGS
  

--------------------------------------------------------------------------------
 LBFGS: starting iteration         4 with trial guess (lambda=  1.000000)
--------------------------------------------------------------------------------

                           -------------------------------
                                      Unit Cell
                           -------------------------------
        Real Lattice(A)              Reciprocal Lattice(1/A)
    10.1366668     0.0000000     0.0018743        0.619635114   0.000000000   1.147447799
     0.0000000     2.1168309     0.0000000        0.000000000   2.968203671   0.000000000
    -6.7592062     0.0000000     3.6500497       -0.000318177   0.000000000   1.720807993

                       Lattice parameters(A)       Cell Angles
                    a =     10.136667          alpha =   90.000000
                    b =      2.116831          beta  =  151.619845
                    c =      7.681779          gamma =   90.000000

                Current cell volume =            78.348159 A**3

                           -------------------------------
                                     Cell Contents
                           -------------------------------

            xxxxxxxxxxxxxxxxxxxxxxxxxxxxxxxxxxxxxxxxxxxxxxxxxxxxxxxxxxxxxxxxx
            x  Element         Atom        Fractional coordinates of atoms  x
            x                 Number           u          v          w      x
            x---------------------------------------------------------------x
            x  H                 1         0.836498   0.648214   0.105857   x
            x  H                 2         0.163502   0.351786   0.894143   x
            x  H                 3         0.836498   0.851786   0.605857   x
            x  H                 4         0.163502   0.148214   0.394143   x
            x  H                 5         0.881890   0.409772   0.221486   x
            x  H                 6         0.118110   0.590228   0.778514   x
            x  H                 7         0.881890   0.090228   0.721486   x
            x  H                 8         0.118110   0.909772   0.278514   x
            x  H                 9         0.858898   0.116274   0.414770   x
            x  H                10         0.141102   0.883726   0.585230   x
            x  H                11         0.858898   0.383726   0.914770   x
            x  H                12         0.141102   0.616274   0.085230   x
[...]
 *                                                                                  *
 ************************************************************************************

 *********** Symmetrised Stress Tensor ***********
 *                                               *
 *          Cartesian components (GPa)           *
 * --------------------------------------------- *
 *             x             y             z     *
 *                                               *
 *  x    -30.000029      0.000000      0.000021  *
 *  y      0.000000    -30.000031      0.000000  *
 *  z      0.000021      0.000000    -29.999943  *
 *                                               *
 *  Pressure:   30.0000                          *
 *                                               *
 *************************************************
  
 +------------+-------------+-------------+-----------------+ <-- min LBFGS
 |    Step    |   lambda    |   F.delta'  |    enthalpy     | <-- min LBFGS
 +------------+-------------+-------------+-----------------+ <-- min LBFGS
 |  previous  |    0.000000 |  7.487E-007 |     -357.938431 | <-- min LBFGS
 | trial step |    1.000000 | -1.779E-007 |     -357.938431 | <-- min LBFGS
 +------------+-------------+-------------+-----------------+ <-- min LBFGS
  
 LBFGS: finished iteration    27 with enthalpy= -3.57938431E+002 eV
  
 +-----------+-----------------+-----------------+------------+-----+ <-- LBFGS
 | Parameter |      value      |    tolerance    |    units   | OK? | <-- LBFGS
 +-----------+-----------------+-----------------+------------+-----+ <-- LBFGS
 |  dE/ion   |   1.353440E-012 |   1.000000E-009 |         eV | Yes | <-- LBFGS
 |  |F|max   |   2.420714E-006 |   1.000000E-004 |       eV/A | Yes | <-- LBFGS
 |  |dR|max  |   2.276587E-006 |   1.000000E-004 |          A | Yes | <-- LBFGS
 |   Smax    |   5.669205E-005 |   1.000000E-004 |        GPa | Yes | <-- LBFGS
 +-----------+-----------------+-----------------+------------+-----+ <-- LBFGS
  
 LBFGS: Geometry optimization completed successfully.

================================================================================
 LBFGS: Final Configuration:
================================================================================

                           -------------------------------
                                      Unit Cell
                           -------------------------------
        Real Lattice(A)              Reciprocal Lattice(1/A)
    10.5123051     0.0000000     0.0019961        0.597486884   0.000000000   1.112623687
     0.0000000     2.1841963     0.0000000        0.000000000   2.876657853   0.000000000
    -7.0096632     0.0000000     3.7642393       -0.000316832   0.000000000   1.668587972

                       Lattice parameters(A)       Cell Angles
                    a =     10.512305          alpha =   90.000000
                    b =      2.184196          beta  =  151.753004
                    c =      7.956436          gamma =   90.000000

                Current cell volume =            86.461024 A**3

                           -------------------------------
                                     Cell Contents
                           -------------------------------

            xxxxxxxxxxxxxxxxxxxxxxxxxxxxxxxxxxxxxxxxxxxxxxxxxxxxxxxxxxxxxxxxx
            x  Element         Atom        Fractional coordinates of atoms  x
            x                 Number           u          v          w      x
            x---------------------------------------------------------------x
            x  H                 1         0.839269   0.638241   0.109457   x
            x  H                 2         0.160731   0.361759   0.890543   x
            x  H                 3         0.839269   0.861759   0.609457   x
            x  H                 4         0.160731   0.138241   0.390543   x
            x  H                 5         0.880096   0.407786   0.220035   x
            x  H                 6         0.119904   0.592214   0.779965   x
            x  H                 7         0.880096   0.092214   0.720035   x
            x  H                 8         0.119904   0.907786   0.279965   x
            x  H                 9         0.856808   0.109795   0.412135   x
            x  H                10         0.143192   0.890205   0.587865   x
            x  H                11         0.856808   0.390205   0.912135   x
            x  H                12         0.143192   0.609795   0.087865   x
            x  H                13         0.752606   0.911681   0.252674   x
            x  H                14         0.247394   0.088319   0.747326   x
            x  H                15         0.752606   0.588319   0.752674   x
            x  H                16         0.247394   0.411681   0.247326   x
            x  H                17         0.571470   0.399275   0.191611   x
            x  H                18         0.428530   0.600725   0.808389   x
            x  H                19         0.571470   0.100725   0.691611   x
            x  H                20         0.428530   0.899275   0.308389   x
            x  H                21         0.482559   0.590910   0.140840   x
            x  H                22         0.517441   0.409090   0.859160   x
            x  H                23         0.482559   0.909090   0.640840   x
            x  H                24         0.517441   0.090910   0.359160   x
            xxxxxxxxxxxxxxxxxxxxxxxxxxxxxxxxxxxxxxxxxxxxxxxxxxxxxxxxxxxxxxxxx


 LBFGS: Final Enthalpy     = -3.57938431E+002 eV
 LBFGS: Final <frequency>  =     701.00629 cm-1
 LBFGS: Final bulk modulus =      86.20006 GPa

 ******************************** Symmetrised Forces ********************************
 *                                                                                  *
 *                           Cartesian components (eV/A)                            *
 * -------------------------------------------------------------------------------- *
 *                         x                    y                    z              *
 *                                                                                  *
 * H               1      0.00000              0.00000             -0.00000         *
 * H               2     -0.00000             -0.00000              0.00000         *
 * H               3      0.00000             -0.00000             -0.00000         *
 * H               4     -0.00000              0.00000              0.00000         *
 * H               5     -0.00000             -0.00000              0.00000         *
 * H               6      0.00000              0.00000             -0.00000         *
 * H               7     -0.00000              0.00000              0.00000         *
 * H               8      0.00000             -0.00000             -0.00000         *
 * H               9      0.00000              0.00000             -0.00000         *
 * H              10     -0.00000             -0.00000              0.00000         *
 * H              11      0.00000             -0.00000             -0.00000         *
 * H              12     -0.00000              0.00000              0.00000         *
 * H              13     -0.00000              0.00000             -0.00000         *
 * H              14      0.00000             -0.00000              0.00000         *
 * H              15     -0.00000             -0.00000             -0.00000         *
 * H              16      0.00000              0.00000              0.00000         *
 * H              17     -0.00000             -0.00000             -0.00000         *
 * H              18      0.00000              0.00000              0.00000         *
 * H              19     -0.00000              0.00000             -0.00000         *
 * H              20      0.00000             -0.00000              0.00000         *
 * H              21      0.00000              0.00000              0.00000         *
 * H              22     -0.00000             -0.00000             -0.00000         *
 * H              23      0.00000             -0.00000              0.00000         *
 * H              24     -0.00000              0.00000             -0.00000         *
 *                                                                                  *
 ************************************************************************************

 *********** Symmetrised Stress Tensor ***********
 *                                               *
 *          Cartesian components (GPa)           *
 * --------------------------------------------- *
 *             x             y             z     *
 *                                               *
 *  x    -30.000029      0.000000      0.000021  *
 *  y      0.000000    -30.000031      0.000000  *
 *  z      0.000021      0.000000    -29.999943  *
 *                                               *
 *  Pressure:   30.0000                          *
 *                                               *
 *************************************************

 Pseudo atomic calculation performed for H 1s1

 Converged in 24 iterations to a total energy of -12.4843 eV

Charge spilling parameter for spin component 1 = 0.77%

            Orbital Populations       
     Ion    Atom   Orbital             Charge
  -------------------------------------------
      H     1      S                    0.987
      H     2      S                    0.987
      H     3      S                    0.987
      H     4      S                    0.987
      H     5      S                    1.012
      H     6      S                    1.012
      H     7      S                    1.013
      H     8      S                    1.013
      H     9      S                    1.009
      H    10      S                    1.009
      H    11      S                    1.010
      H    12      S                    1.010
      H    13      S                    0.991
      H    14      S                    0.991
      H    15      S                    0.991
      H    16      S                    0.991
      H    17      S                    1.001
      H    18      S                    1.001
      H    19      S                    1.001
      H    20      S                    1.001
      H    21      S                    0.999
      H    22      S                    0.999
      H    23      S                    0.999
      H    24      S                    0.999
  -------------------------------------------
                           Total:      24.000
  -------------------------------------------

     Atomic Populations (Mulliken)
     -----------------------------
Species          Ion     s      p      d      f     Total  Charge (e)
=====================================================================
  H               1     0.99   0.00   0.00   0.00   0.99     0.01
  H               2     0.99   0.00   0.00   0.00   0.99     0.01
  H               3     0.99   0.00   0.00   0.00   0.99     0.01
  H               4     0.99   0.00   0.00   0.00   0.99     0.01
  H               5     1.01   0.00   0.00   0.00   1.01    -0.01
  H               6     1.01   0.00   0.00   0.00   1.01    -0.01
  H               7     1.01   0.00   0.00   0.00   1.01    -0.01
  H               8     1.01   0.00   0.00   0.00   1.01    -0.01
  H               9     1.01   0.00   0.00   0.00   1.01    -0.01
  H              10     1.01   0.00   0.00   0.00   1.01    -0.01
  H              11     1.01   0.00   0.00   0.00   1.01    -0.01
  H              12     1.01   0.00   0.00   0.00   1.01    -0.01
  H              13     0.99   0.00   0.00   0.00   0.99     0.01
  H              14     0.99   0.00   0.00   0.00   0.99     0.01
  H              15     0.99   0.00   0.00   0.00   0.99     0.01
  H              16     0.99   0.00   0.00   0.00   0.99     0.01
  H              17     1.00   0.00   0.00   0.00   1.00    -0.00
  H              18     1.00   0.00   0.00   0.00   1.00    -0.00
  H              19     1.00   0.00   0.00   0.00   1.00    -0.00
  H              20     1.00   0.00   0.00   0.00   1.00    -0.00
  H              21     1.00   0.00   0.00   0.00   1.00     0.00
  H              22     1.00   0.00   0.00   0.00   1.00     0.00
  H              23     1.00   0.00   0.00   0.00   1.00     0.00
  H              24     1.00   0.00   0.00   0.00   1.00     0.00
=====================================================================

                 Bond                   Population      Length (A)
======================================================================
              H 2  -- H 6                    1.22        0.73916
              H 3  -- H 7                    1.22        0.73916
              H 4  -- H 8                    1.22        0.73916
              H 1  -- H 5                    1.22        0.73916
              H 17 -- H 21                   1.23        0.73943
              H 19 -- H 23                   1.23        0.73943
              H 20 -- H 24                   1.23        0.73943
              H 18 -- H 22                   1.23        0.73943
              H 12 -- H 16                   1.22        0.74047
              H 9  -- H 13                   1.22        0.74047
              H 10 -- H 14                   1.22        0.74047
              H 11 -- H 15                   1.22        0.74047
              H 5  -- H 10                  -0.11        1.75042
              H 8  -- H 11                  -0.11        1.75042
              H 7  -- H 12                  -0.11        1.75042
              H 6  -- H 9                   -0.11        1.75042
              H 10 -- H 18                  -0.10        1.78976
              H 12 -- H 20                  -0.10        1.78976
              H 11 -- H 19                  -0.10        1.78976
              H 9  -- H 17                  -0.10        1.78976
              H 22 -- H 23                  -0.11        1.79507
              H 21 -- H 24                  -0.11        1.79507
              H 3  -- H 9                   -0.06        1.81723
              H 1  -- H 11                  -0.06        1.81723
              H 2  -- H 12                  -0.06        1.81723
              H 4  -- H 10                  -0.06        1.81723
              H 15 -- H 20                  -0.09        1.82919
              H 14 -- H 17                  -0.09        1.82919
              H 13 -- H 18                  -0.09        1.82919
              H 16 -- H 19                  -0.09        1.82919
              H 16 -- H 20                  -0.10        1.83472
              H 13 -- H 17                  -0.10        1.83472
              H 14 -- H 18                  -0.10        1.83472
              H 15 -- H 19                  -0.10        1.83472
              H 14 -- H 21                  -0.10        1.85954
              H 15 -- H 24                  -0.10        1.85954
              H 16 -- H 23                  -0.10        1.85954
              H 13 -- H 22                  -0.10        1.85954
              H 8  -- H 12                  -0.10        1.86518
              H 5  -- H 9                   -0.10        1.86518
              H 6  -- H 10                  -0.10        1.86518
              H 7  -- H 11                  -0.10        1.86518
              H 5  -- H 22                  -0.05        1.86887
              H 7  -- H 24                  -0.05        1.86887
              H 8  -- H 23                  -0.05        1.86887
              H 6  -- H 21                  -0.05        1.86887
              H 3  -- H 17                  -0.10        1.87322
              H 2  -- H 20                  -0.10        1.87322
              H 4  -- H 18                  -0.10        1.87322
              H 1  -- H 19                  -0.10        1.87322
              H 2  -- H 9                   -0.10        1.89030
              H 4  -- H 11                  -0.10        1.89030
              H 1  -- H 10                  -0.10        1.89030
              H 3  -- H 12                  -0.10        1.89030
              H 8  -- H 16                  -0.10        1.91075
              H 6  -- H 14                  -0.10        1.91075
              H 5  -- H 13                  -0.10        1.91075
              H 7  -- H 15                  -0.10        1.91075
              H 19 -- H 20                  -0.05        1.91738
              H 17 -- H 18                  -0.05        1.91738
              H 4  -- H 22                  -0.09        1.91843
              H 1  -- H 23                  -0.09        1.91843
              H 3  -- H 21                  -0.09        1.91843
              H 2  -- H 24                  -0.09        1.91843
              H 1  -- H 22                  -0.04        1.94729
              H 4  -- H 23                  -0.04        1.94729
              H 3  -- H 24                  -0.04        1.94729
              H 2  -- H 21                  -0.04        1.94729
              H 9  -- H 10                  -0.04        1.95762
              H 11 -- H 12                  -0.04        1.95762
              H 3  -- H 6                   -0.08        1.95934
              H 2  -- H 7                   -0.08        1.95934
              H 1  -- H 8                   -0.08        1.95934
              H 4  -- H 5                   -0.08        1.95934
              H 19 -- H 22                  -0.10        1.97163
              H 17 -- H 24                  -0.10        1.97163
              H 18 -- H 23                  -0.10        1.97163
              H 20 -- H 21                  -0.10        1.97163
              H 2  -- H 3                   -0.09        2.07335
              H 1  -- H 4                   -0.09        2.07335
              H 2  -- H 14                  -0.09        2.07704
              H 4  -- H 16                  -0.09        2.07704
              H 3  -- H 15                  -0.09        2.07704
              H 1  -- H 13                  -0.09        2.07704
              H 3  -- H 13                  -0.05        2.08419
              H 1  -- H 15                  -0.05        2.08419
              H 2  -- H 16                  -0.05        2.08419
              H 4  -- H 14                  -0.05        2.08419
              H 8  -- H 15                  -0.08        2.11108
              H 5  -- H 14                  -0.08        2.11108
              H 6  -- H 13                  -0.08        2.11108
              H 7  -- H 16                  -0.08        2.11108
              H 7  -- H 17                  -0.08        2.14945
              H 6  -- H 20                  -0.08        2.14945
              H 5  -- H 19                  -0.08        2.14945
              H 8  -- H 18                  -0.08        2.14945
              H 18 -- H 21                  -0.04        2.16168
              H 20 -- H 23                  -0.04        2.16168
              H 19 -- H 24                  -0.04        2.16168
              H 17 -- H 22                  -0.04        2.16168
              H 9  -- H 14                  -0.04        2.16357
              H 11 -- H 16                  -0.04        2.16357
              H 12 -- H 15                  -0.04        2.16357
              H 10 -- H 13                  -0.04        2.16357
======================================================================


Writing analysis data to P21c.castep_bin

Writing model to P21c.check
 
 A BibTeX formatted list of references used in this run has been written to 
 P21c.bib
 
Initialisation time =      4.42 s
Calculation time    =  11238.86 s
Finalisation time   =      8.16 s
Total time          =  11251.44 s
Peak Memory Use     = 693584 kB
  
Overall parallel efficiency rating: Excellent (94%)                             
  
Data was distributed by:-
k-point (16-way); efficiency rating: Excellent (94%)                            
