 +-------------------------------------------------+
 |                                                 |
 |      CCC   AA    SSS  TTTTT  EEEEE  PPPP        |
 |     C     A  A  S       T    E      P   P       |
 |     C     AAAA   SS     T    EEE    PPPP        |
 |     C     A  A     S    T    E      P           |
 |      CCC  A  A  SSS     T    EEEEE  P           |
 |                                                 |
 +-------------------------------------------------+
 |                                                 |
 | Welcome to Academic Release CASTEP version 18.1 |          
 | Ab Initio Total Energy Program                  |
 |                                                 |
 | Authors:                                        |
 | M. Segall, M. Probert, C. Pickard, P. Hasnip,   |
 | S. Clark, K. Refson, J. R. Yates, M. Payne      |
 |                                                 |
 | Contributors:                                   |
 | P. Lindan, P. Haynes, J. White, V. Milman,      |
 | N. Govind, M. Gibson, P. Tulip, V. Cocula,      |
 | B. Montanari, D. Quigley, M. Glover,            |
 | L. Bernasconi, A. Perlov, M. Plummer,           |
 | E. McNellis, J. Meyer, J. Gale, D. Jochym       |
 | J. Aarons, B. Walker, R. Gillen, D. Jones       |
 | T. Green, I. J. Bush, C. J. Armstrong,          |
 | E. J. Higgins, E. L. Brown, M. S. McFly,        |
 | J. Wilkins, B-C. Shih, P. J. P. Byrne           |
 |                                                 |
 | Copyright (c) 2000 - 2017                       |
 |                                                 |
 |     Distributed under the terms of an           |
 |     Agreement between the United Kingdom        |
 |     Car-Parrinello (UKCP) Consortium,           |
 |     Daresbury Laboratory and Accelrys, Inc.     |
 |                                                 |
 | Please cite                                     |
 |                                                 |
 |     "First principles methods using CASTEP"     |
 |                                                 |
 |         Zeitschrift fuer Kristallographie       |
 |           220(5-6) pp. 567-570 (2005)           |
 |                                                 |
 | S. J. Clark, M. D. Segall, C. J. Pickard,       |
 | P. J. Hasnip, M. J. Probert, K. Refson,         |
 | M. C. Payne                                     |
 |                                                 |
 |       in all publications arising from          |
 |              your use of CASTEP                 |
 |                                                 |
 +-------------------------------------------------+


 Compiled for linux_x86_64_gfortran4.8 on Thu, 19 Jul 2018 15:42:32 +0100
 from code version 70483bd0ad64+  Sun, 10 Dec 2017 12:18:29 +0000
 Compiler: GNU Fortran 4.8.5; Optimisation: fast
 MATHLIBS: Intel MKL(2018.0.0) (LAPACK version 3.7.0)
 FFT Lib : mkl
 Fundamental constants values: CODATA 2014

 Run started: Thu, 30 Jul 2020 17:20:30 +0100

 Atomic calculation performed for H: 1s1

 Converged in 41 iterations to an ae energy of -12.488 eV

   ============================================================                
   | Pseudopotential Report - Date of generation 30-07-2020   |                
   ------------------------------------------------------------                
   | Element: H Ionic charge:  1.00 Level of theory: PBE      |                
   | Atomic Solver: Koelling-Harmon                           |                
   |                                                          |                
   |               Reference Electronic Structure             |                
   |         Orbital         Occupation         Energy        |                
   |            1s              1.000           -0.239        |                
   |                                                          |                
   |                 Pseudopotential Definition               |                
   |        Beta     l      e      Rc     scheme   norm       |                
   |          1      0   -0.239   0.599     qc      0         |                
   |          2      0    0.250   0.599     qc      0         |                
   |         loc     1    0.000   0.599     pn      0         |                
   |                                                          |                
   | Augmentation charge Rinner = 0.421                       |                
   | No partial core correction                               |                
   ------------------------------------------------------------                
   | "1|0.6|13|15|17|10(qc=8)"                                |                
   ------------------------------------------------------------                
   |      Author: Chris J. Pickard, Cambridge University      |                
   ============================================================                

 Pseudo atomic calculation performed for H 1s1

 Converged in 20 iterations to a total energy of -12.4866 eV

 Calculation parallelised over 15 processes.
 Data is distributed by G-vector(5-way) and k-point(3-way)

 ************************************ Title ************************************
 

 ***************************** General Parameters ******************************
  
 output verbosity                               : normal  (1)
 write checkpoint data to                       : Pbcn.check
 type of calculation                            : geometry optimization
 stress calculation                             : off
 density difference calculation                 : off
 electron localisation func (ELF) calculation   : off
 Hirshfeld analysis                             : off
 unlimited duration calculation
 timing information                             : on
 memory usage estimate                          : on
 write extra output files                       : on
 write final potential to formatted file        : off
 write final density to formatted file          : off
 write structure in CELL formatted file         : on
 write BibTeX reference list                    : on
 write OTFG pseudopotential files               : on
 write electrostatic potential file             : on
 write bands file                               : on
 checkpoint writing                             : both castep_bin and check files
  
 output         length unit                     : A
 output           mass unit                     : amu
 output           time unit                     : ps
 output         charge unit                     : e
 output           spin unit                     : hbar/2
 output         energy unit                     : eV
 output          force unit                     : eV/A
 output       velocity unit                     : A/ps
 output       pressure unit                     : GPa
 output     inv_length unit                     : 1/A
 output      frequency unit                     : cm-1
 output force constant unit                     : eV/A**2
 output         volume unit                     : A**3
 output   IR intensity unit                     : (D/A)**2/amu
 output         dipole unit                     : D
 output         efield unit                     : eV/A/e
 output        entropy unit                     : J/mol/K
  
 wavefunctions paging                           : none
 random number generator seed                   : randomised (172030801)
 data distribution                              : optimal for this architecture
 optimization strategy                          : maximize speed(+++)

 *********************** Exchange-Correlation Parameters ***********************
  
 using functional                               : Perdew Burke Ernzerhof
 relativistic treatment                         : Koelling-Harmon
 DFT+D: Semi-empirical dispersion correction    : off

 ************************* Pseudopotential Parameters **************************
  
 pseudopotential representation                 : reciprocal space
 <beta|phi> representation                      : reciprocal space
 spin-orbit coupling                            : off

 **************************** Basis Set Parameters *****************************
  
 plane wave basis set cut-off                   :  1200.0000   eV
 size of standard grid                          :     2.0000
 size of   fine   gmax                          :    35.4943   1/A
 finite basis set correction                    : automatic
 number of sample energies                      :          3
           sample  spacing                      :     5.0000   eV

 **************************** Electronic Parameters ****************************
  
 number of  electrons                           :  48.00    
 net charge of system                           :  0.000    
 treating system as non-spin-polarized
 number of bands                                :         24

 ********************* Electronic Minimization Parameters **********************
  
 Method: Treating system as non-metallic,
         and number of  SD  steps               :          1
         and number of  CG  steps               :          4
  
 total energy / atom convergence tol.           : 0.1000E-08   eV
 max force / atom convergence tol.              : ignored
 convergence tolerance window                   :          3   cycles
 max. number of SCF cycles                      :        100
 periodic dipole correction                     : NONE

 *********************** Population Analysis Parameters ************************
  
 Population analysis with cutoff                :  3.000       A
 Population analysis output                     : summary and pdos components

 ********************** Geometry Optimization Parameters ***********************
  
 optimization method                            : LBFGS
 max. no. of LBFGS updates                      : unbounded
 variable cell method                           : fixed basis quality
 max. number of steps                           :        100
 estimated bulk modulus                         :  500.0       GPa
 estimated <frequency>                          :  1668.       cm-1
 geom line minimiser                            : on
 with line minimiser tolerance                  :     0.4000
 total energy convergence tolerance             : 0.1000E-08   eV/atom
        max ionic |force| tolerance             : 0.1000E-04   eV/A
 max ionic |displacement| tolerance             : 0.1000E-04   A
   max |stress component| tolerance             : 0.1000E-04   GPa
 convergence tolerance window                   :          2   steps
 backup results every                           :       7000   seconds
 write geom trajectory file                     : on

 *******************************************************************************
  

                           -------------------------------
                                      Unit Cell
                           -------------------------------
        Real Lattice(A)                      Reciprocal Lattice(1/A)
     2.8288592     0.0000000     0.0000000        2.221102164  -0.000000000   0.000000000
     0.0000000     4.9204301     0.0000000       -0.000000000   1.276958555   0.000000000
     0.0000000     0.0000000     5.0502555        0.000000000   0.000000000   1.244132154

                       Lattice parameters(A)       Cell Angles
                    a =      2.828859          alpha =   90.000000
                    b =      4.920430          beta  =   90.000000
                    c =      5.050256          gamma =   90.000000

                       Current cell volume =            70.295537       A**3
                                   density =             0.688253   AMU/A**3
                                           =             1.142871     g/cm^3

                           -------------------------------
                                     Cell Contents
                           -------------------------------
                         Total number of ions in cell =   48
                      Total number of species in cell =    1
                        Max number of any one species =   48

            xxxxxxxxxxxxxxxxxxxxxxxxxxxxxxxxxxxxxxxxxxxxxxxxxxxxxxxxxxxx
            x  Element    Atom        Fractional coordinates of atoms  x
            x            Number           u          v          w      x
            x----------------------------------------------------------x
            x  H            1         0.405637   0.112354   0.010179   x 
            x  H            2         0.582531   0.216660   0.018283   x 
            x  H            3         0.580457   0.556003   0.004408   x 
            x  H            4         0.145135   0.171923   0.249068   x 
            x  H            5         0.315796   0.342496   0.245478   x 
            x  H            6         0.169923   0.486992   0.250546   x 
            x  H            7         0.169923   0.513008   0.750546   x 
            x  H            8         0.315796   0.657504   0.745478   x 
            x  H            9         0.145135   0.828077   0.749068   x 
            x  H           10         0.580457   0.443997   0.504408   x 
            x  H           11         0.582531   0.783340   0.518283   x 
            x  H           12         0.405637   0.887646   0.510179   x 
            x  H           13         0.330077   0.986992   0.250546   x 
            x  H           14         0.184204   0.842496   0.245478   x 
            x  H           15         0.354865   0.671923   0.249068   x 
            x  H           16        -0.080457   0.056003   0.004408   x 
            x  H           17        -0.082531   0.716660   0.018283   x 
            x  H           18         0.094363   0.612354   0.010179   x 
            x  H           19         0.669923   0.986992   0.249454   x 
            x  H           20         0.815796   0.842496   0.254522   x 
            x  H           21         0.645135   0.671923   0.250932   x 
            x  H           22         1.080457   0.056003   0.495592   x 
            x  H           23         1.082531   0.716660   0.481717   x 
            x  H           24         0.905637   0.612354   0.489821   x 
            x  H           25         0.830077   0.513008   0.749454   x 
            x  H           26         0.684204   0.657504   0.754522   x 
            x  H           27         0.854865   0.828077   0.750932   x 
            x  H           28         0.419543   0.443997  -0.004408   x 
            x  H           29         0.417469   0.783340   0.981717   x 
            x  H           30         0.594363   0.887646   0.989821   x 
            x  H           31         0.830077   0.486992   0.249454   x 
            x  H           32         0.684204   0.342496   0.254522   x 
            x  H           33         0.854865   0.171923   0.250932   x 
            x  H           34         0.419543   0.556003   0.495592   x 
            x  H           35         0.417469   0.216660   0.481717   x 
            x  H           36         0.594363   0.112354   0.489821   x 
            x  H           37         0.669923   0.013008   0.749454   x 
            x  H           38         0.815796   0.157504   0.754522   x 
            x  H           39         0.645135   0.328077   0.750932   x 
            x  H           40         0.080457  -0.056003  -0.004408   x 
            x  H           41         1.082531   0.283340   0.981717   x 
            x  H           42         0.905637   0.387646   0.989821   x 
            x  H           43         0.330077   0.013008   0.750546   x 
            x  H           44         0.184204   0.157504   0.745478   x 
            x  H           45         0.354865   0.328077   0.749068   x 
            x  H           46         0.919543  -0.056003   0.504408   x 
            x  H           47        -0.082531   0.283340   0.518283   x 
            x  H           48         0.094363   0.387646   0.510179   x 
            xxxxxxxxxxxxxxxxxxxxxxxxxxxxxxxxxxxxxxxxxxxxxxxxxxxxxxxxxxxx


                         No user defined ionic velocities

                           -------------------------------
                                   Details of Species
                           -------------------------------

                               Mass of species in AMU
                                    H    2.0141018

                          Electric Quadrupole Moment (Barn)
                                    H    0.0028600 Isotope  2

                          Files used for pseudopotentials:
                                    H 1|0.6|13|15|17|10(qc=8)

                           -------------------------------
                              k-Points For BZ Sampling
                           -------------------------------
                       MP grid size for SCF calculation is  5  5  5
                            with an offset of   0.000  0.000  0.000
                       Number of kpoints used =            27

                           -------------------------------
                               Symmetry and Constraints
                           -------------------------------

                      Maximum deviation from symmetry = 0.983299E-14     ANG

                      Number of symmetry operations   =           8
                      Number of ionic constraints     =           3
                      Point group of crystal =     8: D2h, mmm, 2/m 2/m 2/m
                      Space group of crystal =    60: Pbcn, -P 2n 2ab

             Set iprint > 1 for details on symmetry rotations/translations

                         Centre of mass is constrained
             Set iprint > 1 for details of linear ionic constraints

                         Number of cell constraints= 3
                         Cell constraints are:  1 2 3 0 0 0

                         External pressure/stress (GPa)
                        300.00000   0.00000   0.00000
                                  300.00000   0.00000
                                            300.00000
  
+---------------- MEMORY AND SCRATCH DISK ESTIMATES PER PROCESS --------------+
|                                                     Memory          Disk    |
| Baseline code, static data and system overhead      414.0 MB         0.0 MB |
| BLAS internal memory storage                          0.0 MB         0.0 MB |
| Model and support data                               18.0 MB         0.0 MB |
| Electronic energy minimisation requirements          26.2 MB         0.0 MB |
| Force calculation requirements                        2.7 MB         0.0 MB |
|                                               ----------------------------- |
| Approx. total storage required per process          458.2 MB         0.0 MB |
|                                                                             |
| Requirements will fluctuate during execution and may exceed these estimates |
+-----------------------------------------------------------------------------+
Calculating finite basis set correction with  3 cut-off energies.
Calculating total energy with cut-off of 1190.000 eV.
------------------------------------------------------------------------ <-- SCF
SCF loop      Energy                           Energy gain       Timer   <-- SCF
                                               per atom          (sec)   <-- SCF
------------------------------------------------------------------------ <-- SCF
Initial   1.24481877E+003                                         10.66  <-- SCF
      1  -6.35865423E+002                    3.91809207E+001      33.73  <-- SCF
      2  -6.80594866E+002                    9.31863392E-001      57.69  <-- SCF
      3  -6.82795900E+002                    4.58548827E-002      80.74  <-- SCF
      4  -6.82907018E+002                    2.31496061E-003     101.65  <-- SCF
      5  -6.82909630E+002                    5.44174499E-005     123.77  <-- SCF
      6  -6.82909688E+002                    1.21555775E-006     147.95  <-- SCF
      7  -6.82909690E+002                    2.91657008E-008     170.81  <-- SCF
      8  -6.82909690E+002                    7.19359236E-010     192.20  <-- SCF
      9  -6.82909690E+002                    1.94315269E-011     216.14  <-- SCF
------------------------------------------------------------------------ <-- SCF
 
Final energy =  -682.9096898167     eV
(energy not corrected for finite basis set)
 
Calculating total energy with cut-off of 1195.000 eV.
------------------------------------------------------------------------ <-- SCF
SCF loop      Energy                           Energy gain       Timer   <-- SCF
                                               per atom          (sec)   <-- SCF
------------------------------------------------------------------------ <-- SCF
Initial  -6.82909690E+002                                        225.11  <-- SCF
      1  -6.82909783E+002                    1.93160639E-006     250.66  <-- SCF
      2  -6.82909783E+002                    5.47820826E-013     278.33  <-- SCF
      3  -6.82909783E+002                    5.63933203E-014     310.32  <-- SCF
------------------------------------------------------------------------ <-- SCF
 
Final energy =  -682.9097825339     eV
(energy not corrected for finite basis set)
 
Calculating total energy with cut-off of 1200.000 eV.
------------------------------------------------------------------------ <-- SCF
SCF loop      Energy                           Energy gain       Timer   <-- SCF
                                               per atom          (sec)   <-- SCF
------------------------------------------------------------------------ <-- SCF
Initial  -6.82909783E+002                                        318.82  <-- SCF
      1  -6.82909878E+002                    1.98990003E-006     342.44  <-- SCF
      2  -6.82909878E+002                    3.62528488E-013     371.27  <-- SCF
      3  -6.82909878E+002                    2.61826130E-014     397.11  <-- SCF
------------------------------------------------------------------------ <-- SCF
 
Final energy =  -682.9098780491     eV
(energy not corrected for finite basis set)
 
 For future reference: finite basis dEtot/dlog(Ecut) =      -0.022515eV
 Total energy corrected for finite basis set =    -682.909879 eV
 
+---------------- MEMORY AND SCRATCH DISK ESTIMATES PER PROCESS --------------+
|                                                     Memory          Disk    |
| Model and support data                               36.8 MB         0.0 MB |
| Electronic energy minimisation requirements          26.2 MB         0.0 MB |
| Geometry minimisation requirements                   31.2 MB         0.0 MB |
|                                               ----------------------------- |
| Approx. total storage required per process           94.2 MB         0.0 MB |
|                                                                             |
| Requirements will fluctuate during execution and may exceed these estimates |
+-----------------------------------------------------------------------------+
 

 ******************************** Symmetrised Forces ********************************
 *                                                                                  *
 *                           Cartesian components (eV/A)                            *
 * -------------------------------------------------------------------------------- *
 *                         x                    y                    z              *
 *                                                                                  *
 * H               1     -0.02360             -0.02385             -0.00195         *
 * H               2      0.02305              0.02351              0.00191         *
 * H               3      0.02110              0.02519              0.00171         *
 * H               4      0.00097              0.00355              0.00036         *
 * H               5     -0.00207             -0.00284              0.00025         *
 * H               6     -0.00448             -0.00059             -0.00037         *
 * H               7     -0.00448              0.00059             -0.00037         *
 * H               8     -0.00207              0.00284              0.00025         *
 * H               9      0.00097             -0.00355              0.00036         *
 * H              10      0.02110             -0.02519              0.00171         *
 * H              11      0.02305             -0.02351              0.00191         *
 * H              12     -0.02360              0.02385             -0.00195         *
 * H              13      0.00448             -0.00059             -0.00037         *
 * H              14      0.00207             -0.00284              0.00025         *
 * H              15     -0.00097              0.00355              0.00036         *
 * H              16     -0.02110              0.02519              0.00171         *
 * H              17     -0.02305              0.02351              0.00191         *
 * H              18      0.02360             -0.02385             -0.00195         *
 * H              19     -0.00448             -0.00059              0.00037         *
 * H              20     -0.00207             -0.00284             -0.00025         *
 * H              21      0.00097              0.00355             -0.00036         *
 * H              22      0.02110              0.02519             -0.00171         *
 * H              23      0.02305              0.02351             -0.00191         *
 * H              24     -0.02360             -0.02385              0.00195         *
 * H              25      0.00448              0.00059              0.00037         *
 * H              26      0.00207              0.00284             -0.00025         *
 * H              27     -0.00097             -0.00355             -0.00036         *
 * H              28     -0.02110             -0.02519             -0.00171         *
 * H              29     -0.02305             -0.02351             -0.00191         *
 * H              30      0.02360              0.02385              0.00195         *
 * H              31      0.00448             -0.00059              0.00037         *
 * H              32      0.00207             -0.00284             -0.00025         *
 * H              33     -0.00097              0.00355             -0.00036         *
 * H              34     -0.02110              0.02519             -0.00171         *
 * H              35     -0.02305              0.02351             -0.00191         *
 * H              36      0.02360             -0.02385              0.00195         *
 * H              37     -0.00448              0.00059              0.00037         *
 * H              38     -0.00207              0.00284             -0.00025         *
 * H              39      0.00097             -0.00355             -0.00036         *
 * H              40      0.02110             -0.02519             -0.00171         *
 * H              41      0.02305             -0.02351             -0.00191         *
 * H              42     -0.02360              0.02385              0.00195         *
 * H              43      0.00448              0.00059             -0.00037         *
 * H              44      0.00207              0.00284              0.00025         *
 * H              45     -0.00097             -0.00355              0.00036         *
 * H              46     -0.02110             -0.02519              0.00171         *
 * H              47     -0.02305             -0.02351              0.00191         *
 * H              48      0.02360              0.02385             -0.00195         *
 *                                                                                  *
 ************************************************************************************

 *********** Symmetrised Stress Tensor ***********
 *                                               *
 *          Cartesian components (GPa)           *
 * --------------------------------------------- *
 *             x             y             z     *
 *                                               *
 *  x   -298.462821      0.000000      0.000000  *
 *  y      0.000000   -298.507390      0.000000  *
 *  z      0.000000      0.000000   -298.461515  *
 *                                               *
 *  Pressure:  298.4772                          *
 *                                               *
 *************************************************
 LBFGS: finished iteration     0 with enthalpy= -5.51284808E+002 eV
  
 +-----------+-----------------+-----------------+------------+-----+ <-- LBFGS
 | Parameter |      value      |    tolerance    |    units   | OK? | <-- LBFGS
 +-----------+-----------------+-----------------+------------+-----+ <-- LBFGS
 |  dE/ion   |   0.000000E+000 |   1.000000E-009 |         eV | No  | <-- LBFGS
 |  |F|max   |   3.361387E-002 |   1.000000E-005 |       eV/A | No  | <-- LBFGS
 |  |dR|max  |   0.000000E+000 |   1.000000E-005 |          A | No  | <-- LBFGS
 |   Smax    |   1.538485E+000 |   1.000000E-005 |        GPa | No  | <-- LBFGS
 +-----------+-----------------+-----------------+------------+-----+ <-- LBFGS
  

================================================================================
 Starting LBFGS iteration          1 ...
================================================================================
  
 +------------+-------------+-------------+-----------------+ <-- min LBFGS
 |    Step    |   lambda    |   F.delta'  |    enthalpy     | <-- min LBFGS
 +------------+-------------+-------------+-----------------+ <-- min LBFGS
 |  previous  |    0.000000 |    0.042913 |     -551.284808 | <-- min LBFGS
 +------------+-------------+-------------+-----------------+ <-- min LBFGS
  

--------------------------------------------------------------------------------
 LBFGS: starting iteration         1 with trial guess (lambda=  1.000000)
--------------------------------------------------------------------------------

                           -------------------------------
                                      Unit Cell
                           -------------------------------
        Real Lattice(A)              Reciprocal Lattice(1/A)
     2.8259602     0.0000000     0.0000000        2.223380654  -0.000000000   0.000000000
     0.0000000     4.9155339     0.0000000       -0.000000000   1.278230488   0.000000000
     0.0000000     0.0000000     5.0450757        0.000000000   0.000000000   1.245409517

                       Lattice parameters(A)       Cell Angles
                    a =      2.825960          alpha =   90.000000
                    b =      4.915534          beta  =   90.000000
                    c =      5.045076          gamma =   90.000000

                Current cell volume =            70.081668 A**3

                           -------------------------------
                                     Cell Contents
                           -------------------------------

            xxxxxxxxxxxxxxxxxxxxxxxxxxxxxxxxxxxxxxxxxxxxxxxxxxxxxxxxxxxxxxxxx
            x  Element         Atom        Fractional coordinates of atoms  x
            x                 Number           u          v          w      x
            x---------------------------------------------------------------x
            x  H                 1         0.405232   0.112118   0.010160   x
            x  H                 2         0.582927   0.216892   0.018302   x
            x  H                 3         0.580819   0.556252   0.004424   x
            x  H                 4         0.145151   0.171958   0.249071   x
            x  H                 5         0.315761   0.342468   0.245480   x
            x  H                 6         0.169846   0.486987   0.250543   x
            x  H                 7         0.169846   0.513013   0.750543   x
            x  H                 8         0.315761   0.657532   0.745480   x
            x  H                 9         0.145151   0.828042   0.749071   x
            x  H                10         0.580819   0.443748   0.504424   x
            x  H                11         0.582927   0.783108   0.518302   x
            x  H                12         0.405232   0.887882   0.510160   x
            x  H                13         0.330154   0.986987   0.250543   x
            x  H                14         0.184239   0.842468   0.245480   x
            x  H                15         0.354849   0.671958   0.249071   x
            x  H                16        -0.080819   0.056252   0.004424   x
            x  H                17        -0.082927   0.716892   0.018302   x
            x  H                18         0.094768   0.612118   0.010160   x
            x  H                19         0.669846   0.986987   0.249457   x
            x  H                20         0.815761   0.842468   0.254520   x
            x  H                21         0.645151   0.671958   0.250929   x
            x  H                22         1.080819   0.056252   0.495576   x
            x  H                23         1.082927   0.716892   0.481698   x
            x  H                24         0.905232   0.612118   0.489840   x
            x  H                25         0.830154   0.513013   0.749457   x
            x  H                26         0.684239   0.657532   0.754520   x
            x  H                27         0.854849   0.828042   0.750929   x
            x  H                28         0.419181   0.443748  -0.004424   x
            x  H                29         0.417073   0.783108   0.981698   x
            x  H                30         0.594768   0.887882   0.989840   x
            x  H                31         0.830154   0.486987   0.249457   x
            x  H                32         0.684239   0.342468   0.254520   x
            x  H                33         0.854849   0.171958   0.250929   x
            x  H                34         0.419181   0.556252   0.495576   x
            x  H                35         0.417073   0.216892   0.481698   x
            x  H                36         0.594768   0.112118   0.489840   x
            x  H                37         0.669846   0.013013   0.749457   x
            x  H                38         0.815761   0.157532   0.754520   x
            x  H                39         0.645151   0.328042   0.750929   x
            x  H                40         0.080819  -0.056252  -0.004424   x
            x  H                41         1.082927   0.283108   0.981698   x
            x  H                42         0.905232   0.387882   0.989840   x
            x  H                43         0.330154   0.013013   0.750543   x
            x  H                44         0.184239   0.157532   0.745480   x
            x  H                45         0.354849   0.328042   0.749071   x
            x  H                46         0.919181  -0.056252   0.504424   x
            x  H                47        -0.082927   0.283108   0.518302   x
            x  H                48         0.094768   0.387882   0.510160   x
            xxxxxxxxxxxxxxxxxxxxxxxxxxxxxxxxxxxxxxxxxxxxxxxxxxxxxxxxxxxxxxxxx


------------------------------------------------------------------------ <-- SCF
SCF loop      Energy                           Energy gain       Timer   <-- SCF
                                               per atom          (sec)   <-- SCF
------------------------------------------------------------------------ <-- SCF
Initial  -6.82503875E+002                                        421.10  <-- SCF
      1  -6.82509808E+002                    1.23606186E-004     443.27  <-- SCF
      2  -6.82509812E+002                    8.71357481E-008     466.79  <-- SCF
      3  -6.82509812E+002                    1.09996984E-009     487.09  <-- SCF
      4  -6.82509812E+002                    1.02172612E-011     509.01  <-- SCF
      5  -6.82509812E+002                    3.07545000E-012     533.24  <-- SCF
------------------------------------------------------------------------ <-- SCF
 
Final energy =  -682.5098121005     eV
(energy not corrected for finite basis set)
 

 ******************************** Symmetrised Forces ********************************
 *                                                                                  *
 *                           Cartesian components (eV/A)                            *
 * -------------------------------------------------------------------------------- *
 *                         x                    y                    z              *
 *                                                                                  *
 * H               1      0.03717              0.03691              0.00525         *
 * H               2     -0.03936             -0.03968             -0.00151         *
 * H               3     -0.03383             -0.04071             -0.00380         *
 * H               4      0.01085             -0.00017             -0.00044         *
 * H               5      0.00720             -0.00951             -0.00128         *
 * H               6     -0.00652              0.00992             -0.00031         *
 * H               7     -0.00652             -0.00992             -0.00031         *
 * H               8      0.00720              0.00951             -0.00128         *
 * H               9      0.01085              0.00017             -0.00044         *
 * H              10     -0.03383              0.04071             -0.00380         *
 * H              11     -0.03936              0.03968             -0.00151         *
 * H              12      0.03717             -0.03691              0.00525         *
 * H              13      0.00652              0.00992             -0.00031         *
 * H              14     -0.00720             -0.00951             -0.00128         *
 * H              15     -0.01085             -0.00017             -0.00044         *
 * H              16      0.03383             -0.04071             -0.00380         *
 * H              17      0.03936             -0.03968             -0.00151         *
 * H              18     -0.03717              0.03691              0.00525         *
 * H              19     -0.00652              0.00992              0.00031         *
 * H              20      0.00720             -0.00951              0.00128         *
 * H              21      0.01085             -0.00017              0.00044         *
 * H              22     -0.03383             -0.04071              0.00380         *
 * H              23     -0.03936             -0.03968              0.00151         *
 * H              24      0.03717              0.03691             -0.00525         *
 * H              25      0.00652             -0.00992              0.00031         *
 * H              26     -0.00720              0.00951              0.00128         *
 * H              27     -0.01085              0.00017              0.00044         *
 * H              28      0.03383              0.04071              0.00380         *
 * H              29      0.03936              0.03968              0.00151         *
 * H              30     -0.03717             -0.03691             -0.00525         *
 * H              31      0.00652              0.00992              0.00031         *
 * H              32     -0.00720             -0.00951              0.00128         *
 * H              33     -0.01085             -0.00017              0.00044         *
 * H              34      0.03383             -0.04071              0.00380         *
 * H              35      0.03936             -0.03968              0.00151         *
 * H              36     -0.03717              0.03691             -0.00525         *
 * H              37     -0.00652             -0.00992              0.00031         *
 * H              38      0.00720              0.00951              0.00128         *
 * H              39      0.01085              0.00017              0.00044         *
 * H              40     -0.03383              0.04071              0.00380         *
 * H              41     -0.03936              0.03968              0.00151         *
 * H              42      0.03717             -0.03691             -0.00525         *
 * H              43      0.00652             -0.00992             -0.00031         *
 * H              44     -0.00720              0.00951             -0.00128         *
 * H              45     -0.01085              0.00017             -0.00044         *
 * H              46      0.03383              0.04071             -0.00380         *
 * H              47      0.03936              0.03968             -0.00151         *
 * H              48     -0.03717             -0.03691              0.00525         *
 *                                                                                  *
 ************************************************************************************

 *********** Symmetrised Stress Tensor ***********
 *                                               *
 *          Cartesian components (GPa)           *
 * --------------------------------------------- *
 *             x             y             z     *
 *                                               *
 *  x   -300.214639      0.000000      0.000000  *
 *  y      0.000000   -300.163630      0.000000  *
 *  z      0.000000      0.000000   -300.685069  *
 *                                               *
 *  Pressure:  300.3544                          *
 *                                               *
 *************************************************
  
 +------------+-------------+-------------+-----------------+ <-- min LBFGS
 |    Step    |   lambda    |   F.delta'  |    enthalpy     | <-- min LBFGS
 +------------+-------------+-------------+-----------------+ <-- min LBFGS
 |  previous  |    0.000000 |    0.042913 |     -551.284808 | <-- min LBFGS
 | trial step |    1.000000 |   -0.032631 |     -551.285202 | <-- min LBFGS
 +------------+-------------+-------------+-----------------+ <-- min LBFGS
  

--------------------------------------------------------------------------------
 LBFGS: improving iteration         1 with line minimization (lambda=  0.568053)
--------------------------------------------------------------------------------

                           -------------------------------
                                      Unit Cell
                           -------------------------------
        Real Lattice(A)              Reciprocal Lattice(1/A)
     2.8272124     0.0000000     0.0000000        2.222395893  -0.000000000   0.000000000
     0.0000000     4.9176488     0.0000000       -0.000000000   1.277680769   0.000000000
     0.0000000     0.0000000     5.0473131        0.000000000   0.000000000   1.244857442

                       Lattice parameters(A)       Cell Angles
                    a =      2.827212          alpha =   90.000000
                    b =      4.917649          beta  =   90.000000
                    c =      5.047313          gamma =   90.000000

                Current cell volume =            70.173995 A**3

                           -------------------------------
                                     Cell Contents
                           -------------------------------

            xxxxxxxxxxxxxxxxxxxxxxxxxxxxxxxxxxxxxxxxxxxxxxxxxxxxxxxxxxxxxxxxx
            x  Element         Atom        Fractional coordinates of atoms  x
            x                 Number           u          v          w      x
            x---------------------------------------------------------------x
            x  H                 1         0.405407   0.112220   0.010168   x
            x  H                 2         0.582756   0.216792   0.018294   x
            x  H                 3         0.580663   0.556145   0.004417   x
            x  H                 4         0.145144   0.171943   0.249070   x
            x  H                 5         0.315776   0.342480   0.245479   x
            x  H                 6         0.169879   0.486989   0.250544   x
            x  H                 7         0.169879   0.513011   0.750544   x
            x  H                 8         0.315776   0.657520   0.745479   x
            x  H                 9         0.145144   0.828057   0.749070   x
            x  H                10         0.580663   0.443855   0.504417   x
            x  H                11         0.582756   0.783208   0.518294   x
            x  H                12         0.405407   0.887780   0.510168   x
            x  H                13         0.330121   0.986989   0.250544   x
            x  H                14         0.184224   0.842480   0.245479   x
            x  H                15         0.354856   0.671943   0.249070   x
            x  H                16        -0.080663   0.056145   0.004417   x
            x  H                17        -0.082756   0.716792   0.018294   x
            x  H                18         0.094593   0.612220   0.010168   x
            x  H                19         0.669879   0.986989   0.249456   x
            x  H                20         0.815776   0.842480   0.254521   x
            x  H                21         0.645144   0.671943   0.250930   x
            x  H                22         1.080663   0.056145   0.495583   x
            x  H                23         1.082756   0.716792   0.481706   x
            x  H                24         0.905407   0.612220   0.489832   x
            x  H                25         0.830121   0.513011   0.749456   x
            x  H                26         0.684224   0.657520   0.754521   x
            x  H                27         0.854856   0.828057   0.750930   x
            x  H                28         0.419337   0.443855  -0.004417   x
            x  H                29         0.417244   0.783208   0.981706   x
            x  H                30         0.594593   0.887780   0.989832   x
            x  H                31         0.830121   0.486989   0.249456   x
            x  H                32         0.684224   0.342480   0.254521   x
            x  H                33         0.854856   0.171943   0.250930   x
            x  H                34         0.419337   0.556145   0.495583   x
            x  H                35         0.417244   0.216792   0.481706   x
            x  H                36         0.594593   0.112220   0.489832   x
            x  H                37         0.669879   0.013011   0.749456   x
            x  H                38         0.815776   0.157520   0.754521   x
            x  H                39         0.645144   0.328057   0.750930   x
            x  H                40         0.080663  -0.056145  -0.004417   x
            x  H                41         1.082756   0.283208   0.981706   x
            x  H                42         0.905407   0.387780   0.989832   x
            x  H                43         0.330121   0.013011   0.750544   x
            x  H                44         0.184224   0.157520   0.745479   x
            x  H                45         0.354856   0.328057   0.749070   x
            x  H                46         0.919337  -0.056145   0.504417   x
            x  H                47        -0.082756   0.283208   0.518294   x
            x  H                48         0.094593   0.387780   0.510168   x
            xxxxxxxxxxxxxxxxxxxxxxxxxxxxxxxxxxxxxxxxxxxxxxxxxxxxxxxxxxxxxxxxx


------------------------------------------------------------------------ <-- SCF
SCF loop      Energy                           Energy gain       Timer   <-- SCF
                                               per atom          (sec)   <-- SCF
------------------------------------------------------------------------ <-- SCF
Initial  -6.82682115E+002                                        559.18  <-- SCF
      1  -6.82683240E+002                    2.34516133E-005     581.71  <-- SCF
      2  -6.82683241E+002                    1.54987837E-008     605.41  <-- SCF
      3  -6.82683241E+002                    1.65786291E-010     632.42  <-- SCF
      4  -6.82683241E+002                    6.36237496E-012     661.06  <-- SCF
------------------------------------------------------------------------ <-- SCF
 
Final energy =  -682.6832410312     eV
(energy not corrected for finite basis set)
 

 ******************************** Symmetrised Forces ********************************
 *                                                                                  *
 *                           Cartesian components (eV/A)                            *
 * -------------------------------------------------------------------------------- *
 *                         x                    y                    z              *
 *                                                                                  *
 * H               1      0.01109              0.01085              0.00215         *
 * H               2     -0.01257             -0.01257             -0.00005         *
 * H               3     -0.01026             -0.01244             -0.00144         *
 * H               4      0.00658              0.00145             -0.00009         *
 * H               5      0.00318             -0.00663             -0.00062         *
 * H               6     -0.00564              0.00537             -0.00034         *
 * H               7     -0.00564             -0.00537             -0.00034         *
 * H               8      0.00318              0.00663             -0.00062         *
 * H               9      0.00658             -0.00145             -0.00009         *
 * H              10     -0.01026              0.01244             -0.00144         *
 * H              11     -0.01257              0.01257             -0.00005         *
 * H              12      0.01109             -0.01085              0.00215         *
 * H              13      0.00564              0.00537             -0.00034         *
 * H              14     -0.00318             -0.00663             -0.00062         *
 * H              15     -0.00658              0.00145             -0.00009         *
 * H              16      0.01026             -0.01244             -0.00144         *
 * H              17      0.01257             -0.01257             -0.00005         *
 * H              18     -0.01109              0.01085              0.00215         *
 * H              19     -0.00564              0.00537              0.00034         *
 * H              20      0.00318             -0.00663              0.00062         *
 * H              21      0.00658              0.00145              0.00009         *
 * H              22     -0.01026             -0.01244              0.00144         *
 * H              23     -0.01257             -0.01257              0.00005         *
 * H              24      0.01109              0.01085             -0.00215         *
 * H              25      0.00564             -0.00537              0.00034         *
 * H              26     -0.00318              0.00663              0.00062         *
 * H              27     -0.00658             -0.00145              0.00009         *
 * H              28      0.01026              0.01244              0.00144         *
 * H              29      0.01257              0.01257              0.00005         *
 * H              30     -0.01109             -0.01085             -0.00215         *
 * H              31      0.00564              0.00537              0.00034         *
 * H              32     -0.00318             -0.00663              0.00062         *
 * H              33     -0.00658              0.00145              0.00009         *
 * H              34      0.01026             -0.01244              0.00144         *
 * H              35      0.01257             -0.01257              0.00005         *
 * H              36     -0.01109              0.01085             -0.00215         *
 * H              37     -0.00564             -0.00537              0.00034         *
 * H              38      0.00318              0.00663              0.00062         *
 * H              39      0.00658             -0.00145              0.00009         *
 * H              40     -0.01026              0.01244              0.00144         *
 * H              41     -0.01257              0.01257              0.00005         *
 * H              42      0.01109             -0.01085             -0.00215         *
 * H              43      0.00564             -0.00537             -0.00034         *
 * H              44     -0.00318              0.00663             -0.00062         *
 * H              45     -0.00658             -0.00145             -0.00009         *
 * H              46      0.01026              0.01244             -0.00144         *
 * H              47      0.01257              0.01257             -0.00005         *
 * H              48     -0.01109             -0.01085              0.00215         *
 *                                                                                  *
 ************************************************************************************

 *********** Symmetrised Stress Tensor ***********
 *                                               *
 *          Cartesian components (GPa)           *
 * --------------------------------------------- *
 *             x             y             z     *
 *                                               *
 *  x   -299.454785      0.000000      0.000000  *
 *  y      0.000000   -299.444608      0.000000  *
 *  z      0.000000      0.000000   -299.722472  *
 *                                               *
 *  Pressure:  299.5406                          *
 *                                               *
 *************************************************
  
 +------------+-------------+-------------+-----------------+ <-- min LBFGS
 |    Step    |   lambda    |   F.delta'  |    enthalpy     | <-- min LBFGS
 +------------+-------------+-------------+-----------------+ <-- min LBFGS
 |  previous  |    0.000000 |    0.042913 |     -551.284808 | <-- min LBFGS
 | trial step |    1.000000 |   -0.032631 |     -551.285202 | <-- min LBFGS
 |  line step |    0.568053 |   -0.000102 |     -551.285751 | <-- min LBFGS
 +------------+-------------+-------------+-----------------+ <-- min LBFGS
  
 LBFGS: finished iteration     1 with enthalpy= -5.51285751E+002 eV
  
 +-----------+-----------------+-----------------+------------+-----+ <-- LBFGS
 | Parameter |      value      |    tolerance    |    units   | OK? | <-- LBFGS
 +-----------+-----------------+-----------------+------------+-----+ <-- LBFGS
 |  dE/ion   |   1.965796E-005 |   1.000000E-009 |         eV | No  | <-- LBFGS
 |  |F|max   |   1.777871E-002 |   1.000000E-005 |       eV/A | No  | <-- LBFGS
 |  |dR|max  |   9.262712E-004 |   1.000000E-005 |          A | No  | <-- LBFGS
 |   Smax    |   5.553915E-001 |   1.000000E-005 |        GPa | No  | <-- LBFGS
 +-----------+-----------------+-----------------+------------+-----+ <-- LBFGS
  

================================================================================
 Starting LBFGS iteration          2 ...
================================================================================
  
 +------------+-------------+-------------+-----------------+ <-- min LBFGS
 |    Step    |   lambda    |   F.delta'  |    enthalpy     | <-- min LBFGS
 +------------+-------------+-------------+-----------------+ <-- min LBFGS
 |  previous  |    0.000000 |    0.017158 |     -551.285751 | <-- min LBFGS
 +------------+-------------+-------------+-----------------+ <-- min LBFGS
  

--------------------------------------------------------------------------------
 LBFGS: starting iteration         2 with trial guess (lambda=  1.000000)
--------------------------------------------------------------------------------

                           -------------------------------
                                      Unit Cell
                           -------------------------------
        Real Lattice(A)              Reciprocal Lattice(1/A)
     2.8256821     0.0000000     0.0000000        2.223599471  -0.000000000   0.000000000
     0.0000000     4.9149793     0.0000000       -0.000000000   1.278374719   0.000000000
     0.0000000     0.0000000     5.0454785        0.000000000   0.000000000   1.245310101

                       Lattice parameters(A)       Cell Angles
                    a =      2.825682          alpha =   90.000000
                    b =      4.914979          beta  =   90.000000
                    c =      5.045478          gamma =   90.000000

                Current cell volume =            70.072459 A**3

                           -------------------------------
                                     Cell Contents
                           -------------------------------

            xxxxxxxxxxxxxxxxxxxxxxxxxxxxxxxxxxxxxxxxxxxxxxxxxxxxxxxxxxxxxxxxx
            x  Element         Atom        Fractional coordinates of atoms  x
            x                 Number           u          v          w      x
            x---------------------------------------------------------------x
            x  H                 1         0.405527   0.112286   0.010186   x
            x  H                 2         0.582610   0.216709   0.018297   x
            x  H                 3         0.580551   0.556066   0.004406   x
            x  H                 4         0.145260   0.171963   0.249069   x
            x  H                 5         0.315824   0.342410   0.245474   x
            x  H                 6         0.169769   0.487041   0.250540   x
            x  H                 7         0.169769   0.512959   0.750540   x
            x  H                 8         0.315824   0.657590   0.745474   x
            x  H                 9         0.145260   0.828037   0.749069   x
            x  H                10         0.580551   0.443934   0.504406   x
            x  H                11         0.582610   0.783291   0.518297   x
            x  H                12         0.405527   0.887714   0.510186   x
            x  H                13         0.330231   0.987041   0.250540   x
            x  H                14         0.184176   0.842410   0.245474   x
            x  H                15         0.354740   0.671963   0.249069   x
            x  H                16        -0.080551   0.056066   0.004406   x
            x  H                17        -0.082610   0.716709   0.018297   x
            x  H                18         0.094473   0.612286   0.010186   x
            x  H                19         0.669769   0.987041   0.249460   x
            x  H                20         0.815824   0.842410   0.254526   x
            x  H                21         0.645260   0.671963   0.250931   x
            x  H                22         1.080551   0.056066   0.495594   x
            x  H                23         1.082610   0.716709   0.481703   x
            x  H                24         0.905527   0.612286   0.489814   x
            x  H                25         0.830231   0.512959   0.749460   x
            x  H                26         0.684176   0.657590   0.754526   x
            x  H                27         0.854740   0.828037   0.750931   x
            x  H                28         0.419449   0.443934  -0.004406   x
            x  H                29         0.417390   0.783291   0.981703   x
            x  H                30         0.594473   0.887714   0.989814   x
            x  H                31         0.830231   0.487041   0.249460   x
            x  H                32         0.684176   0.342410   0.254526   x
            x  H                33         0.854740   0.171963   0.250931   x
            x  H                34         0.419449   0.556066   0.495594   x
            x  H                35         0.417390   0.216709   0.481703   x
            x  H                36         0.594473   0.112286   0.489814   x
            x  H                37         0.669769   0.012959   0.749460   x
            x  H                38         0.815824   0.157590   0.754526   x
            x  H                39         0.645260   0.328037   0.750931   x
            x  H                40         0.080551  -0.056066  -0.004406   x
            x  H                41         1.082610   0.283291   0.981703   x
            x  H                42         0.905527   0.387714   0.989814   x
            x  H                43         0.330231   0.012959   0.750540   x
            x  H                44         0.184176   0.157590   0.745474   x
            x  H                45         0.354740   0.328037   0.749069   x
            x  H                46         0.919449  -0.056066   0.504406   x
            x  H                47        -0.082610   0.283291   0.518297   x
            x  H                48         0.094473   0.387714   0.510186   x
            xxxxxxxxxxxxxxxxxxxxxxxxxxxxxxxxxxxxxxxxxxxxxxxxxxxxxxxxxxxxxxxxx


------------------------------------------------------------------------ <-- SCF
SCF loop      Energy                           Energy gain       Timer   <-- SCF
                                               per atom          (sec)   <-- SCF
------------------------------------------------------------------------ <-- SCF
Initial  -6.82492121E+002                                        688.12  <-- SCF
      1  -6.82492971E+002                    1.77066968E-005     712.71  <-- SCF
      2  -6.82492972E+002                    2.30137616E-008     735.75  <-- SCF
      3  -6.82492973E+002                    2.25267146E-010     759.02  <-- SCF
      4  -6.82492973E+002                    5.29492997E-012     786.41  <-- SCF
------------------------------------------------------------------------ <-- SCF
 
Final energy =  -682.4929725055     eV
(energy not corrected for finite basis set)
 

 ******************************** Symmetrised Forces ********************************
 *                                                                                  *
 *                           Cartesian components (eV/A)                            *
 * -------------------------------------------------------------------------------- *
 *                         x                    y                    z              *
 *                                                                                  *
 * H               1     -0.01968             -0.02002             -0.00367         *
 * H               2      0.01976              0.01995             -0.00059         *
 * H               3      0.01885              0.02306              0.00182         *
 * H               4      0.00521              0.00042              0.00025         *
 * H               5      0.00201             -0.00414             -0.00010         *
 * H               6     -0.00229              0.00390             -0.00001         *
 * H               7     -0.00229             -0.00390             -0.00001         *
 * H               8      0.00201              0.00414             -0.00010         *
 * H               9      0.00521             -0.00042              0.00025         *
 * H              10      0.01885             -0.02306              0.00182         *
 * H              11      0.01976             -0.01995             -0.00059         *
 * H              12     -0.01968              0.02002             -0.00367         *
 * H              13      0.00229              0.00390             -0.00001         *
 * H              14     -0.00201             -0.00414             -0.00010         *
 * H              15     -0.00521              0.00042              0.00025         *
 * H              16     -0.01885              0.02306              0.00182         *
 * H              17     -0.01976              0.01995             -0.00059         *
 * H              18      0.01968             -0.02002             -0.00367         *
 * H              19     -0.00229              0.00390              0.00001         *
 * H              20      0.00201             -0.00414              0.00010         *
 * H              21      0.00521              0.00042             -0.00025         *
 * H              22      0.01885              0.02306             -0.00182         *
 * H              23      0.01976              0.01995              0.00059         *
 * H              24     -0.01968             -0.02002              0.00367         *
 * H              25      0.00229             -0.00390              0.00001         *
 * H              26     -0.00201              0.00414              0.00010         *
 * H              27     -0.00521             -0.00042             -0.00025         *
 * H              28     -0.01885             -0.02306             -0.00182         *
 * H              29     -0.01976             -0.01995              0.00059         *
 * H              30      0.01968              0.02002              0.00367         *
 * H              31      0.00229              0.00390              0.00001         *
 * H              32     -0.00201             -0.00414              0.00010         *
 * H              33     -0.00521              0.00042             -0.00025         *
 * H              34     -0.01885              0.02306             -0.00182         *
 * H              35     -0.01976              0.01995              0.00059         *
 * H              36      0.01968             -0.02002              0.00367         *
 * H              37     -0.00229             -0.00390              0.00001         *
 * H              38      0.00201              0.00414              0.00010         *
 * H              39      0.00521             -0.00042             -0.00025         *
 * H              40      0.01885             -0.02306             -0.00182         *
 * H              41      0.01976             -0.01995              0.00059         *
 * H              42     -0.01968              0.02002              0.00367         *
 * H              43      0.00229             -0.00390             -0.00001         *
 * H              44     -0.00201              0.00414             -0.00010         *
 * H              45     -0.00521             -0.00042              0.00025         *
 * H              46     -0.01885             -0.02306              0.00182         *
 * H              47     -0.01976             -0.01995             -0.00059         *
 * H              48      0.01968              0.02002             -0.00367         *
 *                                                                                  *
 ************************************************************************************

 *********** Symmetrised Stress Tensor ***********
 *                                               *
 *          Cartesian components (GPa)           *
 * --------------------------------------------- *
 *             x             y             z     *
 *                                               *
 *  x   -300.949416      0.000000      0.000000  *
 *  y      0.000000   -300.960748      0.000000  *
 *  z      0.000000      0.000000   -300.617210  *
 *                                               *
 *  Pressure:  300.8425                          *
 *                                               *
 *************************************************
  
 +------------+-------------+-------------+-----------------+ <-- min LBFGS
 |    Step    |   lambda    |   F.delta'  |    enthalpy     | <-- min LBFGS
 +------------+-------------+-------------+-----------------+ <-- min LBFGS
 |  previous  |    0.000000 |    0.017158 |     -551.285751 | <-- min LBFGS
 | trial step |    1.000000 |   -0.025761 |     -551.285607 | <-- min LBFGS
 +------------+-------------+-------------+-----------------+ <-- min LBFGS
  

--------------------------------------------------------------------------------
 LBFGS: improving iteration         2 with line minimization (lambda=  0.399777)
--------------------------------------------------------------------------------

                           -------------------------------
                                      Unit Cell
                           -------------------------------
        Real Lattice(A)              Reciprocal Lattice(1/A)
     2.8266007     0.0000000     0.0000000        2.222876899  -0.000000000   0.000000000
     0.0000000     4.9165816     0.0000000       -0.000000000   1.277958104   0.000000000
     0.0000000     0.0000000     5.0465797        0.000000000   0.000000000   1.245038365

                       Lattice parameters(A)       Cell Angles
                    a =      2.826601          alpha =   90.000000
                    b =      4.916582          beta  =   90.000000
                    c =      5.046580          gamma =   90.000000

                Current cell volume =            70.133392 A**3

                           -------------------------------
                                     Cell Contents
                           -------------------------------

            xxxxxxxxxxxxxxxxxxxxxxxxxxxxxxxxxxxxxxxxxxxxxxxxxxxxxxxxxxxxxxxxx
            x  Element         Atom        Fractional coordinates of atoms  x
            x                 Number           u          v          w      x
            x---------------------------------------------------------------x
            x  H                 1         0.405455   0.112246   0.010175   x
            x  H                 2         0.582697   0.216759   0.018295   x
            x  H                 3         0.580618   0.556113   0.004413   x
            x  H                 4         0.145190   0.171951   0.249070   x
            x  H                 5         0.315795   0.342452   0.245477   x
            x  H                 6         0.169835   0.487010   0.250543   x
            x  H                 7         0.169835   0.512990   0.750543   x
            x  H                 8         0.315795   0.657548   0.745477   x
            x  H                 9         0.145190   0.828049   0.749070   x
            x  H                10         0.580618   0.443887   0.504413   x
            x  H                11         0.582697   0.783241   0.518295   x
            x  H                12         0.405455   0.887754   0.510175   x
            x  H                13         0.330165   0.987010   0.250543   x
            x  H                14         0.184205   0.842452   0.245477   x
            x  H                15         0.354810   0.671951   0.249070   x
            x  H                16        -0.080618   0.056113   0.004413   x
            x  H                17        -0.082697   0.716759   0.018295   x
            x  H                18         0.094545   0.612246   0.010175   x
            x  H                19         0.669835   0.987010   0.249457   x
            x  H                20         0.815795   0.842452   0.254523   x
            x  H                21         0.645190   0.671951   0.250930   x
            x  H                22         1.080618   0.056113   0.495587   x
            x  H                23         1.082697   0.716759   0.481705   x
            x  H                24         0.905455   0.612246   0.489825   x
            x  H                25         0.830165   0.512990   0.749457   x
            x  H                26         0.684205   0.657548   0.754523   x
            x  H                27         0.854810   0.828049   0.750930   x
            x  H                28         0.419382   0.443887  -0.004413   x
            x  H                29         0.417303   0.783241   0.981705   x
            x  H                30         0.594545   0.887754   0.989825   x
            x  H                31         0.830165   0.487010   0.249457   x
            x  H                32         0.684205   0.342452   0.254523   x
            x  H                33         0.854810   0.171951   0.250930   x
            x  H                34         0.419382   0.556113   0.495587   x
            x  H                35         0.417303   0.216759   0.481705   x
            x  H                36         0.594545   0.112246   0.489825   x
            x  H                37         0.669835   0.012990   0.749457   x
            x  H                38         0.815795   0.157548   0.754523   x
            x  H                39         0.645190   0.328049   0.750930   x
            x  H                40         0.080618  -0.056113  -0.004413   x
            x  H                41         1.082697   0.283241   0.981705   x
            x  H                42         0.905455   0.387754   0.989825   x
            x  H                43         0.330165   0.012990   0.750543   x
            x  H                44         0.184205   0.157548   0.745477   x
            x  H                45         0.354810   0.328049   0.749070   x
            x  H                46         0.919382  -0.056113   0.504413   x
            x  H                47        -0.082697   0.283241   0.518295   x
            x  H                48         0.094545   0.387754   0.510175   x
            xxxxxxxxxxxxxxxxxxxxxxxxxxxxxxxxxxxxxxxxxxxxxxxxxxxxxxxxxxxxxxxxx


------------------------------------------------------------------------ <-- SCF
SCF loop      Energy                           Energy gain       Timer   <-- SCF
                                               per atom          (sec)   <-- SCF
------------------------------------------------------------------------ <-- SCF
Initial  -6.82607007E+002                                        811.80  <-- SCF
      1  -6.82607328E+002                    6.69239974E-006     833.04  <-- SCF
      2  -6.82607329E+002                    8.89522656E-009     853.42  <-- SCF
      3  -6.82607329E+002                    1.29676440E-010     875.16  <-- SCF
      4  -6.82607329E+002                    1.41788920E-012     905.62  <-- SCF
------------------------------------------------------------------------ <-- SCF
 
Final energy =  -682.6073285864     eV
(energy not corrected for finite basis set)
 

 ******************************** Symmetrised Forces ********************************
 *                                                                                  *
 *                           Cartesian components (eV/A)                            *
 * -------------------------------------------------------------------------------- *
 *                         x                    y                    z              *
 *                                                                                  *
 * H               1     -0.00117             -0.00145             -0.00017         *
 * H               2      0.00031              0.00039             -0.00027         *
 * H               3      0.00134              0.00170             -0.00014         *
 * H               4      0.00602              0.00104              0.00004         *
 * H               5      0.00271             -0.00563             -0.00041         *
 * H               6     -0.00430              0.00478             -0.00020         *
 * H               7     -0.00430             -0.00478             -0.00020         *
 * H               8      0.00271              0.00563             -0.00041         *
 * H               9      0.00602             -0.00104              0.00004         *
 * H              10      0.00134             -0.00170             -0.00014         *
 * H              11      0.00031             -0.00039             -0.00027         *
 * H              12     -0.00117              0.00145             -0.00017         *
 * H              13      0.00430              0.00478             -0.00020         *
 * H              14     -0.00271             -0.00563             -0.00041         *
 * H              15     -0.00602              0.00104              0.00004         *
 * H              16     -0.00134              0.00170             -0.00014         *
 * H              17     -0.00031              0.00039             -0.00027         *
 * H              18      0.00117             -0.00145             -0.00017         *
 * H              19     -0.00430              0.00478              0.00020         *
 * H              20      0.00271             -0.00563              0.00041         *
 * H              21      0.00602              0.00104             -0.00004         *
 * H              22      0.00134              0.00170              0.00014         *
 * H              23      0.00031              0.00039              0.00027         *
 * H              24     -0.00117             -0.00145              0.00017         *
 * H              25      0.00430             -0.00478              0.00020         *
 * H              26     -0.00271              0.00563              0.00041         *
 * H              27     -0.00602             -0.00104             -0.00004         *
 * H              28     -0.00134             -0.00170              0.00014         *
 * H              29     -0.00031             -0.00039              0.00027         *
 * H              30      0.00117              0.00145              0.00017         *
 * H              31      0.00430              0.00478              0.00020         *
 * H              32     -0.00271             -0.00563              0.00041         *
 * H              33     -0.00602              0.00104             -0.00004         *
 * H              34     -0.00134              0.00170              0.00014         *
 * H              35     -0.00031              0.00039              0.00027         *
 * H              36      0.00117             -0.00145              0.00017         *
 * H              37     -0.00430             -0.00478              0.00020         *
 * H              38      0.00271              0.00563              0.00041         *
 * H              39      0.00602             -0.00104             -0.00004         *
 * H              40      0.00134             -0.00170              0.00014         *
 * H              41      0.00031             -0.00039              0.00027         *
 * H              42     -0.00117              0.00145              0.00017         *
 * H              43      0.00430             -0.00478             -0.00020         *
 * H              44     -0.00271              0.00563             -0.00041         *
 * H              45     -0.00602             -0.00104              0.00004         *
 * H              46     -0.00134             -0.00170             -0.00014         *
 * H              47     -0.00031             -0.00039             -0.00027         *
 * H              48      0.00117              0.00145             -0.00017         *
 *                                                                                  *
 ************************************************************************************

 *********** Symmetrised Stress Tensor ***********
 *                                               *
 *          Cartesian components (GPa)           *
 * --------------------------------------------- *
 *             x             y             z     *
 *                                               *
 *  x   -300.051338      0.000000      0.000000  *
 *  y      0.000000   -300.049799      0.000000  *
 *  z      0.000000      0.000000   -300.079788  *
 *                                               *
 *  Pressure:  300.0603                          *
 *                                               *
 *************************************************
  
 +------------+-------------+-------------+-----------------+ <-- min LBFGS
[...]
              H 30 -- H 41                   0.02        2.38439
              H 41 -- H 47                   0.04        2.38649
              H 11 -- H 29                   0.04        2.38649
              H 17 -- H 23                   0.04        2.38649
              H 2  -- H 35                   0.04        2.38649
              H 3  -- H 33                   0.04        2.39109
              H 4  -- H 34                   0.04        2.39109
              H 39 -- H 46                   0.04        2.39109
              H 10 -- H 27                   0.04        2.39109
              H 40 -- H 45                   0.04        2.39109
              H 16 -- H 21                   0.04        2.39109
              H 9  -- H 28                   0.04        2.39109
              H 15 -- H 22                   0.04        2.39109
              H 34 -- H 44                   0.01        2.42327
              H 3  -- H 38                   0.01        2.42327
              H 14 -- H 28                   0.01        2.42327
              H 10 -- H 20                   0.01        2.42327
              H 32 -- H 46                   0.01        2.42327
              H 5  -- H 40                   0.01        2.42327
              H 16 -- H 26                   0.01        2.42327
              H 8  -- H 22                   0.01        2.42327
              H 12 -- H 29                   0.04        2.43629
              H 11 -- H 30                   0.04        2.43629
              H 17 -- H 24                   0.04        2.43629
              H 18 -- H 23                   0.04        2.43629
              H 42 -- H 47                   0.04        2.43629
              H 41 -- H 48                   0.04        2.43629
              H 2  -- H 36                   0.04        2.43629
              H 1  -- H 35                   0.04        2.43629
              H 29 -- H 38                  -0.00        2.44358
              H 11 -- H 44                  -0.00        2.44358
              H 5  -- H 17                  -0.00        2.44358
              H 23 -- H 32                  -0.00        2.44358
              H 26 -- H 41                  -0.00        2.44358
              H 8  -- H 47                  -0.00        2.44358
              H 20 -- H 35                  -0.00        2.44358
              H 2  -- H 14                  -0.00        2.44358
              H 18 -- H 43                   0.02        2.45750
              H 24 -- H 37                   0.02        2.45750
              H 6  -- H 12                   0.02        2.45750
              H 30 -- H 31                   0.02        2.45750
              H 1  -- H 7                    0.02        2.45750
              H 25 -- H 36                   0.02        2.45750
              H 13 -- H 48                   0.02        2.45750
              H 19 -- H 42                   0.02        2.45750
              H 23 -- H 45                   0.05        2.46179
              H 17 -- H 39                   0.05        2.46179
              H 11 -- H 33                   0.05        2.46179
              H 4  -- H 29                   0.05        2.46179
              H 15 -- H 41                   0.05        2.46179
              H 2  -- H 27                   0.05        2.46179
              H 21 -- H 47                   0.05        2.46179
              H 9  -- H 35                   0.05        2.46179
              H 25 -- H 46                   0.03        2.46607
              H 10 -- H 37                   0.03        2.46607
              H 28 -- H 43                   0.03        2.46607
              H 16 -- H 31                   0.03        2.46607
              H 7  -- H 40                   0.03        2.46607
              H 6  -- H 22                   0.03        2.46607
              H 3  -- H 19                   0.03        2.46607
              H 13 -- H 34                   0.03        2.46607
              H 42 -- H 48                   0.05        2.48089
              H 12 -- H 30                   0.05        2.48089
              H 18 -- H 24                   0.05        2.48089
              H 1  -- H 36                   0.05        2.48089
              H 27 -- H 42                   0.05        2.48195
              H 9  -- H 48                   0.05        2.48195
              H 21 -- H 36                   0.05        2.48195
              H 1  -- H 15                   0.05        2.48195
              H 30 -- H 39                   0.05        2.48195
              H 12 -- H 45                   0.05        2.48195
              H 24 -- H 33                   0.05        2.48195
              H 4  -- H 18                   0.05        2.48195
              H 20 -- H 32                  -0.08        2.48602
              H 5  -- H 14                  -0.08        2.48602
              H 26 -- H 38                  -0.08        2.48602
              H 8  -- H 44                  -0.08        2.48602
              H 6  -- H 13                  -0.05        2.49956
              H 19 -- H 31                  -0.05        2.49956
              H 7  -- H 43                  -0.05        2.49956
              H 25 -- H 37                  -0.05        2.49956
              H 32 -- H 39                   0.04        2.50897
              H 20 -- H 27                   0.04        2.50897
              H 9  -- H 14                   0.04        2.50897
              H 5  -- H 45                   0.04        2.50897
              H 33 -- H 38                   0.04        2.50897
              H 21 -- H 26                   0.04        2.50897
              H 8  -- H 15                   0.04        2.50897
              H 4  -- H 44                   0.04        2.50897
              H 7  -- H 30                   0.02        2.51011
              H 13 -- H 24                   0.02        2.51011
              H 18 -- H 19                   0.02        2.51011
              H 12 -- H 25                   0.02        2.51011
              H 6  -- H 36                   0.02        2.51011
              H 42 -- H 43                   0.02        2.51011
              H 1  -- H 31                   0.02        2.51011
              H 37 -- H 48                   0.02        2.51011
              H 40 -- H 46                   0.06        2.52123
              H 10 -- H 28                   0.06        2.52123
              H 16 -- H 22                   0.06        2.52123
              H 3  -- H 34                   0.06        2.52123
              H 13 -- H 43                   0.04        2.52697
              H 6  -- H 7                    0.04        2.52697
              H 25 -- H 31                   0.04        2.52697
              H 19 -- H 37                   0.04        2.52697
              H 27 -- H 39                   0.01        2.52811
              H 21 -- H 33                   0.01        2.52811
              H 9  -- H 45                   0.01        2.52811
              H 4  -- H 15                   0.01        2.52811
              H 27 -- H 47                   0.06        2.53413
              H 9  -- H 41                   0.06        2.53413
              H 15 -- H 35                   0.06        2.53413
              H 2  -- H 21                   0.06        2.53413
              H 29 -- H 45                   0.06        2.53413
              H 11 -- H 39                   0.06        2.53413
              H 4  -- H 23                   0.06        2.53413
              H 17 -- H 33                   0.06        2.53413
              H 28 -- H 37                   0.06        2.55550
              H 25 -- H 40                   0.06        2.55550
              H 22 -- H 31                   0.06        2.55550
              H 10 -- H 43                   0.06        2.55550
              H 7  -- H 46                   0.06        2.55550
              H 6  -- H 16                   0.06        2.55550
              H 19 -- H 34                   0.06        2.55550
              H 3  -- H 13                   0.06        2.55550
              H 8  -- H 35                   0.02        2.56003
              H 2  -- H 26                   0.02        2.56003
              H 23 -- H 44                   0.02        2.56003
              H 17 -- H 38                   0.02        2.56003
              H 11 -- H 32                   0.02        2.56003
              H 20 -- H 47                   0.02        2.56003
              H 14 -- H 41                   0.02        2.56003
              H 5  -- H 29                   0.02        2.56003
              H 33 -- H 34                   0.05        2.57028
              H 3  -- H 4                    0.05        2.57028
              H 45 -- H 46                   0.05        2.57028
              H 21 -- H 22                   0.05        2.57028
              H 39 -- H 40                   0.05        2.57028
              H 15 -- H 16                   0.05        2.57028
              H 9  -- H 10                   0.05        2.57028
              H 27 -- H 28                   0.05        2.57028
              H 9  -- H 42                   0.07        2.57336
              H 27 -- H 48                   0.07        2.57336
              H 15 -- H 36                   0.07        2.57336
              H 1  -- H 21                   0.07        2.57336
              H 30 -- H 45                   0.07        2.57336
              H 4  -- H 24                   0.07        2.57336
              H 12 -- H 39                   0.07        2.57336
              H 18 -- H 33                   0.07        2.57336
              H 3  -- H 10                   0.05        2.58362
              H 16 -- H 46                   0.05        2.58362
              H 28 -- H 34                   0.05        2.58362
              H 22 -- H 40                   0.05        2.58362
              H 16 -- H 25                   0.05        2.59967
              H 13 -- H 28                   0.05        2.59967
              H 6  -- H 40                   0.05        2.59967
              H 7  -- H 22                   0.05        2.59967
              H 31 -- H 46                   0.05        2.59967
              H 10 -- H 19                   0.05        2.59967
              H 34 -- H 43                   0.05        2.59967
              H 3  -- H 37                   0.05        2.59967
              H 21 -- H 35                   0.07        2.60475
              H 9  -- H 47                   0.07        2.60475
              H 2  -- H 15                   0.07        2.60475
              H 27 -- H 41                   0.07        2.60475
              H 29 -- H 39                   0.07        2.60475
              H 23 -- H 33                   0.07        2.60475
              H 11 -- H 45                   0.07        2.60475
              H 4  -- H 17                   0.07        2.60475
              H 34 -- H 38                   0.04        2.60789
              H 3  -- H 44                   0.04        2.60789
              H 20 -- H 28                   0.04        2.60789
              H 10 -- H 14                   0.04        2.60789
              H 22 -- H 26                   0.04        2.60789
              H 8  -- H 16                   0.04        2.60789
              H 32 -- H 40                   0.04        2.60789
              H 5  -- H 46                   0.04        2.60789
              H 12 -- H 48                   0.05        2.61000
              H 30 -- H 42                   0.05        2.61000
              H 1  -- H 18                   0.05        2.61000
              H 24 -- H 36                   0.05        2.61000
              H 14 -- H 48                   0.03        2.61539
              H 20 -- H 42                   0.03        2.61539
              H 1  -- H 8                    0.03        2.61539
              H 26 -- H 36                   0.03        2.61539
              H 18 -- H 44                   0.03        2.61539
              H 24 -- H 38                   0.03        2.61539
              H 5  -- H 12                   0.03        2.61539
              H 30 -- H 32                   0.03        2.61539
              H 10 -- H 42                   0.02        2.63186
              H 30 -- H 46                   0.02        2.63186
              H 28 -- H 48                   0.02        2.63186
              H 12 -- H 40                   0.02        2.63186
              H 16 -- H 36                   0.02        2.63186
              H 1  -- H 22                   0.02        2.63186
              H 3  -- H 24                   0.02        2.63186
              H 18 -- H 34                   0.02        2.63186
              H 29 -- H 41                   0.07        2.63362
              H 23 -- H 35                   0.07        2.63362
              H 11 -- H 47                   0.07        2.63362
              H 2  -- H 17                   0.07        2.63362
              H 3  -- H 16                   0.07        2.63822
              H 22 -- H 34                   0.07        2.63822
              H 10 -- H 46                   0.07        2.63822
              H 28 -- H 40                   0.07        2.63822
              H 17 -- H 45                   0.06        2.64994
              H 29 -- H 33                   0.06        2.64994
              H 23 -- H 39                   0.06        2.64994
              H 4  -- H 11                   0.06        2.64994
              H 27 -- H 35                   0.06        2.64994
              H 2  -- H 9                    0.06        2.64994
              H 15 -- H 47                   0.06        2.64994
              H 21 -- H 41                   0.06        2.64994
              H 24 -- H 43                   0.06        2.65569
              H 6  -- H 30                   0.06        2.65569
              H 18 -- H 37                   0.06        2.65569
              H 12 -- H 31                   0.06        2.65569
              H 7  -- H 36                   0.06        2.65569
              H 1  -- H 25                   0.06        2.65569
              H 13 -- H 42                   0.06        2.65569
              H 19 -- H 48                   0.06        2.65569
              H 32 -- H 45                   0.02        2.66549
              H 9  -- H 20                   0.02        2.66549
              H 4  -- H 38                   0.02        2.66549
              H 33 -- H 44                   0.02        2.66549
              H 15 -- H 26                   0.02        2.66549
              H 14 -- H 27                   0.02        2.66549
              H 8  -- H 21                   0.02        2.66549
              H 5  -- H 39                   0.02        2.66549
              H 25 -- H 32                   0.02        2.66754
              H 26 -- H 31                   0.02        2.66754
              H 20 -- H 37                   0.02        2.66754
              H 19 -- H 38                   0.02        2.66754
              H 5  -- H 7                    0.02        2.66754
              H 6  -- H 8                    0.02        2.66754
              H 14 -- H 43                   0.02        2.66754
              H 13 -- H 44                   0.02        2.66754
              H 26 -- H 35                   0.05        2.67648
              H 2  -- H 8                    0.05        2.67648
              H 23 -- H 38                   0.05        2.67648
              H 17 -- H 44                   0.05        2.67648
              H 14 -- H 47                   0.05        2.67648
              H 5  -- H 11                   0.05        2.67648
              H 29 -- H 32                   0.05        2.67648
              H 20 -- H 41                   0.05        2.67648
              H 22 -- H 25                   0.06        2.67977
              H 31 -- H 40                   0.06        2.67977
              H 19 -- H 28                   0.06        2.67977
              H 7  -- H 16                   0.06        2.67977
              H 10 -- H 13                   0.06        2.67977
              H 6  -- H 46                   0.06        2.67977
              H 34 -- H 37                   0.06        2.67977
              H 3  -- H 43                   0.06        2.67977
              H 33 -- H 37                   0.03        2.68669
              H 7  -- H 15                   0.03        2.68669
              H 4  -- H 43                   0.03        2.68669
              H 21 -- H 25                   0.03        2.68669
              H 19 -- H 27                   0.03        2.68669
              H 31 -- H 39                   0.03        2.68669
              H 9  -- H 13                   0.03        2.68669
              H 6  -- H 45                   0.03        2.68669
              H 22 -- H 41                  -0.00        2.69607
              H 16 -- H 47                  -0.00        2.69607
              H 28 -- H 35                  -0.00        2.69607
              H 23 -- H 40                  -0.00        2.69607
              H 29 -- H 34                  -0.00        2.69607
              H 2  -- H 10                  -0.00        2.69607
              H 3  -- H 11                  -0.00        2.69607
              H 17 -- H 46                  -0.00        2.69607
              H 20 -- H 48                   0.06        2.69780
              H 14 -- H 42                   0.06        2.69780
              H 8  -- H 36                   0.06        2.69780
              H 1  -- H 26                   0.06        2.69780
              H 5  -- H 30                   0.06        2.69780
              H 24 -- H 44                   0.06        2.69780
              H 12 -- H 32                   0.06        2.69780
              H 18 -- H 38                   0.06        2.69780
              H 7  -- H 31                   0.03        2.69804
              H 19 -- H 43                   0.03        2.69804
              H 6  -- H 25                   0.03        2.69804
              H 13 -- H 37                   0.03        2.69804
              H 21 -- H 27                   0.03        2.70326
              H 33 -- H 39                   0.03        2.70326
              H 9  -- H 15                   0.03        2.70326
              H 4  -- H 45                   0.03        2.70326
              H 20 -- H 26                   0.02        2.70786
              H 32 -- H 38                   0.02        2.70786
              H 8  -- H 14                   0.02        2.70786
              H 5  -- H 44                   0.02        2.70786
              H 35 -- H 41                   0.02        2.71503
              H 2  -- H 47                   0.02        2.71503
              H 23 -- H 29                   0.02        2.71503
              H 11 -- H 17                   0.02        2.71503
              H 18 -- H 48                  -0.00        2.75437
              H 24 -- H 42                  -0.00        2.75437
              H 30 -- H 36                  -0.00        2.75437
              H 1  -- H 12                  -0.00        2.75437
======================================================================


Writing analysis data to Pbcn.castep_bin

Writing model to Pbcn.check
 
 A BibTeX formatted list of references used in this run has been written to 
 Pbcn.bib
 
Initialisation time =      4.62 s
Calculation time    =   6199.16 s
Finalisation time   =      1.11 s
Total time          =   6204.89 s
Peak Memory Use     = 506624 kB
  
Overall parallel efficiency rating: Poor (48%)                                  
  
Data was distributed by:-
G-vector (5-way); efficiency rating: Mediocre (50%)                             
k-point (3-way); efficiency rating: Excellent (90%)                             
