 +-------------------------------------------------+
 |                                                 |
 |      CCC   AA    SSS  TTTTT  EEEEE  PPPP        |
 |     C     A  A  S       T    E      P   P       |
 |     C     AAAA   SS     T    EEE    PPPP        |
 |     C     A  A     S    T    E      P           |
 |      CCC  A  A  SSS     T    EEEEE  P           |
 |                                                 |
 +-------------------------------------------------+
 |                                                 |
 | Welcome to Academic Release CASTEP version 18.1 |          
 | Ab Initio Total Energy Program                  |
 |                                                 |
 | Authors:                                        |
 | M. Segall, M. Probert, C. Pickard, P. Hasnip,   |
 | S. Clark, K. Refson, J. R. Yates, M. Payne      |
 |                                                 |
 | Contributors:                                   |
 | P. Lindan, P. Haynes, J. White, V. Milman,      |
 | N. Govind, M. Gibson, P. Tulip, V. Cocula,      |
 | B. Montanari, D. Quigley, M. Glover,            |
 | L. Bernasconi, A. Perlov, M. Plummer,           |
 | E. McNellis, J. Meyer, J. Gale, D. Jochym       |
 | J. Aarons, B. Walker, R. Gillen, D. Jones       |
 | T. Green, I. J. Bush, C. J. Armstrong,          |
 | E. J. Higgins, E. L. Brown, M. S. McFly,        |
 | J. Wilkins, B-C. Shih, P. J. P. Byrne           |
 |                                                 |
 | Copyright (c) 2000 - 2017                       |
 |                                                 |
 |     Distributed under the terms of an           |
 |     Agreement between the United Kingdom        |
 |     Car-Parrinello (UKCP) Consortium,           |
 |     Daresbury Laboratory and Accelrys, Inc.     |
 |                                                 |
 | Please cite                                     |
 |                                                 |
 |     "First principles methods using CASTEP"     |
 |                                                 |
 |         Zeitschrift fuer Kristallographie       |
 |           220(5-6) pp. 567-570 (2005)           |
 |                                                 |
 | S. J. Clark, M. D. Segall, C. J. Pickard,       |
 | P. J. Hasnip, M. J. Probert, K. Refson,         |
 | M. C. Payne                                     |
 |                                                 |
 |       in all publications arising from          |
 |              your use of CASTEP                 |
 |                                                 |
 +-------------------------------------------------+


 Compiled for linux_x86_64_gfortran4.8 on Thu, 19 Jul 2018 15:42:32 +0100
 from code version 70483bd0ad64+  Sun, 10 Dec 2017 12:18:29 +0000
 Compiler: GNU Fortran 4.8.5; Optimisation: fast
 MATHLIBS: Intel MKL(2018.0.0) (LAPACK version 3.7.0)
 FFT Lib : mkl
 Fundamental constants values: CODATA 2014

 Run started: Thu, 25 Jun 2020 14:25:46 +0100

 Pseudo atomic calculation performed for O 2s2 2p4

 Converged in 35 iterations to a total energy of -428.6823 eV


 Pseudo atomic calculation performed for Si 3s2 3p2

 Converged in 21 iterations to a total energy of -102.2200 eV

 Calculation parallelised over 4 processes.
 Data is distributed by k-point(4-way)

 ************************************ Title ************************************
 

 ***************************** General Parameters ******************************
  
 output verbosity                               : normal  (1)
 write checkpoint data to                       : quartz-geom.check
 type of calculation                            : geometry optimization
 stress calculation                             : on
 density difference calculation                 : off
 electron localisation func (ELF) calculation   : off
 Hirshfeld analysis                             : off
 unlimited duration calculation
 timing information                             : on
 memory usage estimate                          : on
 write extra output files                       : on
 write final potential to formatted file        : off
 write final density to formatted file          : off
 write BibTeX reference list                    : on
 write OTFG pseudopotential files               : on
 write electrostatic potential file             : on
 write bands file                               : on
 checkpoint writing                             : both castep_bin and check files
  
 output         length unit                     : A
 output           mass unit                     : amu
 output           time unit                     : ps
 output         charge unit                     : e
 output           spin unit                     : hbar/2
 output         energy unit                     : eV
 output          force unit                     : eV/A
 output       velocity unit                     : A/ps
 output       pressure unit                     : GPa
 output     inv_length unit                     : 1/A
 output      frequency unit                     : cm-1
 output force constant unit                     : eV/A**2
 output         volume unit                     : A**3
 output   IR intensity unit                     : (D/A)**2/amu
 output         dipole unit                     : D
 output         efield unit                     : eV/A/e
 output        entropy unit                     : J/mol/K
  
 wavefunctions paging                           : none
 random number generator seed                   : randomised (142546800)
 data distribution                              : optimal for this architecture
 optimization strategy                          : maximize speed(+++)

 *********************** Exchange-Correlation Parameters ***********************
  
 using functional                               : Local Density Approximation
 relativistic treatment                         : Koelling-Harmon
 DFT+D: Semi-empirical dispersion correction    : off

 ************************* Pseudopotential Parameters **************************
  
 pseudopotential representation                 : reciprocal space
 <beta|phi> representation                      : reciprocal space
 spin-orbit coupling                            : off

 **************************** Basis Set Parameters *****************************
  
 plane wave basis set cut-off                   :   400.0000   eV
 size of standard grid                          :     1.7500
 size of   fine   gmax                          :    17.9311   1/A
 finite basis set correction                    : automatic
 number of sample energies                      :          3
           sample  spacing                      :     5.0000   eV

 **************************** Electronic Parameters ****************************
  
 number of  electrons                           :  48.00    
 net charge of system                           :  0.000    
 treating system as non-spin-polarized
 number of bands                                :         24

 ********************* Electronic Minimization Parameters **********************
  
 Method: Treating system as non-metallic,
         and number of  SD  steps               :          1
         and number of  CG  steps               :          4
  
 total energy / atom convergence tol.           : 0.1000E-07   eV
 eigen-energy convergence tolerance             : 0.3750E-08   eV
 max force / atom convergence tol.              : ignored
 convergence tolerance window                   :          3   cycles
 max. number of SCF cycles                      :         30
 periodic dipole correction                     : NONE

 ************************** Density Mixing Parameters **************************
  
 density-mixing scheme                          : Pulay
 max. length of mixing history                  :         20
 charge density mixing amplitude                : 0.6000    
 cut-off energy for mixing                      :  400.0       eV

 *********************** Population Analysis Parameters ************************
  
 Population analysis with cutoff                :  3.000       A
 Population analysis output                     : summary and pdos components

 ********************** Geometry Optimization Parameters ***********************
  
 optimization method                            : LBFGS
 max. no. of LBFGS updates                      : unbounded
 variable cell method                           : fixed basis quality
 max. number of steps                           :         30
 estimated bulk modulus                         :  500.0       GPa
 estimated <frequency>                          :  1668.       cm-1
 geom line minimiser                            : on
 with line minimiser tolerance                  :     0.4000
 total energy convergence tolerance             : 0.2000E-04   eV/atom
        max ionic |force| tolerance             : 0.5000E-01   eV/A
 max ionic |displacement| tolerance             : 0.1000E-02   A
   max |stress component| tolerance             : 0.1000       GPa
 convergence tolerance window                   :          2   steps
 backup results every                           :          5   steps
 write geom trajectory file                     : on

 *******************************************************************************
  

                           -------------------------------
                                      Unit Cell
                           -------------------------------
        Real Lattice(A)                      Reciprocal Lattice(1/A)
     2.4579000    -4.2572077     0.0000000        1.278161298  -0.737946769   0.000000000
     2.4579000     4.2572077     0.0000000        1.278161298   0.737946769   0.000000000
     0.0000000     0.0000000     5.4091000        0.000000000   0.000000000   1.161595331

                       Lattice parameters(A)       Cell Angles
                    a =      4.915800          alpha =   90.000000
                    b =      4.915800          beta  =   90.000000
                    c =      5.409100          gamma =  120.000000

                       Current cell volume =           113.199381       A**3
                                   density =             1.592349   AMU/A**3
                                           =             2.644157     g/cm^3

                           -------------------------------
                                     Cell Contents
                           -------------------------------
                         Total number of ions in cell =    9
                      Total number of species in cell =    2
                        Max number of any one species =    6

            xxxxxxxxxxxxxxxxxxxxxxxxxxxxxxxxxxxxxxxxxxxxxxxxxxxxxxxxxxxx
            x  Element    Atom        Fractional coordinates of atoms  x
            x            Number           u          v          w      x
            x----------------------------------------------------------x
            x  O            1         0.146200   0.414200   0.881000   x 
            x  O            2         0.732000   0.585800   0.785670   x 
            x  O            3         0.585800   0.732000   0.214330   x 
            x  O            4         0.268000   0.853800   0.547670   x 
            x  O            5         0.414200   0.146200   0.119000   x 
            x  O            6         0.853800   0.268000   0.452330   x 
            x  Si           1         0.530300   0.000000   0.333300   x 
            x  Si           2         0.000000   0.530300   0.666630   x 
            x  Si           3         0.469700   0.469700   0.999970   x 
            xxxxxxxxxxxxxxxxxxxxxxxxxxxxxxxxxxxxxxxxxxxxxxxxxxxxxxxxxxxx


                         No user defined ionic velocities

                           -------------------------------
                                   Details of Species
                           -------------------------------

                               Mass of species in AMU
                                    O   15.9994000
                                    Si   28.0855000

                          Electric Quadrupole Moment (Barn)
                                    O   -0.0255800 Isotope 17
                                    Si    1.0000000 No Isotope Defined

                          Files used for pseudopotentials:
                                    O O_00.usp
                                    Si Si_00.usp

                           -------------------------------
                              k-Points For BZ Sampling
                           -------------------------------
                       MP grid size for SCF calculation is  3  3  2
                            with an offset of   0.000  0.000  0.000
                       Number of kpoints used =             4

                           -------------------------------
                               Symmetry and Constraints
                           -------------------------------

                      Maximum deviation from symmetry = 0.396667E-03     ANG

 !-----------------------------------------------------------------------------!
 !                                                                             !
 !                     * * *      W A R N I N G     * * *                      !
 !                                                                             !
 !   Atomic positions are slightly inconsistent with symmetry operations,      !
 !   (although the discrepancy is lower than value of SYMMETRY_TOL).           !
  !   In severe cases this could lead to seriously inaccurate results.         !
 !                                                                             !
 !   It is recommended that symmetries are satisfied to a tolerance of 1e-8au  !
 !   or better. Consider one or more of the following:                         !
 !     - Adjust input so that atomic positions and symmetry are consistent.    !
 !     - Use SNAP_TO_SYMMETRY keyword in the cell file to adjust co-ordinates. !
 !     - Reduce the value of SYMMETRY_TOL in the cell file.                    !
 !     - Remove incorrect symmetry operations from .cell file.                 !
 !                                                                             !
 !-----------------------------------------------------------------------------!


                      Number of symmetry operations   =           6
                      Number of ionic constraints     =           3
                      Point group of crystal =    19: D3, 32, 3 2
                      Space group of crystal =   152: P3_121, P 31 2"

             Set iprint > 1 for details on symmetry rotations/translations

                         Centre of mass is constrained
             Set iprint > 1 for details of linear ionic constraints

                         Number of cell constraints= 4
                         Cell constraints are:  1 1 3 0 0 0

                         External pressure/stress (GPa)
                          0.00000   0.00000   0.00000
                                    0.00000   0.00000
                                              0.00000
  
+---------------- MEMORY AND SCRATCH DISK ESTIMATES PER PROCESS --------------+
|                                                     Memory          Disk    |
| Baseline code, static data and system overhead      382.0 MB         0.0 MB |
| BLAS internal memory storage                          0.0 MB         0.0 MB |
| Model and support data                               31.1 MB         0.0 MB |
| Electronic energy minimisation requirements          11.4 MB         0.0 MB |
| Force calculation requirements                        3.3 MB         0.0 MB |
| Stress calculation requirements                       4.2 MB         0.0 MB |
|                                               ----------------------------- |
| Approx. total storage required per process          424.4 MB         0.0 MB |
|                                                                             |
| Requirements will fluctuate during execution and may exceed these estimates |
+-----------------------------------------------------------------------------+
Calculating finite basis set correction with  3 cut-off energies.
Calculating total energy with cut-off of  390.000 eV.
------------------------------------------------------------------------ <-- SCF
SCF loop      Energy                           Energy gain       Timer   <-- SCF
                                               per atom          (sec)   <-- SCF
------------------------------------------------------------------------ <-- SCF
Initial  -2.28769652E+003                                          1.93  <-- SCF
      1  -2.83100697E+003                    6.03678274E+001       2.44  <-- SCF
      2  -2.96604494E+003                    1.50042187E+001       2.77  <-- SCF
      3  -2.96826277E+003                    2.46425940E-001       3.07  <-- SCF
      4  -2.95960703E+003                   -9.61748624E-001       3.64  <-- SCF
      5  -2.95884258E+003                   -8.49393421E-002       4.18  <-- SCF
      6  -2.95879146E+003                   -5.68037453E-003       4.75  <-- SCF
      7  -2.95879359E+003                    2.36597946E-004       5.44  <-- SCF
      8  -2.95879403E+003                    4.94488897E-005       5.98  <-- SCF
      9  -2.95879404E+003                    1.10145942E-006       6.52  <-- SCF
     10  -2.95879404E+003                    7.31993891E-008       7.05  <-- SCF
     11  -2.95879404E+003                    5.23454615E-009       7.45  <-- SCF
     12  -2.95879404E+003                    4.31210181E-010       7.85  <-- SCF
------------------------------------------------------------------------ <-- SCF
 
Final energy =  -2958.794040692     eV
(energy not corrected for finite basis set)
 
Calculating total energy with cut-off of  395.000 eV.
------------------------------------------------------------------------ <-- SCF
SCF loop      Energy                           Energy gain       Timer   <-- SCF
                                               per atom          (sec)   <-- SCF
------------------------------------------------------------------------ <-- SCF
Initial  -2.95879463E+003                                          8.26  <-- SCF
      1  -2.95879752E+003                    3.21536831E-004       8.63  <-- SCF
      2  -2.95879752E+003                    2.26449279E-007       9.20  <-- SCF
      3  -2.95879752E+003                    2.74682518E-008       9.59  <-- SCF
      4  -2.95879753E+003                    1.24084472E-006       9.98  <-- SCF
      5  -2.95879752E+003                   -1.22269389E-006      10.37  <-- SCF
      6  -2.95879752E+003                   -3.18707118E-009      10.77  <-- SCF
      7  -2.95879753E+003                    1.22624592E-006      11.17  <-- SCF
      8  -2.95879752E+003                   -1.22611951E-006      11.56  <-- SCF
      9  -2.95879752E+003                   -1.18458197E-010      11.94  <-- SCF
     10  -2.95879753E+003                    1.22619449E-006      12.32  <-- SCF
     11  -2.95879752E+003                   -1.22617296E-006      12.70  <-- SCF
     12  -2.95879752E+003                   -5.07002803E-012      13.08  <-- SCF
     13  -2.95879752E+003                    9.58149366E-012      13.46  <-- SCF
------------------------------------------------------------------------ <-- SCF
 
Final energy =  -2958.797523497     eV
(energy not corrected for finite basis set)
 
Calculating total energy with cut-off of  400.000 eV.
------------------------------------------------------------------------ <-- SCF
SCF loop      Energy                           Energy gain       Timer   <-- SCF
                                               per atom          (sec)   <-- SCF
------------------------------------------------------------------------ <-- SCF
Initial  -2.95879811E+003                                         13.87  <-- SCF
      1  -2.95879969E+003                    1.75347235E-004      14.18  <-- SCF
      2  -2.95879969E+003                    1.20853700E-007      14.71  <-- SCF
      3  -2.95879970E+003                    1.24341698E-006      15.05  <-- SCF
      4  -2.95879970E+003                    7.45259748E-009      15.41  <-- SCF
      5  -2.95879970E+003                    1.49411148E-009      15.75  <-- SCF
------------------------------------------------------------------------ <-- SCF
 
Final energy =  -2958.799700672     eV
(energy not corrected for finite basis set)
 
 For future reference: finite basis dEtot/dlog(Ecut) =      -0.212673eV
 Total energy corrected for finite basis set =   -2958.799727 eV
 
+---------------- MEMORY AND SCRATCH DISK ESTIMATES PER PROCESS --------------+
|                                                     Memory          Disk    |
| Model and support data                               40.7 MB         0.0 MB |
| Electronic energy minimisation requirements          11.4 MB         0.0 MB |
| Geometry minimisation requirements                   12.6 MB         0.0 MB |
|                                               ----------------------------- |
| Approx. total storage required per process           64.7 MB         0.0 MB |
|                                                                             |
| Requirements will fluctuate during execution and may exceed these estimates |
+-----------------------------------------------------------------------------+
 

 ******************************** Symmetrised Forces ********************************
 *                                                                                  *
 *                           Cartesian components (eV/A)                            *
 * -------------------------------------------------------------------------------- *
 *                         x                    y                    z              *
 *                                                                                  *
 * O               1      0.31114             -0.02348             -0.18603         *
 * O               2     -0.13523             -0.28119              0.18603         *
 * O               3     -0.13523              0.28119             -0.18603         *
 * O               4     -0.17591             -0.25771             -0.18603         *
 * O               5      0.31114              0.02348              0.18603         *
 * O               6     -0.17591              0.25771              0.18603         *
 * Si              1      0.01251             -0.02166              0.00000         *
 * Si              2      0.01251              0.02166              0.00000         *
 * Si              3     -0.02501              0.00000             -0.00000         *
 *                                                                                  *
 ************************************************************************************

 *********** Symmetrised Stress Tensor ***********
 *                                               *
 *          Cartesian components (GPa)           *
 * --------------------------------------------- *
 *             x             y             z     *
 *                                               *
 *  x      5.909324      0.000000      0.000000  *
 *  y      0.000000      5.909324      0.000000  *
 *  z      0.000000      0.000000      6.057615  *
 *                                               *
 *  Pressure:   -5.9588                          *
 *                                               *
 *************************************************
 LBFGS: finished iteration     0 with enthalpy= -2.95879973E+003 eV
  
 +-----------+-----------------+-----------------+------------+-----+ <-- LBFGS
 | Parameter |      value      |    tolerance    |    units   | OK? | <-- LBFGS
 +-----------+-----------------+-----------------+------------+-----+ <-- LBFGS
 |  dE/ion   |   0.000000E+000 |   2.000000E-005 |         eV | No  | <-- LBFGS
 |  |F|max   |   3.632662E-001 |   5.000000E-002 |       eV/A | No  | <-- LBFGS
 |  |dR|max  |   0.000000E+000 |   1.000000E-003 |          A | No  | <-- LBFGS
 |   Smax    |   6.057615E+000 |   1.000000E-001 |        GPa | No  | <-- LBFGS
 +-----------+-----------------+-----------------+------------+-----+ <-- LBFGS
  

================================================================================
 Starting LBFGS iteration          1 ...
================================================================================
  
 +------------+-------------+-------------+-----------------+ <-- min LBFGS
 |    Step    |   lambda    |   F.delta'  |    enthalpy     | <-- min LBFGS
 +------------+-------------+-------------+-----------------+ <-- min LBFGS
 |  previous  |    0.000000 |    0.285864 |    -2958.799727 | <-- min LBFGS
 +------------+-------------+-------------+-----------------+ <-- min LBFGS
  

--------------------------------------------------------------------------------
 LBFGS: starting iteration         1 with trial guess (lambda=  1.000000)
--------------------------------------------------------------------------------

                           -------------------------------
                                      Unit Cell
                           -------------------------------
        Real Lattice(A)              Reciprocal Lattice(1/A)
     2.4482170    -4.2404362     0.0000000        1.283216592  -0.740865445   0.000000000
     2.4482170     4.2404362     0.0000000        1.283216592   0.740865445   0.000000000
     0.0000000     0.0000000     5.3872558        0.000000000   0.000000000   1.166305351

                       Lattice parameters(A)       Cell Angles
                    a =      4.896434          alpha =   90.000000
                    b =      4.896434          beta  =   90.000000
                    c =      5.387256          gamma =  120.000000

                Current cell volume =           111.855678 A**3

                           -------------------------------
                                     Cell Contents
                           -------------------------------

            xxxxxxxxxxxxxxxxxxxxxxxxxxxxxxxxxxxxxxxxxxxxxxxxxxxxxxxxxxxxxxxxx
            x  Element         Atom        Fractional coordinates of atoms  x
            x                 Number           u          v          w      x
            x---------------------------------------------------------------x
            x  O                 1         0.146522   0.414495   0.880832   x
            x  O                 2         0.732027   0.585505   0.785838   x
            x  O                 3         0.585505   0.732027   0.214162   x
            x  O                 4         0.267973   0.853478   0.547502   x
            x  O                 5         0.414495   0.146522   0.119168   x
            x  O                 6         0.853478   0.267973   0.452498   x
            x  Si                1         0.530325   0.000000   0.333300   x
            x  Si                2         0.000000   0.530325   0.666630   x
            x  Si                3         0.469675   0.469675   0.999970   x
            xxxxxxxxxxxxxxxxxxxxxxxxxxxxxxxxxxxxxxxxxxxxxxxxxxxxxxxxxxxxxxxxx


------------------------------------------------------------------------ <-- SCF
SCF loop      Energy                           Energy gain       Timer   <-- SCF
                                               per atom          (sec)   <-- SCF
------------------------------------------------------------------------ <-- SCF
Initial  -2.95874977E+003                                         18.62  <-- SCF
      1  -2.95895150E+003                    2.24145746E-002      18.97  <-- SCF
      2  -2.95895290E+003                    1.55816904E-004      19.47  <-- SCF
      3  -2.95885490E+003                   -1.08898882E-002      19.93  <-- SCF
      4  -2.95884373E+003                   -1.24034068E-003      20.38  <-- SCF
      5  -2.95884365E+003                   -8.58590480E-006      20.88  <-- SCF
      6  -2.95884365E+003                   -6.94519122E-007      21.38  <-- SCF
      7  -2.95884365E+003                    4.52960171E-008      21.85  <-- SCF
      8  -2.95884366E+003                    1.21994026E-006      22.20  <-- SCF
      9  -2.95884366E+003                    1.91672839E-009      22.56  <-- SCF
     10  -2.95884366E+003                    2.54919291E-010      22.93  <-- SCF
------------------------------------------------------------------------ <-- SCF
 
Final energy =  -2958.843659836     eV
(energy not corrected for finite basis set)
 

 ******************************** Symmetrised Forces ********************************
 *                                                                                  *
 *                           Cartesian components (eV/A)                            *
 * -------------------------------------------------------------------------------- *
 *                         x                    y                    z              *
 *                                                                                  *
 * O               1      0.18830             -0.01669             -0.12078         *
 * O               2     -0.07970             -0.17142              0.12078         *
 * O               3     -0.07970              0.17142             -0.12078         *
 * O               4     -0.10860             -0.15473             -0.12078         *
 * O               5      0.18830              0.01669              0.12078         *
 * O               6     -0.10860              0.15473              0.12078         *
 * Si              1      0.01123             -0.01945              0.00000         *
 * Si              2      0.01123              0.01945              0.00000         *
 * Si              3     -0.02246              0.00000              0.00000         *
 *                                                                                  *
 ************************************************************************************

 *********** Symmetrised Stress Tensor ***********
 *                                               *
 *          Cartesian components (GPa)           *
 * --------------------------------------------- *
 *             x             y             z     *
 *                                               *
 *  x      3.616741      0.000000      0.000000  *
 *  y      0.000000      3.616741      0.000000  *
 *  z      0.000000      0.000000      3.730672  *
 *                                               *
 *  Pressure:   -3.6547                          *
 *                                               *
 *************************************************
  
 +------------+-------------+-------------+-----------------+ <-- min LBFGS
 |    Step    |   lambda    |   F.delta'  |    enthalpy     | <-- min LBFGS
 +------------+-------------+-------------+-----------------+ <-- min LBFGS
 |  previous  |    0.000000 |    0.285864 |    -2958.799727 | <-- min LBFGS
 | trial step |    1.000000 |    0.174088 |    -2958.843473 | <-- min LBFGS
 +------------+-------------+-------------+-----------------+ <-- min LBFGS
  

--------------------------------------------------------------------------------
 LBFGS: improving iteration         1 with line minimization (lambda=  2.557485)
--------------------------------------------------------------------------------

                           -------------------------------
                                      Unit Cell
                           -------------------------------
        Real Lattice(A)              Reciprocal Lattice(1/A)
     2.4331358    -4.2143149     0.0000000        1.291170275  -0.745457506   0.000000000
     2.4331358     4.2143149     0.0000000        1.291170275   0.745457506   0.000000000
     0.0000000     0.0000000     5.3532339        0.000000000   0.000000000   1.173717692

                       Lattice parameters(A)       Cell Angles
                    a =      4.866272          alpha =   90.000000
                    b =      4.866272          beta  =   90.000000
                    c =      5.353234          gamma =  120.000000

                Current cell volume =           109.784126 A**3

                           -------------------------------
                                     Cell Contents
                           -------------------------------

            xxxxxxxxxxxxxxxxxxxxxxxxxxxxxxxxxxxxxxxxxxxxxxxxxxxxxxxxxxxxxxxxx
            x  Element         Atom        Fractional coordinates of atoms  x
            x                 Number           u          v          w      x
            x---------------------------------------------------------------x
            x  O                 1         0.147025   0.414956   0.880571   x
            x  O                 2         0.732069   0.585044   0.786099   x
            x  O                 3         0.585044   0.732069   0.213901   x
            x  O                 4         0.267931   0.852975   0.547241   x
            x  O                 5         0.414956   0.147025   0.119429   x
            x  O                 6         0.852975   0.267931   0.452759   x
            x  Si                1         0.530364   0.000000   0.333300   x
            x  Si                2         0.000000   0.530364   0.666630   x
            x  Si                3         0.469636   0.469636   0.999970   x
            xxxxxxxxxxxxxxxxxxxxxxxxxxxxxxxxxxxxxxxxxxxxxxxxxxxxxxxxxxxxxxxxx


------------------------------------------------------------------------ <-- SCF
SCF loop      Energy                           Energy gain       Timer   <-- SCF
                                               per atom          (sec)   <-- SCF
------------------------------------------------------------------------ <-- SCF
Initial  -2.95863843E+003                                         25.86  <-- SCF
      1  -2.95912895E+003                    5.45019212E-002      26.17  <-- SCF
      2  -2.95913229E+003                    3.71418772E-004      26.65  <-- SCF
      3  -2.95889391E+003                   -2.64866454E-002      27.14  <-- SCF
      4  -2.95886826E+003                   -2.85006627E-003      27.66  <-- SCF
      5  -2.95886810E+003                   -1.82885597E-005      28.16  <-- SCF
      6  -2.95886808E+003                   -1.59996026E-006      28.66  <-- SCF
      7  -2.95886808E+003                    9.88052219E-008      29.23  <-- SCF
      8  -2.95886808E+003                    1.41953910E-008      29.59  <-- SCF
      9  -2.95886808E+003                    2.41530980E-009      29.93  <-- SCF
     10  -2.95886808E+003                    3.27231640E-010      30.27  <-- SCF
------------------------------------------------------------------------ <-- SCF
 
Final energy =  -2958.868084918     eV
(energy not corrected for finite basis set)
 

 ******************************** Symmetrised Forces ********************************
 *                                                                                  *
 *                           Cartesian components (eV/A)                            *
 * -------------------------------------------------------------------------------- *
 *                         x                    y                    z              *
 *                                                                                  *
 * O               1     -0.01276             -0.00556             -0.01443         *
 * O               2      0.01119              0.00827              0.01443         *
 * O               3      0.01119             -0.00827             -0.01443         *
 * O               4      0.00157              0.01383             -0.01443         *
 * O               5     -0.01276              0.00556              0.01443         *
 * O               6      0.00157             -0.01383              0.01443         *
 * Si              1      0.00919             -0.01591              0.00000         *
 * Si              2      0.00919              0.01591              0.00000         *
 * Si              3     -0.01837              0.00000              0.00000         *
 *                                                                                  *
 ************************************************************************************

 *********** Symmetrised Stress Tensor ***********
 *                                               *
 *          Cartesian components (GPa)           *
 * --------------------------------------------- *
 *             x             y             z     *
 *                                               *
 *  x     -0.183263     -0.000000      0.000000  *
 *  y     -0.000000     -0.183263     -0.000000  *
 *  z      0.000000     -0.000000     -0.124960  *
 *                                               *
 *  Pressure:    0.1638                          *
 *                                               *
 *************************************************
  
 +------------+-------------+-------------+-----------------+ <-- min LBFGS
 |    Step    |   lambda    |   F.delta'  |    enthalpy     | <-- min LBFGS
 +------------+-------------+-------------+-----------------+ <-- min LBFGS
 |  previous  |    0.000000 |    0.285864 |    -2958.799727 | <-- min LBFGS
 | trial step |    1.000000 |    0.174088 |    -2958.843473 | <-- min LBFGS
 |  line step |    2.557485 |   -0.007276 |    -2958.868973 | <-- min LBFGS
 +------------+-------------+-------------+-----------------+ <-- min LBFGS
  
 LBFGS: finished iteration     1 with enthalpy= -2.95886897E+003 eV
  
 +-----------+-----------------+-----------------+------------+-----+ <-- LBFGS
 | Parameter |      value      |    tolerance    |    units   | OK? | <-- LBFGS
 +-----------+-----------------+-----------------+------------+-----+ <-- LBFGS
 |  dE/ion   |   7.694024E-003 |   2.000000E-005 |         eV | No  | <-- LBFGS
 |  |F|max   |   2.004713E-002 |   5.000000E-002 |       eV/A | Yes | <-- LBFGS
 |  |dR|max  |   4.488828E-003 |   1.000000E-003 |          A | No  | <-- LBFGS
 |   Smax    |   1.832627E-001 |   1.000000E-001 |        GPa | No  | <-- LBFGS
 +-----------+-----------------+-----------------+------------+-----+ <-- LBFGS
  

================================================================================
 Starting LBFGS iteration          2 ...
================================================================================
  
 +------------+-------------+-------------+-----------------+ <-- min LBFGS
 |    Step    |   lambda    |   F.delta'  |    enthalpy     | <-- min LBFGS
 +------------+-------------+-------------+-----------------+ <-- min LBFGS
 |  previous  |    0.000000 |    0.008551 |    -2958.868973 | <-- min LBFGS
 +------------+-------------+-------------+-----------------+ <-- min LBFGS
  

--------------------------------------------------------------------------------
 LBFGS: starting iteration         2 with trial guess (lambda=  1.000000)
--------------------------------------------------------------------------------

                           -------------------------------
                                      Unit Cell
                           -------------------------------
        Real Lattice(A)              Reciprocal Lattice(1/A)
     2.4337938    -4.2154546     0.0000000        1.290821192  -0.745255962   0.000000000
     2.4337938     4.2154546     0.0000000        1.290821192   0.745255962   0.000000000
     0.0000000     0.0000000     5.3545017        0.000000000   0.000000000   1.173439785

                       Lattice parameters(A)       Cell Angles
                    a =      4.867588          alpha =   90.000000
                    b =      4.867588          beta  =   90.000000
                    c =      5.354502          gamma =  120.000000

                Current cell volume =           109.869527 A**3

                           -------------------------------
                                     Cell Contents
                           -------------------------------

            xxxxxxxxxxxxxxxxxxxxxxxxxxxxxxxxxxxxxxxxxxxxxxxxxxxxxxxxxxxxxxxxx
            x  Element         Atom        Fractional coordinates of atoms  x
            x                 Number           u          v          w      x
            x---------------------------------------------------------------x
            x  O                 1         0.147003   0.414929   0.880565   x
            x  O                 2         0.732074   0.585071   0.786105   x
            x  O                 3         0.585071   0.732074   0.213895   x
            x  O                 4         0.267926   0.852997   0.547235   x
            x  O                 5         0.414929   0.147003   0.119435   x
            x  O                 6         0.852997   0.267926   0.452765   x
            x  Si                1         0.530380   0.000000   0.333300   x
            x  Si                2         0.000000   0.530380   0.666630   x
            x  Si                3         0.469620   0.469620   0.999970   x
            xxxxxxxxxxxxxxxxxxxxxxxxxxxxxxxxxxxxxxxxxxxxxxxxxxxxxxxxxxxxxxxxx


------------------------------------------------------------------------ <-- SCF
SCF loop      Energy                           Energy gain       Timer   <-- SCF
                                               per atom          (sec)   <-- SCF
------------------------------------------------------------------------ <-- SCF
Initial  -2.95886824E+003                                         32.58  <-- SCF
      1  -2.95886864E+003                    4.48702419E-005      32.92  <-- SCF
      2  -2.95886865E+003                    6.81117233E-007      33.44  <-- SCF
      3  -2.95886823E+003                   -4.65272045E-005      33.94  <-- SCF
      4  -2.95886818E+003                   -4.97836132E-006      34.44  <-- SCF
      5  -2.95886818E+003                   -7.75435867E-008      34.91  <-- SCF
      6  -2.95886818E+003                   -3.39146206E-009      35.28  <-- SCF
      7  -2.95886818E+003                    2.65918674E-010      35.64  <-- SCF
------------------------------------------------------------------------ <-- SCF
 
Final energy =  -2958.868181157     eV
(energy not corrected for finite basis set)
 

 ******************************** Symmetrised Forces ********************************
 *                                                                                  *
 *                           Cartesian components (eV/A)                            *
 * -------------------------------------------------------------------------------- *
 *                         x                    y                    z              *
 *                                                                                  *
 * O               1     -0.00396             -0.00636             -0.01787         *
 * O               2      0.00748              0.00025              0.01787         *
 * O               3      0.00748             -0.00025             -0.01787         *
 * O               4     -0.00352              0.00661             -0.01787         *
 * O               5     -0.00396              0.00636              0.01787         *
 * O               6     -0.00352             -0.00661              0.01787         *
 * Si              1      0.00887             -0.01537             -0.00000         *
 * Si              2      0.00887              0.01537             -0.00000         *
 * Si              3     -0.01775             -0.00000             -0.00000         *
 *                                                                                  *
 ************************************************************************************

 *********** Symmetrised Stress Tensor ***********
 *                                               *
 *          Cartesian components (GPa)           *
 * --------------------------------------------- *
 *             x             y             z     *
 *                                               *
 *  x     -0.018048     -0.000000      0.000000  *
 *  y     -0.000000     -0.018048      0.000000  *
 *  z      0.000000      0.000000      0.035191  *
 *                                               *
 *  Pressure:    0.0003                          *
 *                                               *
 *************************************************
  
 +------------+-------------+-------------+-----------------+ <-- min LBFGS
 |    Step    |   lambda    |   F.delta'  |    enthalpy     | <-- min LBFGS
 +------------+-------------+-------------+-----------------+ <-- min LBFGS
 |  previous  |    0.000000 |    0.008551 |    -2958.868973 | <-- min LBFGS
 | trial step |    1.000000 |    0.001010 |    -2958.868988 | <-- min LBFGS
 +------------+-------------+-------------+-----------------+ <-- min LBFGS
  
 LBFGS: finished iteration     2 with enthalpy= -2.95886899E+003 eV
  
 +-----------+-----------------+-----------------+------------+-----+ <-- LBFGS
 | Parameter |      value      |    tolerance    |    units   | OK? | <-- LBFGS
 +-----------+-----------------+-----------------+------------+-----+ <-- LBFGS
 |  dE/ion   |   1.666835E-006 |   2.000000E-005 |         eV | Yes | <-- LBFGS
 |  |F|max   |   1.937868E-002 |   5.000000E-002 |       eV/A | Yes | <-- LBFGS
 |  |dR|max  |   1.235867E-004 |   1.000000E-003 |          A | Yes | <-- LBFGS
 |   Smax    |   3.519055E-002 |   1.000000E-001 |        GPa | Yes | <-- LBFGS
 +-----------+-----------------+-----------------+------------+-----+ <-- LBFGS
  
 LBFGS: Geometry optimization completed successfully.

================================================================================
 LBFGS: Final Configuration:
================================================================================

                           -------------------------------
                                      Unit Cell
                           -------------------------------
        Real Lattice(A)              Reciprocal Lattice(1/A)
     2.4337938    -4.2154546     0.0000000        1.290821192  -0.745255962   0.000000000
     2.4337938     4.2154546     0.0000000        1.290821192   0.745255962   0.000000000
     0.0000000     0.0000000     5.3545017        0.000000000   0.000000000   1.173439785

                       Lattice parameters(A)       Cell Angles
                    a =      4.867588          alpha =   90.000000
                    b =      4.867588          beta  =   90.000000
                    c =      5.354502          gamma =  120.000000

                Current cell volume =           109.869527 A**3

                           -------------------------------
                                     Cell Contents
                           -------------------------------

            xxxxxxxxxxxxxxxxxxxxxxxxxxxxxxxxxxxxxxxxxxxxxxxxxxxxxxxxxxxxxxxxx
            x  Element         Atom        Fractional coordinates of atoms  x
            x                 Number           u          v          w      x
            x---------------------------------------------------------------x
            x  O                 1         0.147003   0.414929   0.880565   x
            x  O                 2         0.732074   0.585071   0.786105   x
            x  O                 3         0.585071   0.732074   0.213895   x
            x  O                 4         0.267926   0.852997   0.547235   x
            x  O                 5         0.414929   0.147003   0.119435   x
            x  O                 6         0.852997   0.267926   0.452765   x
            x  Si                1         0.530380   0.000000   0.333300   x
            x  Si                2         0.000000   0.530380   0.666630   x
            x  Si                3         0.469620   0.469620   0.999970   x
            xxxxxxxxxxxxxxxxxxxxxxxxxxxxxxxxxxxxxxxxxxxxxxxxxxxxxxxxxxxxxxxxx


 LBFGS: Final Enthalpy     = -2.95886899E+003 eV
 LBFGS: Final <frequency>  =    1643.95972 cm-1
 LBFGS: Final bulk modulus =     211.79650 GPa

 ******************************** Symmetrised Forces ********************************
 *                                                                                  *
 *                           Cartesian components (eV/A)                            *
 * -------------------------------------------------------------------------------- *
 *                         x                    y                    z              *
 *                                                                                  *
 * O               1     -0.00396             -0.00636             -0.01787         *
 * O               2      0.00748              0.00025              0.01787         *
 * O               3      0.00748             -0.00025             -0.01787         *
 * O               4     -0.00352              0.00661             -0.01787         *
 * O               5     -0.00396              0.00636              0.01787         *
 * O               6     -0.00352             -0.00661              0.01787         *
 * Si              1      0.00887             -0.01537             -0.00000         *
 * Si              2      0.00887              0.01537             -0.00000         *
 * Si              3     -0.01775             -0.00000             -0.00000         *
 *                                                                                  *
 ************************************************************************************

 *********** Symmetrised Stress Tensor ***********
 *                                               *
 *          Cartesian components (GPa)           *
 * --------------------------------------------- *
 *             x             y             z     *
 *                                               *
 *  x     -0.018048     -0.000000      0.000000  *
 *  y     -0.000000     -0.018048      0.000000  *
 *  z      0.000000      0.000000      0.035191  *
 *                                               *
 *  Pressure:    0.0003                          *
 *                                               *
 *************************************************

 Pseudo atomic calculation performed for O 2s2 2p4

 Converged in 35 iterations to a total energy of -428.6823 eV


 Pseudo atomic calculation performed for Si 3s2 3p2

 Converged in 21 iterations to a total energy of -102.2200 eV

Charge spilling parameter for spin component 1 = 1.29%

            Orbital Populations       
     Ion    Atom   Orbital             Charge
  -------------------------------------------
      O     1      S                    1.827
      O     1      Px                   1.828
      O     1      Py                   1.743
      O     1      Pz                   1.779
      O     2      S                    1.827
      O     2      Px                   1.802
      O     2      Py                   1.759
      O     2      Pz                   1.783
      O     3      S                    1.824
      O     3      Px                   1.807
      O     3      Py                   1.763
      O     3      Pz                   1.784
      O     4      S                    1.822
      O     4      Px                   1.727
      O     4      Py                   1.850
      O     4      Pz                   1.784
      O     5      S                    1.823
      O     5      Px                   1.828
      O     5      Py                   1.749
      O     5      Pz                   1.784
      O     6      S                    1.823
      O     6      Px                   1.729
      O     6      Py                   1.848
      O     6      Pz                   1.784
     Si     1      S                    0.548
     Si     1      Px                   0.367
     Si     1      Py                   0.362
     Si     1      Pz                   0.363
     Si     2      S                    0.551
     Si     2      Px                   0.364
     Si     2      Py                   0.359
     Si     2      Pz                   0.368
     Si     3      S                    0.549
     Si     3      Px                   0.366
     Si     3      Py                   0.359
     Si     3      Pz                   0.366
  -------------------------------------------
                           Total:      48.000
  -------------------------------------------

     Atomic Populations (Mulliken)
     -----------------------------
Species          Ion     s      p      d      f     Total  Charge (e)
=====================================================================
  O               1     1.82   5.36   0.00   0.00   7.18    -1.18
  O               2     1.82   5.36   0.00   0.00   7.18    -1.18
  O               3     1.82   5.36   0.00   0.00   7.18    -1.18
  O               4     1.82   5.36   0.00   0.00   7.18    -1.18
  O               5     1.82   5.36   0.00   0.00   7.18    -1.18
  O               6     1.82   5.36   0.00   0.00   7.18    -1.18
  Si              1     0.55   1.09   0.00   0.00   1.64     2.36
  Si              2     0.55   1.09   0.00   0.00   1.64     2.36
  Si              3     0.55   1.09   0.00   0.00   1.64     2.36
=====================================================================

                 Bond                   Population      Length (A)
======================================================================
               O 4 -- Si 2                   0.53        1.58983
               O 3 -- Si 1                   0.53        1.58986
               O 1 -- Si 3                   0.53        1.58986
               O 6 -- Si 1                   0.53        1.58999
               O 5 -- Si 3                   0.53        1.58999
               O 2 -- Si 2                   0.53        1.59001
               O 6 -- Si 2                   0.54        1.59414
               O 5 -- Si 1                   0.54        1.59414
               O 2 -- Si 3                   0.54        1.59414
               O 3 -- Si 3                   0.54        1.59437
               O 4 -- Si 1                   0.54        1.59441
               O 1 -- Si 2                   0.54        1.59441
               O 3 -- O 5                   -0.19        2.58720
               O 1 -- O 2                   -0.19        2.58720
               O 4 -- O 6                   -0.19        2.58721
               O 2 -- O 4                   -0.09        2.59584
               O 3 -- O 6                   -0.09        2.59584
               O 1 -- O 5                   -0.09        2.59584
               O 2 -- O 3                   -0.10        2.60439
               O 4 -- O 5                   -0.10        2.60444
               O 1 -- O 6                   -0.10        2.60444
               O 5 -- O 6                   -0.10        2.61223
               O 2 -- O 5                   -0.10        2.61223
               O 1 -- O 4                   -0.10        2.61223
               O 1 -- O 3                   -0.10        2.61223
               O 3 -- O 4                   -0.10        2.61227
               O 2 -- O 6                   -0.10        2.61227
======================================================================


Writing analysis data to quartz-geom.castep_bin

Writing model to quartz-geom.check
 
 A BibTeX formatted list of references used in this run has been written to 
 quartz-geom.bib
 
Initialisation time =      1.01 s
Calculation time    =     38.02 s
Finalisation time   =      0.10 s
Total time          =     39.14 s
Peak Memory Use     = 438176 kB
  
Overall parallel efficiency rating: Excellent (92%)                             
  
Data was distributed by:-
k-point (4-way); efficiency rating: Excellent (93%)                             
  
Parallel notes:
1) Calculation only took 39.0 s, so efficiency estimates may be inaccurate.     
