 +-------------------------------------------------+
 |                                                 |
 |      CCC   AA    SSS  TTTTT  EEEEE  PPPP        |
 |     C     A  A  S       T    E      P   P       |
 |     C     AAAA   SS     T    EEE    PPPP        |
 |     C     A  A     S    T    E      P           |
 |      CCC  A  A  SSS     T    EEEEE  P           |
 |                                                 |
 +-------------------------------------------------+
 |                                                 |
 | Welcome to Academic Release CASTEP version 18.1 |          
 | Ab Initio Total Energy Program                  |
 |                                                 |
 | Authors:                                        |
 | M. Segall, M. Probert, C. Pickard, P. Hasnip,   |
 | S. Clark, K. Refson, J. R. Yates, M. Payne      |
 |                                                 |
 | Contributors:                                   |
 | P. Lindan, P. Haynes, J. White, V. Milman,      |
 | N. Govind, M. Gibson, P. Tulip, V. Cocula,      |
 | B. Montanari, D. Quigley, M. Glover,            |
 | L. Bernasconi, A. Perlov, M. Plummer,           |
 | E. McNellis, J. Meyer, J. Gale, D. Jochym       |
 | J. Aarons, B. Walker, R. Gillen, D. Jones       |
 | T. Green, I. J. Bush, C. J. Armstrong,          |
 | E. J. Higgins, E. L. Brown, M. S. McFly,        |
 | J. Wilkins, B-C. Shih, P. J. P. Byrne           |
 |                                                 |
 | Copyright (c) 2000 - 2017                       |
 |                                                 |
 |     Distributed under the terms of an           |
 |     Agreement between the United Kingdom        |
 |     Car-Parrinello (UKCP) Consortium,           |
 |     Daresbury Laboratory and Accelrys, Inc.     |
 |                                                 |
 | Please cite                                     |
 |                                                 |
 |     "First principles methods using CASTEP"     |
 |                                                 |
 |         Zeitschrift fuer Kristallographie       |
 |           220(5-6) pp. 567-570 (2005)           |
 |                                                 |
 | S. J. Clark, M. D. Segall, C. J. Pickard,       |
 | P. J. Hasnip, M. J. Probert, K. Refson,         |
 | M. C. Payne                                     |
 |                                                 |
 |       in all publications arising from          |
 |              your use of CASTEP                 |
 |                                                 |
 +-------------------------------------------------+


 Compiled for linux_x86_64_gfortran4.8 on Thu, 19 Jul 2018 15:42:32 +0100
 from code version 70483bd0ad64+  Sun, 10 Dec 2017 12:18:29 +0000
 Compiler: GNU Fortran 4.8.5; Optimisation: fast
 MATHLIBS: Intel MKL(2018.0.0) (LAPACK version 3.7.0)
 FFT Lib : mkl
 Fundamental constants values: CODATA 2014

 Run started: Tue, 23 Jun 2020 16:53:46 +0100

 Atomic calculation performed for Fe: 1s2 2s2 2p6 3s2 3p6 3d6 4s2

 Converged in 98 iterations to an ae energy of -34563.484 eV

   ============================================================                
   | Pseudopotential Report - Date of generation 23-06-2020   |                
   ------------------------------------------------------------                
   | Element: Fe Ionic charge:  8.00 Level of theory: LDA     |                
   | Atomic Solver: Koelling-Harmon                           |                
   |                                                          |                
   |               Reference Electronic Structure             |                
   |         Orbital         Occupation         Energy        |                
   |            3d              6.000           -0.285        |                
   |            4s              2.000           -0.202        |                
   |                                                          |                
   |                 Pseudopotential Definition               |                
   |        Beta     l      e      Rc     scheme   norm       |                
   |          1      0   -0.202   2.399     qc      0         |                
   |          2      0    0.250   2.399     qc      0         |                
   |          3      1    0.000   2.399     qc      0         |                
   |          4      1    0.250   2.399     qc      0         |                
   |          5      2   -0.285   1.997     qc      0         |                
   |          6      2    0.250   1.997     qc      0         |                
   |         loc     3    0.000   2.399     pn      0         |                
   |                                                          |                
   | Augmentation charge Rinner = 1.000                       |                
   | Partial core correction Rc = 1.000                       |                
   ------------------------------------------------------------                
   | "3|2.4|2.4|1.0|8|9|10|40:41:32U2U2(qc=5.5)"              |                
   ------------------------------------------------------------                
   |      Author: Chris J. Pickard, Cambridge University      |                
   ============================================================                

 Pseudo atomic calculation performed for Fe 3d6 4s2

 Converged in 29 iterations to a total energy of -847.0421 eV

 Calculation parallelised over 4 processes.
 Data is distributed by G-vector(2-way) and k-point(2-way)

 ************************************ Title ************************************
 

 ***************************** General Parameters ******************************
  
 output verbosity                               : normal  (1)
 write checkpoint data to                       : Fe.check
 type of calculation                            : band structure
 stress calculation                             : off
 density difference calculation                 : off
 electron localisation func (ELF) calculation   : off
 Hirshfeld analysis                             : off
 unlimited duration calculation
 timing information                             : on
 memory usage estimate                          : on
 write extra output files                       : on
 write final potential to formatted file        : off
 write final density to formatted file          : on
 write BibTeX reference list                    : on
 write OTFG pseudopotential files               : on
 write electrostatic potential file             : on
 write bands file                               : on
 checkpoint writing                             : both castep_bin and check files
  
 output         length unit                     : A
 output           mass unit                     : amu
 output           time unit                     : ps
 output         charge unit                     : e
 output           spin unit                     : hbar/2
 output         energy unit                     : eV
 output          force unit                     : eV/A
 output       velocity unit                     : A/ps
 output       pressure unit                     : GPa
 output     inv_length unit                     : 1/A
 output      frequency unit                     : cm-1
 output force constant unit                     : eV/A**2
 output         volume unit                     : A**3
 output   IR intensity unit                     : (D/A)**2/amu
 output         dipole unit                     : D
 output         efield unit                     : eV/A/e
 output        entropy unit                     : J/mol/K
  
 wavefunctions paging                           : none
 random number generator seed                   : randomised (165347002)
 data distribution                              : optimal for this architecture
 optimization strategy                          : maximize speed(+++)

 *********************** Exchange-Correlation Parameters ***********************
  
 using functional                               : Local Density Approximation
 relativistic treatment                         : Koelling-Harmon
 DFT+D: Semi-empirical dispersion correction    : off

 ************************* Pseudopotential Parameters **************************
  
 pseudopotential representation                 : reciprocal space
 <beta|phi> representation                      : reciprocal space
 spin-orbit coupling                            : off

 **************************** Basis Set Parameters *****************************
  
 basis set accuracy                             : MEDIUM
 plane wave basis set cut-off                   :   244.9025   eV
 size of standard grid                          :     1.7500
 size of   fine   gmax                          :    14.0305   1/A
 finite basis set correction                    : none

 **************************** Electronic Parameters ****************************
  
 number of  electrons                           :  8.000    
 net charge of system                           :  0.000    
 net spin   of system                           :  1.000    
 number of  up  spins                           :  4.500    
 number of down spins                           :  3.500    
 treating system as spin-polarized
 number of bands                                :          9

 ********************* Electronic Minimization Parameters **********************
  
 Method: Treating system as metallic with density mixing treatment of electrons,
         and number of  SD  steps               :          1
         and number of  CG  steps               :          4
  
 total energy / atom convergence tol.           : 0.1000E-04   eV
 eigen-energy convergence tolerance             : 0.1000E-05   eV
 max force / atom convergence tol.              : ignored
 convergence tolerance window                   :          3   cycles
 max. number of SCF cycles                      :         30
 number of fixed-spin iterations                :         10
 smearing scheme                                : Gaussian
 smearing width                                 : 0.2000       eV
 Fermi energy convergence tolerance             : 0.2721E-13   eV
 periodic dipole correction                     : NONE

 ************************** Density Mixing Parameters **************************
  
 density-mixing scheme                          : Broyden
 max. length of mixing history                  :         20
 charge density mixing amplitude                : 0.8000    
   spin density mixing amplitude                :  2.000    

 *********************** Population Analysis Parameters ************************
  
 Population analysis with cutoff                :  3.000       A
 Population analysis output                     : summary and pdos components

 ************************** Band Structure Parameters **************************
  
 max. number of iterations                      :         60
 max. CG steps in BS calc                       :         25
 number of bands / k-point                      :          6
 band convergence tolerance                     : 0.1000E-05   eV
 write orbitals file                            : on

 *******************************************************************************
  

                           -------------------------------
                                      Unit Cell
                           -------------------------------
        Real Lattice(A)                      Reciprocal Lattice(1/A)
    -1.4332000     1.4332000     1.4332000        0.000000000   2.192012736   2.192012736
     1.4332000    -1.4332000     1.4332000        2.192012736  -0.000000000   2.192012736
     1.4332000     1.4332000    -1.4332000        2.192012736   2.192012736  -0.000000000

                       Lattice parameters(A)       Cell Angles
                    a =      2.482375          alpha =  109.471221
                    b =      2.482375          beta  =  109.471221
                    c =      2.482375          gamma =  109.471221

                       Current cell volume =            11.775528       A**3
                                   density =             4.742462   AMU/A**3
                                           =             7.875044     g/cm^3

                           -------------------------------
                                     Cell Contents
                           -------------------------------
                         Total number of ions in cell =    1
                      Total number of species in cell =    1
                        Max number of any one species =    1

            xxxxxxxxxxxxxxxxxxxxxxxxxxxxxxxxxxxxxxxxxxxxxxxxxxxxxxxxxxxx
            x  Element    Atom        Fractional coordinates of atoms  x
            x            Number           u          v          w      x
            x----------------------------------------------------------x
            x  Fe           1         0.000000   0.000000   0.000000   x 
            xxxxxxxxxxxxxxxxxxxxxxxxxxxxxxxxxxxxxxxxxxxxxxxxxxxxxxxxxxxx


                         No user defined ionic velocities

                           -------------------------------
                                   Details of Species
                           -------------------------------

                               Mass of species in AMU
                                    Fe   55.8450000

                          Electric Quadrupole Moment (Barn)
                                    Fe    0.1600000 Isotope 57

                          Files used for pseudopotentials:
                                    Fe 3|2.4|2.4|1.0|8|9|10|40:41:32U2U2(qc=5.5)

                           -------------------------------
                              k-Points For BZ Sampling
                           -------------------------------
                       MP grid size for SCF calculation is  8  8  8
                            with an offset of   0.000  0.000  0.000
                       Number of kpoints used =            26

                           -------------------------------
                               Symmetry and Constraints
                           -------------------------------

                      Maximum deviation from symmetry = 0.470004E-15     ANG

                      Number of symmetry operations   =          48
                      Number of ionic constraints     =           3
                      Point group of crystal =    32: Oh, m-3m, 4/m -3 2/m
                      Space group of crystal =   229: Im-3m, -I 4 2 3

             Set iprint > 1 for details on symmetry rotations/translations

                         Centre of mass is constrained
             Set iprint > 1 for details of linear ionic constraints

                         Number of cell constraints= 5
                         Cell constraints are:  1 1 1 0 0 0

                         External pressure/stress (GPa)
                          0.00000   0.00000   0.00000
                                    0.00000   0.00000
                                              0.00000
  
+---------------- MEMORY AND SCRATCH DISK ESTIMATES PER PROCESS --------------+
|                                                     Memory          Disk    |
| Baseline code, static data and system overhead      382.0 MB         0.0 MB |
| BLAS internal memory storage                          0.0 MB         0.0 MB |
| Model and support data                               16.6 MB         0.0 MB |
| Electronic energy minimisation requirements           0.9 MB         0.0 MB |
| Force calculation requirements                        0.2 MB         0.0 MB |
|                                               ----------------------------- |
| Approx. total storage required per process          399.5 MB         0.0 MB |
|                                                                             |
| Requirements will fluctuate during execution and may exceed these estimates |
+-----------------------------------------------------------------------------+
Calculating total energy with cut-off of  244.902 eV.
------------------------------------------------------------------------ <-- SCF
SCF loop      Energy           Fermi           Energy gain       Timer   <-- SCF
                               energy          per atom          (sec)   <-- SCF
------------------------------------------------------------------------ <-- SCF
Initial  -6.82543230E+002  0.00000000E+000                        27.08  <-- SCF
      1  -8.46902371E+002  6.94006162E+000   1.64359141E+002      27.48  <-- SCF
      2  -8.56460931E+002  5.30172480E+000   9.55855981E+000      27.78  <-- SCF
      3  -8.56601457E+002  5.28566392E+000   1.40526538E-001      28.07  <-- SCF
      4  -8.56748237E+002  3.84736958E+000   1.46779414E-001      28.43  <-- SCF
      5  -8.56586690E+002  4.72496900E+000  -1.61546794E-001      28.75  <-- SCF
      6  -8.56587481E+002  4.68341013E+000   7.90931469E-004      29.08  <-- SCF
      7  -8.56587664E+002  4.69125604E+000   1.83203583E-004      29.41  <-- SCF
      8  -8.56587736E+002  4.69127928E+000   7.21135103E-005      29.63  <-- SCF
      9  -8.56587744E+002  4.69105588E+000   7.60695691E-006      29.85  <-- SCF
     10  -8.56669167E+002  4.67980129E+000   8.14235579E-002      30.06  <-- SCF
     11  -8.56829154E+002  4.73277132E+000   1.59986568E-001      30.38  <-- SCF
     12  -8.56872480E+002  4.78868747E+000   4.33258644E-002      30.72  <-- SCF
     13  -8.56874841E+002  4.68229242E+000   2.36165312E-003      31.06  <-- SCF
     14  -8.56874816E+002  4.72471457E+000  -2.56730309E-005      31.39  <-- SCF
     15  -8.56875093E+002  4.71406430E+000   2.77573510E-004      31.69  <-- SCF
     16  -8.56875117E+002  4.71466897E+000   2.32561100E-005      31.90  <-- SCF
     17  -8.56875120E+002  4.71633949E+000   3.47949081E-006      32.09  <-- SCF
     18  -8.56875122E+002  4.71659364E+000   1.99434607E-006      32.30  <-- SCF
------------------------------------------------------------------------ <-- SCF
 
Integrated Spin Density     =     2.22307     hbar/2                        
Integrated |Spin Density|   =     2.29048     hbar/2                        
 
Final energy, E             =  -856.8568234084     eV
Final free energy (E-TS)    =  -856.8751219962     eV
(energies not corrected for finite basis set)
 
NB est. 0K energy (E-0.5TS)      =  -856.8659727023     eV
 

Writing analysis data to Fe.castep_bin

Writing model to Fe.check
  
+---------------- MEMORY AND SCRATCH DISK ESTIMATES PER PROCESS --------------+
|                                                     Memory          Disk    |
| Baseline code, static data and system overhead      382.0 MB         0.0 MB |
| BLAS internal memory storage                          0.0 MB         0.0 MB |
| Model and support data                               18.6 MB         0.0 MB |
| Band structure calculation requirements               1.3 MB         0.0 MB |
| Force calculation requirements                        0.4 MB         0.0 MB |
|                                               ----------------------------- |
| Approx. total storage required per process          401.9 MB         0.0 MB |
|                                                                             |
| Requirements will fluctuate during execution and may exceed these estimates |
+-----------------------------------------------------------------------------+
  =====================================================================
  +  Fermi energy for spin  up  electrons is:     4.71659 eV          +
  +  Fermi energy for spin down electrons is:     4.71659 eV          +
  +                                                                   +
  +       B A N D   S T R U C T U R E   C A L C U L A T I O N         +
  +      (General k-point calculation - complex wavefunctions)        +
  +                                                                   +
  + Calculation re-parallelised over 4 processes.                     +
  + Data distributed by k-point(4-way)                                +
  +                                                                   +
  + ================================================================= +
  +                                                                   +
  +     Band Structure Calculation: Progress report on root process   +
  +                                                                   +
  +   There are   68 BS k-points. Root process contains   17 of them. +
  +                                                                   +
  +   Spin= 1 of  2, K-point=   1 of   17 completed, Time:     0.10s. +
  +   Spin= 1 of  2, K-point=   2 of   17 completed, Time:     0.10s. +
  +   Spin= 1 of  2, K-point=   3 of   17 completed, Time:     0.10s. +
  +   Spin= 1 of  2, K-point=   4 of   17 completed, Time:     0.09s. +
  +   Spin= 1 of  2, K-point=   5 of   17 completed, Time:     0.11s. +
  +   Spin= 1 of  2, K-point=   6 of   17 completed, Time:     0.10s. +
  +   Spin= 1 of  2, K-point=   7 of   17 completed, Time:     0.10s. +
  +   Spin= 1 of  2, K-point=   8 of   17 completed, Time:     0.09s. +
  +   Spin= 1 of  2, K-point=   9 of   17 completed, Time:     0.09s. +
  +   Spin= 1 of  2, K-point=  10 of   17 completed, Time:     0.09s. +
  +   Spin= 1 of  2, K-point=  11 of   17 completed, Time:     0.08s. +
  +   Spin= 1 of  2, K-point=  12 of   17 completed, Time:     0.09s. +
  +   Spin= 1 of  2, K-point=  13 of   17 completed, Time:     0.09s. +
  +   Spin= 1 of  2, K-point=  14 of   17 completed, Time:     0.09s. +
  +   Spin= 1 of  2, K-point=  15 of   17 completed, Time:     0.09s. +
  +   Spin= 1 of  2, K-point=  16 of   17 completed, Time:     0.09s. +
  +   Spin= 1 of  2, K-point=  17 of   17 completed, Time:     0.09s. +
  +   Spin= 2 of  2, K-point=   1 of   17 completed, Time:     0.08s. +
  +   Spin= 2 of  2, K-point=   2 of   17 completed, Time:     0.09s. +
  +   Spin= 2 of  2, K-point=   3 of   17 completed, Time:     0.10s. +
  +   Spin= 2 of  2, K-point=   4 of   17 completed, Time:     0.10s. +
  +   Spin= 2 of  2, K-point=   5 of   17 completed, Time:     0.10s. +
  +   Spin= 2 of  2, K-point=   6 of   17 completed, Time:     0.10s. +
  +   Spin= 2 of  2, K-point=   7 of   17 completed, Time:     0.09s. +
  +   Spin= 2 of  2, K-point=   8 of   17 completed, Time:     0.09s. +
  +   Spin= 2 of  2, K-point=   9 of   17 completed, Time:     0.10s. +
  +   Spin= 2 of  2, K-point=  10 of   17 completed, Time:     0.09s. +
  +   Spin= 2 of  2, K-point=  11 of   17 completed, Time:     0.09s. +
  +   Spin= 2 of  2, K-point=  12 of   17 completed, Time:     0.09s. +
  +   Spin= 2 of  2, K-point=  13 of   17 completed, Time:     0.09s. +
  +   Spin= 2 of  2, K-point=  14 of   17 completed, Time:     0.10s. +
  +   Spin= 2 of  2, K-point=  15 of   17 completed, Time:     0.10s. +
  +   Spin= 2 of  2, K-point=  16 of   17 completed, Time:     0.10s. +
  +   Spin= 2 of  2, K-point=  17 of   17 completed, Time:     0.10s. +
  +   Finished BS calculation on root process (waiting for others).   +
  +                                                                   +
  + ================================================================= +
  +                       Electronic energies                         +
  +                       -------------------                         +
  +                                                                   +
  +   Band number   Energy in eV                                      +
  + ================================================================= +
  +                                                                   +
  + ----------------------------------------------------------------- +
  +  Spin=1 kpt=    1 ( -0.458333 -0.458333  0.375000) kpt-group=  1  +
  + ----------------------------------------------------------------- +
  +                                                                   +
  +           1        0.316127                                       +
  +           2        0.316179                                       +
  +           3        4.135210                                       +
  +           4        4.601070                                       +
  +           5        4.601393                                       +
  +           6       13.537575                                       +
  + ----------------------------------------------------------------- +
  +  Spin=1 kpt=    2 ( -0.375000  0.291667 -0.208333) kpt-group=  1  +
  + ----------------------------------------------------------------- +
  +                                                                   +
  +           1        0.784754                                       +
  +           2        1.437684                                       +
  +           3        2.820841                                       +
  +           4        3.302390                                       +
  +           5        4.184386                                       +
  +           6        6.247947                                       +
  + ----------------------------------------------------------------- +
  +  Spin=1 kpt=    3 ( -0.291667 -0.375000  0.041667) kpt-group=  1  +
  + ----------------------------------------------------------------- +
  +                                                                   +
  +           1        1.148725                                       +
  +           2        1.645324                                       +
  +           3        1.968709                                       +
  +           4        3.984884                                       +
  +           5        4.218676                                       +
  +           6       10.034929                                       +
  + ----------------------------------------------------------------- +
  +  Spin=1 kpt=    4 ( -0.208333  0.125000 -0.375000) kpt-group=  1  +
  + ----------------------------------------------------------------- +
  +                                                                   +
  +           1        0.679943                                       +
  +           2        1.915038                                       +
  +           3        2.329196                                       +
  +           4        3.546335                                       +
  +           5        4.606226                                       +
  +           6        6.928474                                       +
  + ----------------------------------------------------------------- +
  +  Spin=1 kpt=    5 ( -0.208333  0.458333 -0.458333) kpt-group=  1  +
  + ----------------------------------------------------------------- +
  +                                                                   +
  +           1        0.688486                                       +
  +           2        1.677806                                       +
  +           3        2.542059                                       +
  +           4        3.376463                                       +
  +           5        4.824626                                       +
  +           6        8.246150                                       +
  + ----------------------------------------------------------------- +
  +  Spin=1 kpt=    6 ( -0.041667 -0.375000 -0.208333) kpt-group=  1  +
  + ----------------------------------------------------------------- +
  +                                                                   +
  +           1        0.843317                                       +
  +           2        1.573895                                       +
  +           3        2.458487                                       +
  +           4        3.903817                                       +
  +           5        4.235967                                       +
  +           6        8.955077                                       +
  + ----------------------------------------------------------------- +
  +  Spin=1 kpt=    7 ( -0.041667 -0.208333  0.208333) kpt-group=  1  +
  + ----------------------------------------------------------------- +
  +                                                                   +
  +           1       -1.929784                                       +
  +           2        2.303555                                       +
  +           3        2.435292                                       +
  +           4        3.341420                                       +
  +           5        3.553402                                       +
  +           6        3.928647                                       +
  + ----------------------------------------------------------------- +
  +  Spin=1 kpt=    8 ( -0.041667 -0.041667 -0.125000) kpt-group=  1  +
  + ----------------------------------------------------------------- +
  +                                                                   +
  +           1       -2.412856                                       +
  +           2        2.318749                                       +
  +           3        2.361452                                       +
  +           4        3.288919                                       +
  +           5        3.759378                                       +
  +           6        3.852449                                       +
  + ----------------------------------------------------------------- +
  +  Spin=1 kpt=    9 ( -0.041667  0.125000  0.458333) kpt-group=  1  +
  + ----------------------------------------------------------------- +
  +                                                                   +
  +           1        0.284746                                       +
  +           2        1.710161                                       +
  +           3        3.095066                                       +
  +           4        3.714138                                       +
  +           5        4.645979                                       +
  +           6        6.736777                                       +
  + ----------------------------------------------------------------- +
  +  Spin=1 kpt=   10 (  0.125000 -0.208333  0.208333) kpt-group=  1  +
  + ----------------------------------------------------------------- +
  +                                                                   +
  +           1       -1.455634                                       +
  +           2        2.412859                                       +
  +           3        2.429869                                       +
  +           4        3.038460                                       +
  +           5        3.300892                                       +
  +           6        4.177581                                       +
  + ----------------------------------------------------------------- +
  +  Spin=1 kpt=   11 (  0.125000 -0.041667  0.208333) kpt-group=  1  +
  + ----------------------------------------------------------------- +
  +                                                                   +
  +           1       -1.051556                                       +
  +           2        2.104832                                       +
  +           3        2.299583                                       +
  +           4        3.436568                                       +
  +           5        3.787290                                       +
  +           6        4.128486                                       +
  + ----------------------------------------------------------------- +
  +  Spin=1 kpt=   12 (  0.125000  0.125000  0.041667) kpt-group=  1  +
  + ----------------------------------------------------------------- +
  +                                                                   +
  +           1       -1.453902                                       +
  +           2        2.038140                                       +
  +           3        2.089878                                       +
  +           4        3.724934                                       +
  +           5        3.872870                                       +
  +           6        3.918996                                       +
  + ----------------------------------------------------------------- +
  +  Spin=1 kpt=   13 (  0.125000  0.291667 -0.375000) kpt-group=  1  +
  + ----------------------------------------------------------------- +
  +                                                                   +
  +           1       -0.073083                                       +
  +           2        1.863379                                       +
  +           3        2.381813                                       +
  +           4        3.580698                                       +
  +           5        4.093272                                       +
  +           6        4.724154                                       +
  + ----------------------------------------------------------------- +
  +  Spin=1 kpt=   14 (  0.208333  0.208333 -0.041667) kpt-group=  1  +
  + ----------------------------------------------------------------- +
  +                                                                   +
  +           1       -0.030648                                       +
  +           2        1.825885                                       +
  +           3        2.248385                                       +
  +           4        3.454948                                       +
  +           5        4.044868                                       +
  +           6        4.835515                                       +
  + ----------------------------------------------------------------- +
  +  Spin=1 kpt=   15 (  0.291667 -0.458333  0.458333) kpt-group=  1  +
  + ----------------------------------------------------------------- +
  +                                                                   +
  +           1        0.700670                                       +
  +           2        0.947386                                       +
  +           3        3.307903                                       +
  +           4        3.605668                                       +
  +           5        4.770610                                       +
  +           6        9.846398                                       +
  + ----------------------------------------------------------------- +
  +  Spin=1 kpt=   16 (  0.291667 -0.291667  0.208333) kpt-group=  1  +
  + ----------------------------------------------------------------- +
  +                                                                   +
  +           1        0.243342                                       +
  +           2        1.881138                                       +
  +           3        2.737524                                       +
  +           4        3.032230                                       +
  +           5        3.850115                                       +
  +           6        5.057086                                       +
  + ----------------------------------------------------------------- +
  +  Spin=1 kpt=   17 (  0.291667  0.291667 -0.041667) kpt-group=  1  +
  + ----------------------------------------------------------------- +
  +                                                                   +
  +           1        1.076858                                       +
  +           2        1.539190                                       +
  +           3        2.129324                                       +
  +           4        3.798929                                       +
  +           5        4.281016                                       +
  +           6        8.227002                                       +
  + ----------------------------------------------------------------- +
  +  Spin=2 kpt=    1 ( -0.458333 -0.458333  0.375000) kpt-group=  1  +
  + ----------------------------------------------------------------- +
  +                                                                   +
  +           1        1.899555                                       +
  +           2        1.900054                                       +
  +           3        6.134702                                       +
  +           4        6.708219                                       +
  +           5        6.711010                                       +
  +           6       14.212712                                       +
  + ----------------------------------------------------------------- +
  +  Spin=2 kpt=    2 ( -0.375000  0.291667 -0.208333) kpt-group=  1  +
  + ----------------------------------------------------------------- +
  +                                                                   +
  +           1        1.780553                                       +
  +           2        3.183487                                       +
  +           3        4.626801                                       +
  +           4        5.194335                                       +
  +           5        6.247007                                       +
  +           6        7.855144                                       +
  + ----------------------------------------------------------------- +
  +  Spin=2 kpt=    3 ( -0.291667 -0.375000  0.041667) kpt-group=  1  +
  + ----------------------------------------------------------------- +
  +                                                                   +
  +           1        2.614790                                       +
  +           2        3.215576                                       +
  +           3        3.390292                                       +
  +           4        6.109665                                       +
  +           5        6.368018                                       +
  +           6       11.232352                                       +
  + ----------------------------------------------------------------- +
  +  Spin=2 kpt=    4 ( -0.208333  0.125000 -0.375000) kpt-group=  1  +
  + ----------------------------------------------------------------- +
  +                                                                   +
  +           1        1.915081                                       +
  +           2        3.435431                                       +
  +           3        4.003791                                       +
  +           4        5.564282                                       +
  +           5        6.722890                                       +
  +           6        8.407837                                       +
  + ----------------------------------------------------------------- +
  +  Spin=2 kpt=    5 ( -0.208333  0.458333 -0.458333) kpt-group=  1  +
  + ----------------------------------------------------------------- +
  +                                                                   +
  +           1        2.116151                                       +
  +           2        3.172875                                       +
  +           3        4.320251                                       +
  +           4        5.316219                                       +
  +           5        6.968894                                       +
  +           6        9.429684                                       +
  + ----------------------------------------------------------------- +
  +  Spin=2 kpt=    6 ( -0.041667 -0.375000 -0.208333) kpt-group=  1  +
  + ----------------------------------------------------------------- +
  +                                                                   +
  +           1        2.222329                                       +
  +           2        3.156983                                       +
  +           3        3.781331                                       +
  +           4        6.109627                                       +
  +           5        6.473153                                       +
  +           6       10.201793                                       +
  + ----------------------------------------------------------------- +
  +  Spin=2 kpt=    7 ( -0.041667 -0.208333  0.208333) kpt-group=  1  +
  + ----------------------------------------------------------------- +
  +                                                                   +
  +           1       -1.512226                                       +
  +           2        4.091865                                       +
  +           3        4.211942                                       +
  +           4        5.288623                                       +
  +           5        5.708088                                       +
  +           6        6.197484                                       +
  + ----------------------------------------------------------------- +
  +  Spin=2 kpt=    8 ( -0.041667 -0.041667 -0.125000) kpt-group=  1  +
  + ----------------------------------------------------------------- +
  +                                                                   +
  +           1       -2.013517                                       +
  +           2        4.122463                                       +
  +           3        4.173250                                       +
  +           4        5.210132                                       +
  +           5        5.957974                                       +
  +           6        6.101294                                       +
  + ----------------------------------------------------------------- +
  +  Spin=2 kpt=    9 ( -0.041667  0.125000  0.458333) kpt-group=  1  +
  + ----------------------------------------------------------------- +
  +                                                                   +
  +           1        1.580827                                       +
  +           2        3.399713                                       +
  +           3        4.479578                                       +
  +           4        5.857666                                       +
  +           5        6.740109                                       +
  +           6        8.075733                                       +
  + ----------------------------------------------------------------- +
  +  Spin=2 kpt=   10 (  0.125000 -0.208333  0.208333) kpt-group=  1  +
  + ----------------------------------------------------------------- +
  +                                                                   +
  +           1       -1.021499                                       +
  +           2        4.225713                                       +
  +           3        4.250022                                       +
  +           4        5.090679                                       +
  +           5        5.241658                                       +
  +           6        6.444715                                       +
  + ----------------------------------------------------------------- +
  +  Spin=2 kpt=   11 (  0.125000 -0.041667  0.208333) kpt-group=  1  +
  + ----------------------------------------------------------------- +
  +                                                                   +
  +           1       -0.579753                                       +
  +           2        3.866022                                       +
  +           3        4.026542                                       +
  +           4        5.547733                                       +
  +           5        5.779886                                       +
  +           6        6.372946                                       +
  + ----------------------------------------------------------------- +
  +  Spin=2 kpt=   12 (  0.125000  0.125000  0.041667) kpt-group=  1  +
  + ----------------------------------------------------------------- +
  +                                                                   +
  +           1       -1.022643                                       +
  +           2        3.802393                                       +
  +           3        3.847045                                       +
  +           4        5.832093                                       +
  +           5        5.915037                                       +
  +           6        6.166588                                       +
  + ----------------------------------------------------------------- +
  +  Spin=2 kpt=   13 (  0.125000  0.291667 -0.375000) kpt-group=  1  +
  + ----------------------------------------------------------------- +
  +                                                                   +
  +           1        0.673299                                       +
  +           2        3.581134                                       +
  +           3        3.889440                                       +
  +           4        5.677735                                       +
  +           5        6.286147                                       +
  +           6        6.704355                                       +
  + ----------------------------------------------------------------- +
  +  Spin=2 kpt=   14 (  0.208333  0.208333 -0.041667) kpt-group=  1  +
  + ----------------------------------------------------------------- +
  +                                                                   +
  +           1        0.603536                                       +
  +           2        3.522978                                       +
  +           3        3.910978                                       +
  +           4        5.550079                                       +
  +           5        6.247071                                       +
  +           6        6.796759                                       +
  + ----------------------------------------------------------------- +
  +  Spin=2 kpt=   15 (  0.291667 -0.458333  0.458333) kpt-group=  1  +
  + ----------------------------------------------------------------- +
  +                                                                   +
  +           1        2.247210                                       +
  +           2        2.494542                                       +
  +           3        5.176596                                       +
  +           4        5.499816                                       +
  +           5        6.905422                                       +
  +           6       10.867490                                       +
  + ----------------------------------------------------------------- +
  +  Spin=2 kpt=   16 (  0.291667 -0.291667  0.208333) kpt-group=  1  +
  + ----------------------------------------------------------------- +
  +                                                                   +
  +           1        0.941954                                       +
  +           2        3.706086                                       +
  +           3        4.545303                                       +
  +           4        4.900380                                       +
  +           5        5.856106                                       +
  +           6        7.027346                                       +
  + ----------------------------------------------------------------- +
  +  Spin=2 kpt=   17 (  0.291667  0.291667 -0.041667) kpt-group=  1  +
  + ----------------------------------------------------------------- +
  +                                                                   +
  +           1        2.393658                                       +
  +           2        3.085008                                       +
  +           3        3.634560                                       +
  +           4        5.911397                                       +
  +           5        6.445771                                       +
  +           6        9.649810                                       +
  + ----------------------------------------------------------------- +
  +  Spin=1 kpt=    1 ( -0.458333  0.458333 -0.458333) kpt-group=  2  +
  + ----------------------------------------------------------------- +
  +                                                                   +
  +           1        0.170760                                       +
  +           2        0.218011                                       +
  +           3        4.590575                                       +
  +           4        4.591971                                       +
  +           5        4.592130                                       +
  +           6       13.250426                                       +
  + ----------------------------------------------------------------- +
  +  Spin=1 kpt=    2 ( -0.375000  0.375000 -0.375000) kpt-group=  2  +
  + ----------------------------------------------------------------- +
  +                                                                   +
  +           1        0.577249                                       +
  +           2        0.658576                                       +
  +           3        3.939689                                       +
  +           4        3.939826                                       +
  +           5        4.299813                                       +
  +           6        9.305434                                       +
  + ----------------------------------------------------------------- +
  +  Spin=1 kpt=    3 ( -0.291667 -0.291667 -0.041667) kpt-group=  2  +
  + ----------------------------------------------------------------- +
  +                                                                   +
  +           1        1.085552                                       +
  +           2        1.669140                                       +
  +           3        2.039865                                       +
  +           4        4.096941                                       +
  +           5        4.200068                                       +
  +           6        9.872251                                       +
  + ----------------------------------------------------------------- +
  +  Spin=1 kpt=    4 ( -0.208333  0.208333 -0.208333) kpt-group=  2  +
  + ----------------------------------------------------------------- +
  +                                                                   +
  +           1       -0.641112                                       +
  +           2        2.373657                                       +
  +           3        2.710012                                       +
  +           4        2.710093                                       +
  +           5        3.272080                                       +
  +           6        4.381333                                       +
  + ----------------------------------------------------------------- +
  +  Spin=1 kpt=    5 ( -0.125000 -0.291667 -0.291667) kpt-group=  2  +
  + ----------------------------------------------------------------- +
  +                                                                   +
  +           1        1.328407                                       +
  +           2        1.799286                                       +
  +           3        1.799540                                       +
  +           4        4.076525                                       +
  +           5        4.077054                                       +
  +           6       11.762151                                       +
  + ----------------------------------------------------------------- +
  +  Spin=1 kpt=    6 ( -0.041667 -0.375000  0.375000) kpt-group=  2  +
  + ----------------------------------------------------------------- +
  +                                                                   +
  +           1       -0.063869                                       +
  +           2        1.664206                                       +
  +           3        3.095760                                       +
  +           4        3.760327                                       +
  +           5        4.302726                                       +
  +           6        4.526293                                       +
  + ----------------------------------------------------------------- +
  +  Spin=1 kpt=    7 ( -0.041667 -0.041667 -0.458333) kpt-group=  2  +
  + ----------------------------------------------------------------- +
  +                                                                   +
  +           1        0.108464                                       +
  +           2        1.470023                                       +
  +           3        3.813831                                       +
  +           4        4.052572                                       +
  +           5        4.125446                                       +
  +           6        6.107552                                       +
  + ----------------------------------------------------------------- +
  +  Spin=1 kpt=    8 ( -0.041667 -0.041667 -0.041667) kpt-group=  2  +
  + ----------------------------------------------------------------- +
  +                                                                   +
  +           1       -3.201247                                       +
  +           2        2.561968                                       +
  +           3        2.561968                                       +
  +           4        2.843993                                       +
  +           5        3.837363                                       +
  +           6        3.837363                                       +
  + ----------------------------------------------------------------- +
  +  Spin=1 kpt=    9 ( -0.041667  0.208333  0.291667) kpt-group=  2  +
  + ----------------------------------------------------------------- +
  +                                                                   +
  +           1        0.624450                                       +
  +           2        1.675204                                       +
  +           3        2.240698                                       +
  +           4        3.635177                                       +
  +           5        4.209421                                       +
  +           6        6.226904                                       +
  + ----------------------------------------------------------------- +
  +  Spin=1 kpt=   10 (  0.125000 -0.125000 -0.291667) kpt-group=  2  +
  + ----------------------------------------------------------------- +
  +                                                                   +
  +           1       -0.367538                                       +
  +           2        2.186720                                       +
  +           3        2.212424                                       +
  +           4        3.325545                                       +
  +           5        3.900053                                       +
  +           6        4.400951                                       +
  + ----------------------------------------------------------------- +
  +  Spin=1 kpt=   11 (  0.125000 -0.041667  0.375000) kpt-group=  2  +
  + ----------------------------------------------------------------- +
  +                                                                   +
  +           1        0.253372                                       +
  +           2        1.730505                                       +
  +           3        2.880822                                       +
  +           4        3.710386                                       +
  +           5        4.449716                                       +
  +           6        5.888407                                       +
  + ----------------------------------------------------------------- +
  +  Spin=1 kpt=   12 (  0.125000  0.125000  0.125000) kpt-group=  2  +
  + ----------------------------------------------------------------- +
  +                                                                   +
  +           1       -0.410547                                       +
  +           2        1.764481                                       +
  +           3        1.764481                                       +
  +           4        3.870327                                       +
  +           5        3.870327                                       +
  +           6        4.727966                                       +
  + ----------------------------------------------------------------- +
  +  Spin=1 kpt=   13 (  0.125000  0.291667  0.125000) kpt-group=  2  +
  + ----------------------------------------------------------------- +
  +                                                                   +
  +           1        0.871250                                       +
  +           2        1.607819                                       +
  +           3        2.397472                                       +
  +           4        3.981285                                       +
  +           5        4.136766                                       +
  +           6        7.443164                                       +
  + ----------------------------------------------------------------- +
  +  Spin=1 kpt=   14 (  0.208333  0.208333  0.041667) kpt-group=  2  +
  + ----------------------------------------------------------------- +
  +                                                                   +
  +           1        0.560779                                       +
  +           2        1.633328                                       +
  +           3        1.934296                                       +
  +           4        3.837112                                       +
  +           5        4.016640                                       +
  +           6        5.944465                                       +
  + ----------------------------------------------------------------- +
  +  Spin=1 kpt=   15 (  0.291667 -0.375000 -0.458333) kpt-group=  2  +
  + ----------------------------------------------------------------- +
  +                                                                   +
  +           1        0.618815                                       +
  +           2        0.718533                                       +
  +           3        3.370712                                       +
  +           4        4.191072                                       +
  +           5        4.661068                                       +
  +           6       11.769150                                       +
  + ----------------------------------------------------------------- +
  +  Spin=1 kpt=   16 (  0.291667 -0.291667  0.291667) kpt-group=  2  +
  + ----------------------------------------------------------------- +
  +                                                                   +
  +           1        0.711985                                       +
  +           2        1.438616                                       +
  +           3        3.211948                                       +
  +           4        3.212050                                       +
  +           5        3.812952                                       +
  +           6        6.051249                                       +
  + ----------------------------------------------------------------- +
  +  Spin=1 kpt=   17 (  0.375000  0.208333 -0.041667) kpt-group=  2  +
  + ----------------------------------------------------------------- +
  +                                                                   +
  +           1        0.685595                                       +
  +           2        1.707718                                       +
  +           3        2.444626                                       +
  +           4        3.746218                                       +
  +           5        4.418599                                       +
  +           6        7.877594                                       +
  + ----------------------------------------------------------------- +
  +  Spin=2 kpt=    1 ( -0.458333  0.458333 -0.458333) kpt-group=  2  +
  + ----------------------------------------------------------------- +
  +                                                                   +
  +           1        1.766174                                       +
  +           2        1.791411                                       +
  +           3        6.693742                                       +
  +           4        6.696516                                       +
  +           5        6.726818                                       +
  +           6       13.848492                                       +
  + ----------------------------------------------------------------- +
  +  Spin=2 kpt=    2 ( -0.375000  0.375000 -0.375000) kpt-group=  2  +
  + ----------------------------------------------------------------- +
  +                                                                   +
  +           1        2.034844                                       +
  +           2        2.315912                                       +
  +           3        5.885183                                       +
  +           4        5.887666                                       +
  +           5        6.396915                                       +
  +           6       10.288414                                       +
  + ----------------------------------------------------------------- +
  +  Spin=2 kpt=    3 ( -0.291667 -0.291667 -0.041667) kpt-group=  2  +
  + ----------------------------------------------------------------- +
  +                                                                   +
  +           1        2.564976                                       +
  +           2        3.128529                                       +
  +           3        3.421424                                       +
  +           4        6.302450                                       +
  +           5        6.429611                                       +
  +           6       11.130515                                       +
  + ----------------------------------------------------------------- +
  +  Spin=2 kpt=    4 ( -0.208333  0.208333 -0.208333) kpt-group=  2  +
  + ----------------------------------------------------------------- +
  +                                                                   +
  +           1       -0.136595                                       +
  +           2        4.339873                                       +
  +           3        4.529200                                       +
  +           4        4.531292                                       +
  +           5        5.233515                                       +
  +           6        6.579946                                       +
  + ----------------------------------------------------------------- +
  +  Spin=2 kpt=    5 ( -0.125000 -0.291667 -0.291667) kpt-group=  2  +
  + ----------------------------------------------------------------- +
  +                                                                   +
  +           1        2.815643                                       +
  +           2        3.200914                                       +
  +           3        3.204922                                       +
  +           4        6.356452                                       +
  +           5        6.361028                                       +
  +           6       12.873935                                       +
  + ----------------------------------------------------------------- +
  +  Spin=2 kpt=    6 ( -0.041667 -0.375000  0.375000) kpt-group=  2  +
  + ----------------------------------------------------------------- +
  +                                                                   +
  +           1        0.886594                                       +
  +           2        3.388313                                       +
  +           3        4.291433                                       +
  +           4        5.884740                                       +
  +           5        6.408260                                       +
  +           6        6.628292                                       +
  + ----------------------------------------------------------------- +
  +  Spin=2 kpt=    7 ( -0.041667 -0.041667 -0.458333) kpt-group=  2  +
  + ----------------------------------------------------------------- +
  +                                                                   +
  +           1        1.379465                                       +
  +           2        3.157096                                       +
  +           3        5.123436                                       +
  +           4        6.005101                                       +
  +           5        6.356986                                       +
  +           6        7.637783                                       +
  + ----------------------------------------------------------------- +
  +  Spin=2 kpt=    8 ( -0.041667 -0.041667 -0.041667) kpt-group=  2  +
  + ----------------------------------------------------------------- +
  +                                                                   +
  +           1       -2.813081                                       +
  +           2        4.402255                                       +
  +           3        4.402255                                       +
  +           4        4.731710                                       +
  +           5        6.073184                                       +
  +           6        6.073184                                       +
  + ----------------------------------------------------------------- +
  +  Spin=2 kpt=    9 ( -0.041667  0.208333  0.291667) kpt-group=  2  +
  + ----------------------------------------------------------------- +
  +                                                                   +
  +           1        1.641925                                       +
  +           2        3.299131                                       +
  +           3        3.759439                                       +
  +           4        5.736938                                       +
  +           5        6.401581                                       +
  +           6        7.942535                                       +
  + ----------------------------------------------------------------- +
  +  Spin=2 kpt=   10 (  0.125000 -0.125000 -0.291667) kpt-group=  2  +
  + ----------------------------------------------------------------- +
  +                                                                   +
  +           1        0.219340                                       +
  +           2        3.890527                                       +
  +           3        3.984690                                       +
  +           4        5.335663                                       +
  +           5        5.916089                                       +
  +           6        6.565843                                       +
  + ----------------------------------------------------------------- +
  +  Spin=2 kpt=   11 (  0.125000 -0.041667  0.375000) kpt-group=  2  +
  + ----------------------------------------------------------------- +
  +                                                                   +
  +           1        1.415561                                       +
  +           2        3.426885                                       +
  +           3        4.185242                                       +
  +           4        5.841129                                       +
  +           5        6.582140                                       +
  +           6        7.568310                                       +
  + ----------------------------------------------------------------- +
  +  Spin=2 kpt=   12 (  0.125000  0.125000  0.125000) kpt-group=  2  +
  + ----------------------------------------------------------------- +
  +                                                                   +
  +           1        0.091148                                       +
  +           2        3.467875                                       +
  +           3        3.467875                                       +
  +           4        6.110791                                       +
  +           5        6.110791                                       +
  +           6        6.669687                                       +
  + ----------------------------------------------------------------- +
  +  Spin=2 kpt=   13 (  0.125000  0.291667  0.125000) kpt-group=  2  +
  + ----------------------------------------------------------------- +
  +                                                                   +
  +           1        2.061983                                       +
  +           2        3.213230                                       +
  +           3        3.651665                                       +
  +           4        6.213837                                       +
  +           5        6.431131                                       +
  +           6        8.999476                                       +
  + ----------------------------------------------------------------- +
  +  Spin=2 kpt=   14 (  0.208333  0.208333  0.041667) kpt-group=  2  +
  + ----------------------------------------------------------------- +
  +                                                                   +
  +           1        1.399559                                       +
  +           2        3.247121                                       +
  +           3        3.469284                                       +
  +           4        6.018096                                       +
  +           5        6.291578                                       +
  +           6        7.751513                                       +
  + ----------------------------------------------------------------- +
  +  Spin=2 kpt=   15 (  0.291667 -0.375000 -0.458333) kpt-group=  2  +
  + ----------------------------------------------------------------- +
  +                                                                   +
  +           1        2.208128                                       +
  +           2        2.271454                                       +
  +           3        5.218933                                       +
  +           4        6.192697                                       +
  +           5        6.777000                                       +
  +           6       12.656614                                       +
  + ----------------------------------------------------------------- +
  +  Spin=2 kpt=   16 (  0.291667 -0.291667  0.291667) kpt-group=  2  +
  + ----------------------------------------------------------------- +
  +                                                                   +
  +           1        1.670342                                       +
  +           2        3.228767                                       +
  +           3        5.053728                                       +
  +           4        5.055979                                       +
  +           5        5.844974                                       +
  +           6        7.700215                                       +
  + ----------------------------------------------------------------- +
  +  Spin=2 kpt=   17 (  0.375000  0.208333 -0.041667) kpt-group=  2  +
  + ----------------------------------------------------------------- +
  +                                                                   +
  +           1        2.015820                                       +
  +           2        3.354238                                       +
  +           3        3.834353                                       +
  +           4        5.868355                                       +
  +           5        6.571527                                       +
  +           6        9.239301                                       +
  + ----------------------------------------------------------------- +
  +  Spin=1 kpt=    1 ( -0.458333  0.458333 -0.375000) kpt-group=  3  +
  + ----------------------------------------------------------------- +
  +                                                                   +
  +           1        0.417709                                       +
  +           2        0.480145                                       +
  +           3        4.097072                                       +
  +           4        4.201556                                       +
  +           5        4.695156                                       +
  +           6       11.521146                                       +
  + ----------------------------------------------------------------- +
  +  Spin=1 kpt=    2 ( -0.375000  0.458333 -0.291667) kpt-group=  3  +
  + ----------------------------------------------------------------- +
  +                                                                   +
  +           1        0.902469                                       +
  +           2        1.257576                                       +
  +           3        2.709828                                       +
  +           4        3.561859                                       +
  +           5        4.551126                                       +
  +           6        8.150854                                       +
  + ----------------------------------------------------------------- +
  +  Spin=1 kpt=    3 ( -0.208333 -0.208333 -0.291667) kpt-group=  3  +
  + ----------------------------------------------------------------- +
  +                                                                   +
  +           1        1.482237                                       +
  +           2        1.489787                                       +
  +           3        1.857127                                       +
  +           4        4.040410                                       +
  +           5        4.046060                                       +
  +           6       11.461106                                       +
  + ----------------------------------------------------------------- +
  +  Spin=1 kpt=    4 ( -0.208333  0.291667 -0.208333) kpt-group=  3  +
  + ----------------------------------------------------------------- +
  +                                                                   +
  +           1       -0.477446                                       +
  +           2        2.121771                                       +
  +           3        2.466801                                       +
  +           4        3.027616                                       +
  +           5        3.731257                                       +
  +           6        4.430861                                       +
  + ----------------------------------------------------------------- +
  +  Spin=1 kpt=    5 ( -0.125000 -0.041667 -0.375000) kpt-group=  3  +
  + ----------------------------------------------------------------- +
  +                                                                   +
  +           1        0.427119                                       +
  +           2        1.554938                                       +
  +           3        3.089315                                       +
  +           4        3.871260                                       +
  +           5        4.134925                                       +
  +           6        7.099425                                       +
  + ----------------------------------------------------------------- +
  +  Spin=1 kpt=    6 ( -0.041667 -0.291667 -0.041667) kpt-group=  3  +
  + ----------------------------------------------------------------- +
  +                                                                   +
  +           1       -0.258694                                       +
  +           2        1.723476                                       +
  +           3        2.576299                                       +
  +           4        3.821420                                       +
  +           5        3.977342                                       +
  +           6        4.566314                                       +
  + ----------------------------------------------------------------- +
  +  Spin=1 kpt=    7 ( -0.041667 -0.041667 -0.375000) kpt-group=  3  +
  + ----------------------------------------------------------------- +
  +                                                                   +
  +           1        0.083968                                       +
  +           2        1.527289                                       +
  +           3        3.549870                                       +
  +           4        3.832929                                       +
  +           5        4.012550                                       +
  +           6        5.431205                                       +
  + ----------------------------------------------------------------- +
  +  Spin=1 kpt=    8 ( -0.041667  0.041667 -0.041667) kpt-group=  3  +
  + ----------------------------------------------------------------- +
  +                                                                   +
  +           1       -3.476369                                       +
  +           2        2.849687                                       +
  +           3        2.849776                                       +
  +           4        2.885910                                       +
  +           5        3.892253                                       +
  +           6        3.980504                                       +
  + ----------------------------------------------------------------- +
  +  Spin=1 kpt=    9 ( -0.041667  0.458333 -0.458333) kpt-group=  3  +
  + ----------------------------------------------------------------- +
  +                                                                   +
  +           1        0.068081                                       +
  +           2        1.548999                                       +
  +           3        3.650963                                       +
  +           4        3.837294                                       +
  +           5        4.923710                                       +
  +           6        5.282012                                       +
  + ----------------------------------------------------------------- +
  +  Spin=1 kpt=   10 (  0.125000 -0.125000  0.125000) kpt-group=  3  +
  + ----------------------------------------------------------------- +
  +                                                                   +
  +           1       -2.408038                                       +
  +           2        2.500097                                       +
  +           3        2.500165                                       +
  +           4        3.048950                                       +
  +           5        3.253892                                       +
  +           6        4.073149                                       +
[...]
  +  Spin=1 kpt=   12 (  0.125000  0.208333  0.125000) kpt-group=  4  +
  + ----------------------------------------------------------------- +
  +                                                                   +
  +           1        0.574213                                       +
  +           2        1.615908                                       +
  +           3        1.779474                                       +
  +           4        3.931212                                       +
  +           5        4.041651                                       +
  +           6        5.901137                                       +
  + ----------------------------------------------------------------- +
  +  Spin=1 kpt=   13 (  0.208333  0.125000  0.208333) kpt-group=  4  +
  + ----------------------------------------------------------------- +
  +                                                                   +
  +           1        1.260728                                       +
  +           2        1.560546                                       +
  +           3        1.803181                                       +
  +           4        4.054206                                       +
  +           5        4.091849                                       +
  +           6        7.511092                                       +
  + ----------------------------------------------------------------- +
  +  Spin=1 kpt=   14 (  0.291667 -0.458333  0.291667) kpt-group=  4  +
  + ----------------------------------------------------------------- +
  +                                                                   +
  +           1        1.013523                                       +
  +           2        1.469178                                       +
  +           3        2.441158                                       +
  +           4        3.566468                                       +
  +           5        4.386069                                       +
  +           6        7.010617                                       +
  + ----------------------------------------------------------------- +
  +  Spin=1 kpt=   15 (  0.291667 -0.291667 -0.375000) kpt-group=  4  +
  + ----------------------------------------------------------------- +
  +                                                                   +
  +           1        0.804740                                       +
  +           2        1.068175                                       +
  +           3        3.323992                                       +
  +           4        3.480549                                       +
  +           5        4.384849                                       +
  +           6        7.620662                                       +
  + ----------------------------------------------------------------- +
  +  Spin=1 kpt=   16 (  0.291667  0.125000  0.208333) kpt-group=  4  +
  + ----------------------------------------------------------------- +
  +                                                                   +
  +           1        1.198930                                       +
  +           2        1.575166                                       +
  +           3        2.151547                                       +
  +           4        4.069884                                       +
  +           5        4.130344                                       +
  +           6        9.469912                                       +
  + ----------------------------------------------------------------- +
  +  Spin=1 kpt=   17 (  0.375000  0.375000  0.375000) kpt-group=  4  +
  + ----------------------------------------------------------------- +
  +                                                                   +
  +           1        1.436242                                       +
  +           2        1.436242                                       +
  +           3        1.906274                                       +
  +           4        4.161061                                       +
  +           5        4.161061                                       +
  +           6       11.542690                                       +
  + ----------------------------------------------------------------- +
  +  Spin=2 kpt=    1 ( -0.375000  0.291667 -0.375000) kpt-group=  4  +
  + ----------------------------------------------------------------- +
  +                                                                   +
  +           1        2.186545                                       +
  +           2        2.389458                                       +
  +           3        5.247248                                       +
  +           4        5.935358                                       +
  +           5        6.658483                                       +
  +           6       10.670925                                       +
  + ----------------------------------------------------------------- +
  +  Spin=2 kpt=    2 ( -0.291667 -0.458333 -0.375000) kpt-group=  4  +
  + ----------------------------------------------------------------- +
  +                                                                   +
  +           1        2.480555                                       +
  +           2        3.094400                                       +
  +           3        3.779179                                       +
  +           4        5.756192                                       +
  +           5        6.537523                                       +
  +           6       10.341619                                       +
  + ----------------------------------------------------------------- +
  +  Spin=2 kpt=    3 ( -0.208333  0.125000 -0.458333) kpt-group=  4  +
  + ----------------------------------------------------------------- +
  +                                                                   +
  +           1        2.028805                                       +
  +           2        3.619016                                       +
  +           3        3.843301                                       +
  +           4        5.593074                                       +
  +           5        6.894255                                       +
  +           6        9.381752                                       +
  + ----------------------------------------------------------------- +
  +  Spin=2 kpt=    4 ( -0.208333  0.375000 -0.375000) kpt-group=  4  +
  + ----------------------------------------------------------------- +
  +                                                                   +
  +           1        1.810813                                       +
  +           2        3.254290                                       +
  +           3        4.415194                                       +
  +           4        5.248199                                       +
  +           5        6.514024                                       +
  +           6        7.933294                                       +
  + ----------------------------------------------------------------- +
  +  Spin=2 kpt=    5 ( -0.125000  0.125000  0.458333) kpt-group=  4  +
  + ----------------------------------------------------------------- +
  +                                                                   +
  +           1        1.658646                                       +
  +           2        3.701593                                       +
  +           3        4.054172                                       +
  +           4        5.649903                                       +
  +           5        7.036070                                       +
  +           6        7.997699                                       +
  + ----------------------------------------------------------------- +
  +  Spin=2 kpt=    6 ( -0.041667 -0.291667  0.291667) kpt-group=  4  +
  + ----------------------------------------------------------------- +
  +                                                                   +
  +           1       -0.210465                                       +
  +           2        3.648732                                       +
  +           3        3.998827                                       +
  +           4        5.745176                                       +
  +           5        5.954165                                       +
  +           6        6.276069                                       +
  + ----------------------------------------------------------------- +
  +  Spin=2 kpt=    7 ( -0.041667 -0.041667 -0.208333) kpt-group=  4  +
  + ----------------------------------------------------------------- +
  +                                                                   +
  +           1       -0.810675                                       +
  +           2        3.795562                                       +
  +           3        3.967933                                       +
  +           4        5.793102                                       +
  +           5        5.925426                                       +
  +           6        6.179734                                       +
  + ----------------------------------------------------------------- +
  +  Spin=2 kpt=    8 ( -0.041667  0.125000  0.041667) kpt-group=  4  +
  + ----------------------------------------------------------------- +
  +                                                                   +
  +           1       -2.540886                                       +
  +           2        4.359681                                       +
  +           3        4.364004                                       +
  +           4        4.714425                                       +
  +           5        5.831282                                       +
  +           6        6.140294                                       +
  + ----------------------------------------------------------------- +
  +  Spin=2 kpt=    9 (  0.125000 -0.375000  0.375000) kpt-group=  4  +
  + ----------------------------------------------------------------- +
  +                                                                   +
  +           1        1.275531                                       +
  +           2        3.764432                                       +
  +           3        3.788408                                       +
  +           4        5.565861                                       +
  +           5        6.593942                                       +
  +           6        7.089530                                       +
  + ----------------------------------------------------------------- +
  +  Spin=2 kpt=   10 (  0.125000 -0.041667  0.125000) kpt-group=  4  +
  + ----------------------------------------------------------------- +
  +                                                                   +
  +           1       -1.756293                                       +
  +           2        4.174733                                       +
  +           3        4.242845                                       +
  +           4        5.207660                                       +
  +           5        5.640722                                       +
  +           6        6.280368                                       +
  + ----------------------------------------------------------------- +
  +  Spin=2 kpt=   11 (  0.125000  0.041667  0.291667) kpt-group=  4  +
  + ----------------------------------------------------------------- +
  +                                                                   +
  +           1        1.327667                                       +
  +           2        3.278338                                       +
  +           3        3.779351                                       +
  +           4        6.003403                                       +
  +           5        6.331586                                       +
  +           6        7.607570                                       +
  + ----------------------------------------------------------------- +
  +  Spin=2 kpt=   12 (  0.125000  0.208333  0.125000) kpt-group=  4  +
  + ----------------------------------------------------------------- +
  +                                                                   +
  +           1        1.318023                                       +
  +           2        3.266017                                       +
  +           3        3.320109                                       +
  +           4        6.162842                                       +
  +           5        6.313766                                       +
  +           6        7.732888                                       +
  + ----------------------------------------------------------------- +
  +  Spin=2 kpt=   13 (  0.208333  0.125000  0.208333) kpt-group=  4  +
  + ----------------------------------------------------------------- +
  +                                                                   +
  +           1        2.324626                                       +
  +           2        3.107096                                       +
  +           3        3.254009                                       +
  +           4        6.303188                                       +
  +           5        6.379524                                       +
  +           6        9.110055                                       +
  + ----------------------------------------------------------------- +
  +  Spin=2 kpt=   14 (  0.291667 -0.458333  0.291667) kpt-group=  4  +
  + ----------------------------------------------------------------- +
  +                                                                   +
  +           1        2.109386                                       +
  +           2        3.119198                                       +
  +           3        4.134387                                       +
  +           4        5.555520                                       +
  +           5        6.488870                                       +
  +           6        8.554119                                       +
  + ----------------------------------------------------------------- +
  +  Spin=2 kpt=   15 (  0.291667 -0.291667 -0.375000) kpt-group=  4  +
  + ----------------------------------------------------------------- +
  +                                                                   +
  +           1        2.087502                                       +
  +           2        2.761301                                       +
  +           3        5.187494                                       +
  +           4        5.369103                                       +
  +           5        6.463008                                       +
  +           6        8.885911                                       +
  + ----------------------------------------------------------------- +
  +  Spin=2 kpt=   16 (  0.291667  0.125000  0.208333) kpt-group=  4  +
  + ----------------------------------------------------------------- +
  +                                                                   +
  +           1        2.581107                                       +
  +           2        3.099490                                       +
  +           3        3.463946                                       +
  +           4        6.337204                                       +
  +           5        6.417633                                       +
  +           6       10.764421                                       +
  + ----------------------------------------------------------------- +
  +  Spin=2 kpt=   17 (  0.375000  0.375000  0.375000) kpt-group=  4  +
  + ----------------------------------------------------------------- +
  +                                                                   +
  +           1        2.955863                                       +
  +           2        2.955863                                       +
  +           3        3.508971                                       +
  +           4        6.223215                                       +
  +           5        6.223215                                       +
  +           6       12.660489                                       +
  =====================================================================

Writing model to Fe.orbitals
  + Calculation re-parallelised over 4 processes.                     +
  + Data distributed by G-vector(2-way), k-point(2-way)               +

 ******************** Symmetrised Forces ********************
 *                                                          *
 *               Cartesian components (eV/A)                *
 * -------------------------------------------------------- *
 *                         x            y            z      *
 *                                                          *
 * Fe              1      0.00000      0.00000      0.00000 *
 *                                                          *
 ************************************************************

 Pseudo atomic calculation performed for Fe 3d6 4s2

 Converged in 29 iterations to a total energy of -847.0421 eV

Charge spilling parameter for spin component 1 = 0.11%
Charge spilling parameter for spin component 2 = 0.38%

                   Orbital Populations                  
  ---------------------------------------------------------------
     Ion    Atom   Orbital              Up        Down      Spin
  ---------------------------------------------------------------
     Fe     1      Dzz                  0.957     0.374     0.583
     Fe     1      Dzy                  0.875     0.509     0.366
     Fe     1      Dzx                  0.879     0.490     0.389
     Fe     1      Dxx-yy               0.916     0.297     0.619
     Fe     1      Dxy                  0.887     0.498     0.390
     Fe     1      S                    0.322     0.343    -0.020
     Fe     1      Px                   0.123     0.162    -0.039
     Fe     1      Py                   0.085     0.123    -0.038
     Fe     1      Pz                   0.067     0.093    -0.026
  ---------------------------------------------------------------
                           Total:       5.111     2.889     2.222
  ---------------------------------------------------------------

     Atomic Populations (Mulliken)
     -----------------------------
Species          Ion Spin      s      p      d      f     Total  Charge(e)   Spin(hbar/2)
=========================================================================================
  Fe              1   up:     0.32   0.28   4.51   0.00   5.11     0.00        2.22
                  1   dn:     0.34   0.38   2.17   0.00   2.89
=========================================================================================

                 Bond                   Population        Spin       Length (A)
================================================================================
================================================================================


Writing analysis data to Fe.castep_bin

Writing model to Fe.check
 
 A BibTeX formatted list of references used in this run has been written to 
 Fe.bib
 
Initialisation time =     23.02 s
Calculation time    =     17.33 s
Finalisation time   =      0.07 s
Total time          =     40.42 s
Peak Memory Use     = 648552 kB
  
Overall parallel efficiency rating: Poor (46%)                                  
  
Data was distributed by:-
G-vector (2-way); efficiency rating: Satisfactory (61%)                         
k-point (2-way); efficiency rating: Satisfactory (67%)                          
  
Parallel notes:
1) Calculation only took 40.4 s, so efficiency estimates may be inaccurate.     
