 +-------------------------------------------------+
 |                                                 |
 |      CCC   AA    SSS  TTTTT  EEEEE  PPPP        |
 |     C     A  A  S       T    E      P   P       |
 |     C     AAAA   SS     T    EEE    PPPP        |
 |     C     A  A     S    T    E      P           |
 |      CCC  A  A  SSS     T    EEEEE  P           |
 |                                                 |
 +-------------------------------------------------+
 |                                                 |
 | Welcome to Academic Release CASTEP version 18.1 |          
 | Ab Initio Total Energy Program                  |
 |                                                 |
 | Authors:                                        |
 | M. Segall, M. Probert, C. Pickard, P. Hasnip,   |
 | S. Clark, K. Refson, J. R. Yates, M. Payne      |
 |                                                 |
 | Contributors:                                   |
 | P. Lindan, P. Haynes, J. White, V. Milman,      |
 | N. Govind, M. Gibson, P. Tulip, V. Cocula,      |
 | B. Montanari, D. Quigley, M. Glover,            |
 | L. Bernasconi, A. Perlov, M. Plummer,           |
 | E. McNellis, J. Meyer, J. Gale, D. Jochym       |
 | J. Aarons, B. Walker, R. Gillen, D. Jones       |
 | T. Green, I. J. Bush, C. J. Armstrong,          |
 | E. J. Higgins, E. L. Brown, M. S. McFly,        |
 | J. Wilkins, B-C. Shih, P. J. P. Byrne           |
 |                                                 |
 | Copyright (c) 2000 - 2017                       |
 |                                                 |
 |     Distributed under the terms of an           |
 |     Agreement between the United Kingdom        |
 |     Car-Parrinello (UKCP) Consortium,           |
 |     Daresbury Laboratory and Accelrys, Inc.     |
 |                                                 |
 | Please cite                                     |
 |                                                 |
 |     "First principles methods using CASTEP"     |
 |                                                 |
 |         Zeitschrift fuer Kristallographie       |
 |           220(5-6) pp. 567-570 (2005)           |
 |                                                 |
 | S. J. Clark, M. D. Segall, C. J. Pickard,       |
 | P. J. Hasnip, M. J. Probert, K. Refson,         |
 | M. C. Payne                                     |
 |                                                 |
 |       in all publications arising from          |
 |              your use of CASTEP                 |
 |                                                 |
 +-------------------------------------------------+


 Compiled for linux_x86_64_gfortran4.8 on Thu, 19 Jul 2018 15:42:32 +0100
 from code version 70483bd0ad64+  Sun, 10 Dec 2017 12:18:29 +0000
 Compiler: GNU Fortran 4.8.5; Optimisation: fast
 MATHLIBS: Intel MKL(2018.0.0) (LAPACK version 3.7.0)
 FFT Lib : mkl
 Fundamental constants values: CODATA 2014

 Run started: Thu, 23 Jul 2020 10:29:42 +0100

 Atomic calculation performed for H: 1s1

 Converged in 41 iterations to an ae energy of -12.488 eV

   ============================================================                
   | Pseudopotential Report - Date of generation 23-07-2020   |                
   ------------------------------------------------------------                
   | Element: H Ionic charge:  1.00 Level of theory: PBE      |                
   | Atomic Solver: Koelling-Harmon                           |                
   |                                                          |                
   |               Reference Electronic Structure             |                
   |         Orbital         Occupation         Energy        |                
   |            1s              1.000           -0.239        |                
   |                                                          |                
   |                 Pseudopotential Definition               |                
   |        Beta     l      e      Rc     scheme   norm       |                
   |         loc     0   -0.239   0.702     qc      1         |                
   |                                                          |                
   | No charge augmentation                                   |                
   | No partial core correction                               |                
   ------------------------------------------------------------                
   | "0|0.7|2|6|8|10L(qc=10)"                                 |                
   ------------------------------------------------------------                
   |      Author: Chris J. Pickard, Cambridge University      |                
   ============================================================                

 Pseudo atomic calculation performed for H 1s1

 Converged in 20 iterations to a total energy of -12.4843 eV

 Calculation parallelised over 8 processes.
 Data is distributed by G-vector(8-way)

 ************************************ Title ************************************
 

 ***************************** General Parameters ******************************
  
 output verbosity                               : normal  (1)
 write checkpoint data to                       : Cmca-12.check
 type of calculation                            : geometry optimization
 stress calculation                             : off
 density difference calculation                 : off
 electron localisation func (ELF) calculation   : off
 Hirshfeld analysis                             : off
 unlimited duration calculation
 timing information                             : on
 memory usage estimate                          : on
 write extra output files                       : on
 write final potential to formatted file        : off
 write final density to formatted file          : off
 write structure in CELL formatted file         : on
 write BibTeX reference list                    : on
 write OTFG pseudopotential files               : on
 write electrostatic potential file             : on
 write bands file                               : on
 checkpoint writing                             : both castep_bin and check files
  
 output         length unit                     : A
 output           mass unit                     : amu
 output           time unit                     : ps
 output         charge unit                     : e
 output           spin unit                     : hbar/2
 output         energy unit                     : eV
 output          force unit                     : eV/A
 output       velocity unit                     : A/ps
 output       pressure unit                     : GPa
 output     inv_length unit                     : 1/A
 output      frequency unit                     : cm-1
 output force constant unit                     : eV/A**2
 output         volume unit                     : A**3
 output   IR intensity unit                     : (D/A)**2/amu
 output         dipole unit                     : D
 output         efield unit                     : eV/A/e
 output        entropy unit                     : J/mol/K
  
 wavefunctions paging                           : none
 random number generator seed                   : randomised (102942807)
 data distribution                              : optimal for this architecture
 optimization strategy                          : maximize speed(+++)

 *********************** Exchange-Correlation Parameters ***********************
  
 using functional                               : Perdew Burke Ernzerhof
 relativistic treatment                         : Koelling-Harmon
 DFT+D: Semi-empirical dispersion correction    : off

 ************************* Pseudopotential Parameters **************************
  
 pseudopotential representation                 : reciprocal space
 <beta|phi> representation                      : reciprocal space
 spin-orbit coupling                            : off

 **************************** Basis Set Parameters *****************************
  
 plane wave basis set cut-off                   :  1200.0000   eV
 size of standard grid                          :     2.0000
 size of   fine   gmax                          :    35.4943   1/A
 finite basis set correction                    : automatic
 number of sample energies                      :          3
           sample  spacing                      :     5.0000   eV

 **************************** Electronic Parameters ****************************
  
 number of  electrons                           :  24.00    
 net charge of system                           :  0.000    
 treating system as non-spin-polarized
 number of bands                                :         12

 ********************* Electronic Minimization Parameters **********************
  
 Method: Treating system as non-metallic,
         and number of  SD  steps               :          1
         and number of  CG  steps               :          4
  
 total energy / atom convergence tol.           : 0.1000E-08   eV
 max force / atom convergence tol.              : ignored
 convergence tolerance window                   :          3   cycles
 max. number of SCF cycles                      :        100
 periodic dipole correction                     : NONE

 *********************** Population Analysis Parameters ************************
  
 Population analysis with cutoff                :  3.000       A
 Population analysis output                     : summary and pdos components

 ********************** Geometry Optimization Parameters ***********************
  
 optimization method                            : LBFGS
 max. no. of LBFGS updates                      : unbounded
 variable cell method                           : fixed basis quality
 max. number of steps                           :        100
 estimated bulk modulus                         :  500.0       GPa
 estimated <frequency>                          :  1668.       cm-1
 geom line minimiser                            : on
 with line minimiser tolerance                  :     0.4000
 total energy convergence tolerance             : 0.1000E-08   eV/atom
        max ionic |force| tolerance             : 0.1000E-04   eV/A
 max ionic |displacement| tolerance             : 0.1000E-04   A
   max |stress component| tolerance             : 0.1000E-04   GPa
 convergence tolerance window                   :          2   steps
 backup results every                           :       7000   seconds
 write geom trajectory file                     : on

 *******************************************************************************
  

                           -------------------------------
                                      Unit Cell
                           -------------------------------
        Real Lattice(A)                      Reciprocal Lattice(1/A)
     3.2691477     0.0000000     0.0000000        1.921964339  -0.000000000   0.000000000
     0.0000000     6.0881285     0.0000000       -0.000000000   1.032038885   0.000000000
     0.0000000     0.0000000     3.1828116        0.000000000   0.000000000   1.974099058

                       Lattice parameters(A)       Cell Angles
                    a =      3.269148          alpha =   90.000000
                    b =      6.088128          beta  =   90.000000
                    c =      3.182812          gamma =   90.000000

                       Current cell volume =            63.347470       A**3
                                   density =             0.381871   AMU/A**3
                                           =             0.634112     g/cm^3

                           -------------------------------
                                     Cell Contents
                           -------------------------------
                         Total number of ions in cell =   24
                      Total number of species in cell =    1
                        Max number of any one species =   24

            xxxxxxxxxxxxxxxxxxxxxxxxxxxxxxxxxxxxxxxxxxxxxxxxxxxxxxxxxxxx
            x  Element    Atom        Fractional coordinates of atoms  x
            x            Number           u          v          w      x
            x----------------------------------------------------------x
            x  H            1        -0.000000   0.000000   0.120406   x 
            x  H            2         0.000000   0.166667   0.379594   x 
            x  H            3        -0.000000   0.333333   0.120406   x 
            x  H            4         0.500000   0.333333   0.379594   x 
            x  H            5         0.500000   0.166667   0.120406   x 
            x  H            6         0.500000   0.000000   0.379594   x 
            x  H            7         0.500000   0.166667   0.879594   x 
            x  H            8         0.500000   0.333333   0.620406   x 
            x  H            9         0.500000   0.500000   0.879594   x 
            x  H           10         0.500000   0.666667   0.620406   x 
            x  H           11         0.500000   0.833333   0.879594   x 
            x  H           12         0.500000   1.000000   0.620406   x 
            x  H           13         0.500000   0.833333   0.120406   x 
            x  H           14         0.500000   0.666667   0.379594   x 
            x  H           15         0.500000   0.500000   0.120406   x 
            x  H           16         0.000000   0.833333   0.379594   x 
            x  H           17        -0.000000   0.666667   0.120406   x 
            x  H           18         0.000000   0.500000   0.379594   x 
            x  H           19         0.000000   0.666667   0.879594   x 
            x  H           20         0.000000   0.833333   0.620406   x 
            x  H           21         0.000000   1.000000   0.879594   x 
            x  H           22        -0.000000   0.166667   0.620406   x 
            x  H           23         0.000000   0.333333   0.879594   x 
            x  H           24        -0.000000   0.500000   0.620406   x 
            xxxxxxxxxxxxxxxxxxxxxxxxxxxxxxxxxxxxxxxxxxxxxxxxxxxxxxxxxxxx


                         No user defined ionic velocities

                           -------------------------------
                                   Details of Species
                           -------------------------------

                               Mass of species in AMU
                                    H    1.0078250

                          Electric Quadrupole Moment (Barn)
                                    H    0.0028600 Isotope  2

                          Files used for pseudopotentials:
                                    H 0|0.7|2|6|8|10L(qc=10)

                           -------------------------------
                              k-Points For BZ Sampling
                           -------------------------------
                       MP grid size for SCF calculation is  2  2  2
                            with an offset of   0.000  0.000  0.000
                       Number of kpoints used =             1

                           -------------------------------
                               Symmetry and Constraints
                           -------------------------------

                      Cell is a supercell containing 12 primitive cells
                      Maximum deviation from symmetry = 0.121665E-13     ANG

                      Number of symmetry operations   =          16
                      Number of ionic constraints     =           3
                      Point group of crystal =     8: D2h, mmm, 2/m 2/m 2/m
                      Space group of crystal =    69: Fmmm, -F 2 2

             Set iprint > 1 for details on symmetry rotations/translations

                         Centre of mass is constrained
             Set iprint > 1 for details of linear ionic constraints

                         Number of cell constraints= 3
                         Cell constraints are:  1 2 3 0 0 0

                         External pressure/stress (GPa)
                         60.00000   0.00000   0.00000
                                   60.00000   0.00000
                                             60.00000
  
+---------------- MEMORY AND SCRATCH DISK ESTIMATES PER PROCESS --------------+
|                                                     Memory          Disk    |
| Baseline code, static data and system overhead      383.0 MB         0.0 MB |
| BLAS internal memory storage                          0.0 MB         0.0 MB |
| Model and support data                                9.5 MB         0.0 MB |
| Electronic energy minimisation requirements           3.4 MB         0.0 MB |
| Force calculation requirements                        2.2 MB         0.0 MB |
|                                               ----------------------------- |
| Approx. total storage required per process          395.8 MB         0.0 MB |
|                                                                             |
| Requirements will fluctuate during execution and may exceed these estimates |
+-----------------------------------------------------------------------------+
Calculating finite basis set correction with  3 cut-off energies.
Calculating total energy with cut-off of 1190.000 eV.
------------------------------------------------------------------------ <-- SCF
SCF loop      Energy                           Energy gain       Timer   <-- SCF
                                               per atom          (sec)   <-- SCF
------------------------------------------------------------------------ <-- SCF
Initial   7.95891783E+002                                         17.41  <-- SCF
      1  -3.20127663E+002                    4.65008103E+001      53.96  <-- SCF
      2  -3.66033422E+002                    1.91273996E+000      87.89  <-- SCF
      3  -3.68806405E+002                    1.15540953E-001     122.41  <-- SCF
      4  -3.68806825E+002                    1.75147078E-005     158.66  <-- SCF
      5  -3.68806825E+002                    5.25801248E-009     193.91  <-- SCF
      6  -3.68806825E+002                    1.93751336E-012     236.19  <-- SCF
      7  -3.68806825E+002                    5.43792731E-014     296.98  <-- SCF
------------------------------------------------------------------------ <-- SCF
 
Final energy =  -368.8068254328     eV
(energy not corrected for finite basis set)
 
Calculating total energy with cut-off of 1195.000 eV.
------------------------------------------------------------------------ <-- SCF
SCF loop      Energy                           Energy gain       Timer   <-- SCF
                                               per atom          (sec)   <-- SCF
------------------------------------------------------------------------ <-- SCF
Initial  -3.68806825E+002                                        311.45  <-- SCF
      1  -3.68808476E+002                    6.87802460E-005     347.50  <-- SCF
      2  -3.68808476E+002                    9.06321219E-014     414.01  <-- SCF
      3  -3.68808476E+002                    5.23652260E-014     479.11  <-- SCF
------------------------------------------------------------------------ <-- SCF
 
Final energy =  -368.8084761587     eV
(energy not corrected for finite basis set)
 
Calculating total energy with cut-off of 1200.000 eV.
------------------------------------------------------------------------ <-- SCF
SCF loop      Energy                           Energy gain       Timer   <-- SCF
                                               per atom          (sec)   <-- SCF
------------------------------------------------------------------------ <-- SCF
Initial  -3.68808476E+002                                        491.74  <-- SCF
      1  -3.68809596E+002                    4.66778858E-005     529.85  <-- SCF
      2  -3.68809596E+002                    1.89320432E-013     591.40  <-- SCF
      3  -3.68809596E+002                    1.61123772E-014     651.94  <-- SCF
------------------------------------------------------------------------ <-- SCF
 
Final energy =  -368.8095964279     eV
(energy not corrected for finite basis set)
 
 For future reference: finite basis dEtot/dlog(Ecut) =      -0.398482eV
 Total energy corrected for finite basis set =    -368.809841 eV
 
+---------------- MEMORY AND SCRATCH DISK ESTIMATES PER PROCESS --------------+
|                                                     Memory          Disk    |
| Model and support data                               30.9 MB         0.0 MB |
| Electronic energy minimisation requirements           3.4 MB         0.0 MB |
| Geometry minimisation requirements                    3.8 MB         0.0 MB |
|                                               ----------------------------- |
| Approx. total storage required per process           38.0 MB         0.0 MB |
|                                                                             |
| Requirements will fluctuate during execution and may exceed these estimates |
+-----------------------------------------------------------------------------+
 

 ******************************** Symmetrised Forces ********************************
 *                                                                                  *
 *                           Cartesian components (eV/A)                            *
 * -------------------------------------------------------------------------------- *
 *                         x                    y                    z              *
 *                                                                                  *
 * H               1     -0.00000             -0.00000             -0.00000         *
 * H               2      0.00000             -0.00000              0.00000         *
 * H               3      0.00000              0.00000             -0.00000         *
 * H               4      0.00000              0.00000              0.00000         *
 * H               5     -0.00000             -0.00000             -0.00000         *
 * H               6      0.00000             -0.00000              0.00000         *
 * H               7     -0.00000             -0.00000              0.00000         *
 * H               8      0.00000              0.00000             -0.00000         *
 * H               9      0.00000              0.00000              0.00000         *
 * H              10      0.00000             -0.00000             -0.00000         *
 * H              11     -0.00000              0.00000              0.00000         *
 * H              12     -0.00000              0.00000             -0.00000         *
 * H              13      0.00000              0.00000             -0.00000         *
 * H              14      0.00000             -0.00000              0.00000         *
 * H              15     -0.00000             -0.00000             -0.00000         *
 * H              16      0.00000              0.00000              0.00000         *
 * H              17      0.00000             -0.00000             -0.00000         *
 * H              18      0.00000             -0.00000              0.00000         *
 * H              19     -0.00000             -0.00000              0.00000         *
 * H              20     -0.00000              0.00000             -0.00000         *
 * H              21      0.00000              0.00000              0.00000         *
 * H              22     -0.00000             -0.00000             -0.00000         *
 * H              23     -0.00000              0.00000              0.00000         *
 * H              24     -0.00000              0.00000             -0.00000         *
 *                                                                                  *
 ************************************************************************************

 *********** Symmetrised Stress Tensor ***********
 *                                               *
 *          Cartesian components (GPa)           *
 * --------------------------------------------- *
 *             x             y             z     *
 *                                               *
 *  x    -59.954899      0.000000      0.000000  *
 *  y      0.000000    -59.954913      0.000000  *
 *  z      0.000000      0.000000    -59.954898  *
 *                                               *
 *  Pressure:   59.9549                          *
 *                                               *
 *************************************************
 LBFGS: finished iteration     0 with enthalpy= -3.45086813E+002 eV
  
 +-----------+-----------------+-----------------+------------+-----+ <-- LBFGS
 | Parameter |      value      |    tolerance    |    units   | OK? | <-- LBFGS
 +-----------+-----------------+-----------------+------------+-----+ <-- LBFGS
 |  dE/ion   |   0.000000E+000 |   1.000000E-009 |         eV | No  | <-- LBFGS
 |  |F|max   |   4.346026E-007 |   1.000000E-005 |       eV/A | Yes | <-- LBFGS
 |  |dR|max  |   0.000000E+000 |   1.000000E-005 |          A | No  | <-- LBFGS
 |   Smax    |   4.510236E-002 |   1.000000E-005 |        GPa | No  | <-- LBFGS
 +-----------+-----------------+-----------------+------------+-----+ <-- LBFGS
  

================================================================================
 Starting LBFGS iteration          1 ...
================================================================================
  
 +------------+-------------+-------------+-----------------+ <-- min LBFGS
 |    Step    |   lambda    |   F.delta'  |    enthalpy     | <-- min LBFGS
 +------------+-------------+-------------+-----------------+ <-- min LBFGS
 |  previous  |    0.000000 |    0.001135 |     -345.086813 | <-- min LBFGS
 +------------+-------------+-------------+-----------------+ <-- min LBFGS
  

--------------------------------------------------------------------------------
 LBFGS: starting iteration         1 with trial guess (lambda=  1.000000)
--------------------------------------------------------------------------------

                           -------------------------------
                                      Unit Cell
                           -------------------------------
        Real Lattice(A)              Reciprocal Lattice(1/A)
     3.2690494     0.0000000     0.0000000        1.922022130  -0.000000000   0.000000000
     0.0000000     6.0879455     0.0000000       -0.000000000   1.032069907   0.000000000
     0.0000000     0.0000000     3.1827159        0.000000000   0.000000000   1.974158418

                       Lattice parameters(A)       Cell Angles
                    a =      3.269049          alpha =   90.000000
                    b =      6.087945          beta  =   90.000000
                    c =      3.182716          gamma =   90.000000

                Current cell volume =            63.341757 A**3

                           -------------------------------
                                     Cell Contents
                           -------------------------------

            xxxxxxxxxxxxxxxxxxxxxxxxxxxxxxxxxxxxxxxxxxxxxxxxxxxxxxxxxxxxxxxxx
            x  Element         Atom        Fractional coordinates of atoms  x
            x                 Number           u          v          w      x
            x---------------------------------------------------------------x
            x  H                 1         0.000000   0.000000   0.120406   x
            x  H                 2         0.000000   0.166667   0.379594   x
            x  H                 3        -0.000000   0.333333   0.120406   x
            x  H                 4         0.500000   0.333333   0.379594   x
            x  H                 5         0.500000   0.166667   0.120406   x
            x  H                 6         0.500000   0.000000   0.379594   x
            x  H                 7         0.500000   0.166667   0.879594   x
            x  H                 8         0.500000   0.333333   0.620406   x
            x  H                 9         0.500000   0.500000   0.879594   x
            x  H                10         0.500000   0.666667   0.620406   x
            x  H                11         0.500000   0.833333   0.879594   x
            x  H                12         0.500000   1.000000   0.620406   x
            x  H                13         0.500000   0.833333   0.120406   x
            x  H                14         0.500000   0.666667   0.379594   x
            x  H                15         0.500000   0.500000   0.120406   x
            x  H                16         0.000000   0.833333   0.379594   x
            x  H                17         0.000000   0.666667   0.120406   x
            x  H                18         0.000000   0.500000   0.379594   x
            x  H                19         0.000000   0.666667   0.879594   x
            x  H                20        -0.000000   0.833333   0.620406   x
            x  H                21        -0.000000   1.000000   0.879594   x
            x  H                22         0.000000   0.166667   0.620406   x
            x  H                23        -0.000000   0.333333   0.879594   x
            x  H                24         0.000000   0.500000   0.620406   x
            xxxxxxxxxxxxxxxxxxxxxxxxxxxxxxxxxxxxxxxxxxxxxxxxxxxxxxxxxxxxxxxxx


------------------------------------------------------------------------ <-- SCF
SCF loop      Energy                           Energy gain       Timer   <-- SCF
                                               per atom          (sec)   <-- SCF
------------------------------------------------------------------------ <-- SCF
Initial  -3.68807438E+002                                        674.39  <-- SCF
      1  -3.68807463E+002                    1.04077276E-006     711.98  <-- SCF
      2  -3.68807463E+002                    8.49726494E-012     750.47  <-- SCF
      3  -3.68807463E+002                    0.00000000E+000     823.00  <-- SCF
------------------------------------------------------------------------ <-- SCF
 
Final energy =  -368.8074625852     eV
(energy not corrected for finite basis set)
 

 ******************************** Symmetrised Forces ********************************
 *                                                                                  *
 *                           Cartesian components (eV/A)                            *
 * -------------------------------------------------------------------------------- *
 *                         x                    y                    z              *
 *                                                                                  *
 * H               1      0.00000              0.00000              0.00064         *
 * H               2     -0.00000             -0.00000             -0.00064         *
 * H               3     -0.00000              0.00000              0.00064         *
 * H               4      0.00000              0.00000             -0.00064         *
 * H               5      0.00000             -0.00000              0.00064         *
 * H               6     -0.00000              0.00000             -0.00064         *
 * H               7     -0.00000             -0.00000             -0.00064         *
 * H               8      0.00000              0.00000              0.00064         *
 * H               9     -0.00000             -0.00000             -0.00064         *
 * H              10     -0.00000             -0.00000              0.00064         *
 * H              11      0.00000              0.00000             -0.00064         *
 * H              12     -0.00000             -0.00000              0.00064         *
 * H              13     -0.00000              0.00000              0.00064         *
 * H              14     -0.00000             -0.00000             -0.00064         *
 * H              15      0.00000              0.00000              0.00064         *
 * H              16      0.00000              0.00000             -0.00064         *
 * H              17      0.00000             -0.00000              0.00064         *
 * H              18      0.00000              0.00000             -0.00064         *
 * H              19     -0.00000             -0.00000             -0.00064         *
 * H              20      0.00000              0.00000              0.00064         *
 * H              21     -0.00000             -0.00000             -0.00064         *
 * H              22     -0.00000             -0.00000              0.00064         *
 * H              23      0.00000              0.00000             -0.00064         *
 * H              24     -0.00000             -0.00000              0.00064         *
 *                                                                                  *
 ************************************************************************************

 *********** Symmetrised Stress Tensor ***********
 *                                               *
 *          Cartesian components (GPa)           *
 * --------------------------------------------- *
 *             x             y             z     *
 *                                               *
 *  x    -59.968559     -0.000000      0.000000  *
 *  y     -0.000000    -59.970714      0.000000  *
 *  z      0.000000      0.000000    -59.985702  *
 *                                               *
 *  Pressure:   59.9750                          *
 *                                               *
 *************************************************
  
 +------------+-------------+-------------+-----------------+ <-- min LBFGS
 |    Step    |   lambda    |   F.delta'  |    enthalpy     | <-- min LBFGS
 +------------+-------------+-------------+-----------------+ <-- min LBFGS
 |  previous  |    0.000000 |    0.001135 |     -345.086813 | <-- min LBFGS
 | trial step |    1.000000 |    0.000629 |     -345.086839 | <-- min LBFGS
 +------------+-------------+-------------+-----------------+ <-- min LBFGS
  

--------------------------------------------------------------------------------
 LBFGS: improving iteration         1 with line minimization (lambda=  2.242695)
--------------------------------------------------------------------------------

                           -------------------------------
                                      Unit Cell
                           -------------------------------
        Real Lattice(A)              Reciprocal Lattice(1/A)
     3.2689273     0.0000000     0.0000000        1.922093950  -0.000000000   0.000000000
     0.0000000     6.0877181     0.0000000       -0.000000000   1.032108460   0.000000000
     0.0000000     0.0000000     3.1825969        0.000000000   0.000000000   1.974232188

                       Lattice parameters(A)       Cell Angles
                    a =      3.268927          alpha =   90.000000
                    b =      6.087718          beta  =   90.000000
                    c =      3.182597          gamma =   90.000000

                Current cell volume =            63.334658 A**3

                           -------------------------------
                                     Cell Contents
                           -------------------------------

            xxxxxxxxxxxxxxxxxxxxxxxxxxxxxxxxxxxxxxxxxxxxxxxxxxxxxxxxxxxxxxxxx
            x  Element         Atom        Fractional coordinates of atoms  x
            x                 Number           u          v          w      x
            x---------------------------------------------------------------x
            x  H                 1         0.000000   0.000000   0.120406   x
            x  H                 2         0.000000   0.166667   0.379594   x
            x  H                 3        -0.000000   0.333333   0.120406   x
            x  H                 4         0.500000   0.333333   0.379594   x
            x  H                 5         0.500000   0.166667   0.120406   x
            x  H                 6         0.500000   0.000000   0.379594   x
            x  H                 7         0.500000   0.166667   0.879594   x
            x  H                 8         0.500000   0.333333   0.620406   x
            x  H                 9         0.500000   0.500000   0.879594   x
            x  H                10         0.500000   0.666667   0.620406   x
            x  H                11         0.500000   0.833333   0.879594   x
            x  H                12         0.500000   1.000000   0.620406   x
            x  H                13         0.500000   0.833333   0.120406   x
            x  H                14         0.500000   0.666667   0.379594   x
            x  H                15         0.500000   0.500000   0.120406   x
            x  H                16         0.000000   0.833333   0.379594   x
            x  H                17         0.000000   0.666667   0.120406   x
            x  H                18         0.000000   0.500000   0.379594   x
            x  H                19         0.000000   0.666667   0.879594   x
            x  H                20        -0.000000   0.833333   0.620406   x
            x  H                21        -0.000000   1.000000   0.879594   x
            x  H                22         0.000000   0.166667   0.620406   x
            x  H                23        -0.000000   0.333333   0.879594   x
            x  H                24         0.000000   0.500000   0.620406   x
            xxxxxxxxxxxxxxxxxxxxxxxxxxxxxxxxxxxxxxxxxxxxxxxxxxxxxxxxxxxxxxxxx


------------------------------------------------------------------------ <-- SCF
SCF loop      Energy                           Energy gain       Timer   <-- SCF
                                               per atom          (sec)   <-- SCF
------------------------------------------------------------------------ <-- SCF
Initial  -3.68804828E+002                                        843.33  <-- SCF
      1  -3.68804834E+002                    2.54183222E-007     882.05  <-- SCF
      2  -3.68804834E+002                    3.47624539E-012     925.25  <-- SCF
      3  -3.68804834E+002                    2.61826130E-014     992.66  <-- SCF
------------------------------------------------------------------------ <-- SCF
 
Final energy =  -368.8048342288     eV
(energy not corrected for finite basis set)
 

 ******************************** Symmetrised Forces ********************************
 *                                                                                  *
 *                           Cartesian components (eV/A)                            *
 * -------------------------------------------------------------------------------- *
 *                         x                    y                    z              *
 *                                                                                  *
 * H               1     -0.00000              0.00000              0.00138         *
 * H               2     -0.00000             -0.00000             -0.00138         *
 * H               3     -0.00000              0.00000              0.00138         *
 * H               4      0.00000              0.00000             -0.00138         *
 * H               5     -0.00000             -0.00000              0.00138         *
 * H               6     -0.00000              0.00000             -0.00138         *
 * H               7     -0.00000             -0.00000             -0.00138         *
 * H               8     -0.00000              0.00000              0.00138         *
 * H               9     -0.00000             -0.00000             -0.00138         *
 * H              10     -0.00000             -0.00000              0.00138         *
 * H              11     -0.00000              0.00000             -0.00138         *
 * H              12     -0.00000             -0.00000              0.00138         *
 * H              13     -0.00000              0.00000              0.00138         *
 * H              14     -0.00000             -0.00000             -0.00138         *
 * H              15     -0.00000              0.00000              0.00138         *
 * H              16      0.00000              0.00000             -0.00138         *
 * H              17     -0.00000             -0.00000              0.00138         *
 * H              18     -0.00000              0.00000             -0.00138         *
 * H              19     -0.00000             -0.00000             -0.00138         *
 * H              20     -0.00000              0.00000              0.00138         *
 * H              21     -0.00000             -0.00000             -0.00138         *
 * H              22      0.00000             -0.00000              0.00138         *
 * H              23      0.00000              0.00000             -0.00138         *
 * H              24     -0.00000             -0.00000              0.00138         *
 *                                                                                  *
 ************************************************************************************

 *********** Symmetrised Stress Tensor ***********
 *                                               *
 *          Cartesian components (GPa)           *
 * --------------------------------------------- *
 *             x             y             z     *
 *                                               *
 *  x    -59.985921      0.000000      0.000000  *
 *  y      0.000000    -59.990393      0.000000  *
 *  z      0.000000      0.000000    -60.024224  *
 *                                               *
 *  Pressure:   60.0002                          *
 *                                               *
 *************************************************
  
 +------------+-------------+-------------+-----------------+ <-- min LBFGS
 |    Step    |   lambda    |   F.delta'  |    enthalpy     | <-- min LBFGS
 +------------+-------------+-------------+-----------------+ <-- min LBFGS
 |  previous  |    0.000000 |    0.001135 |     -345.086813 | <-- min LBFGS
 | trial step |    1.000000 |    0.000629 |     -345.086839 | <-- min LBFGS
 |  line step |    2.242695 | -5.504E-006 |     -345.086839 | <-- min LBFGS
 +------------+-------------+-------------+-----------------+ <-- min LBFGS
  
 LBFGS: finished iteration     1 with enthalpy= -3.45086839E+002 eV
  
 +-----------+-----------------+-----------------+------------+-----+ <-- LBFGS
 | Parameter |      value      |    tolerance    |    units   | OK? | <-- LBFGS
 +-----------+-----------------+-----------------+------------+-----+ <-- LBFGS
 |  dE/ion   |   1.117136E-006 |   1.000000E-009 |         eV | No  | <-- LBFGS
 |  |F|max   |   1.376729E-003 |   1.000000E-005 |       eV/A | No  | <-- LBFGS
 |  |dR|max  |   9.453870E-008 |   1.000000E-005 |          A | Yes | <-- LBFGS
 |   Smax    |   2.422378E-002 |   1.000000E-005 |        GPa | No  | <-- LBFGS
 +-----------+-----------------+-----------------+------------+-----+ <-- LBFGS
  

================================================================================
 Starting LBFGS iteration          2 ...
================================================================================
  
 +------------+-------------+-------------+-----------------+ <-- min LBFGS
 |    Step    |   lambda    |   F.delta'  |    enthalpy     | <-- min LBFGS
 +------------+-------------+-------------+-----------------+ <-- min LBFGS
 |  previous  |    0.000000 |    0.000667 |     -345.086839 | <-- min LBFGS
 +------------+-------------+-------------+-----------------+ <-- min LBFGS
  

--------------------------------------------------------------------------------
 LBFGS: starting iteration         2 with trial guess (lambda=  1.000000)
--------------------------------------------------------------------------------
 
+---------------- MEMORY AND SCRATCH DISK ESTIMATES PER PROCESS --------------+
|                                                     Memory          Disk    |
| Model and support data                               30.9 MB         0.0 MB |
| Electronic energy minimisation requirements           3.4 MB         0.0 MB |
| Geometry minimisation requirements                    3.8 MB         0.0 MB |
|                                               ----------------------------- |
| Approx. total storage required per process           38.0 MB         0.0 MB |
|                                                                             |
| Requirements will fluctuate during execution and may exceed these estimates |
+-----------------------------------------------------------------------------+
 

                           -------------------------------
                                      Unit Cell
                           -------------------------------
        Real Lattice(A)              Reciprocal Lattice(1/A)
     3.2686163     0.0000000     0.0000000        1.922276817  -0.000000000   0.000000000
     0.0000000     6.0871572     0.0000000       -0.000000000   1.032203563   0.000000000
     0.0000000     0.0000000     3.1823750        0.000000000   0.000000000   1.974369847

                       Lattice parameters(A)       Cell Angles
                    a =      3.268616          alpha =   90.000000
                    b =      6.087157          beta  =   90.000000
                    c =      3.182375          gamma =   90.000000

                Current cell volume =            63.318383 A**3

                           -------------------------------
                                     Cell Contents
                           -------------------------------

            xxxxxxxxxxxxxxxxxxxxxxxxxxxxxxxxxxxxxxxxxxxxxxxxxxxxxxxxxxxxxxxxx
            x  Element         Atom        Fractional coordinates of atoms  x
            x                 Number           u          v          w      x
            x---------------------------------------------------------------x
            x  H                 1         0.000000   0.000000   0.120448   x
            x  H                 2         0.000000   0.166667   0.379552   x
            x  H                 3        -0.000000   0.333333   0.120448   x
            x  H                 4         0.500000   0.333333   0.379552   x
            x  H                 5         0.500000   0.166667   0.120448   x
            x  H                 6         0.500000   0.000000   0.379552   x
            x  H                 7         0.500000   0.166667   0.879552   x
            x  H                 8         0.500000   0.333333   0.620448   x
            x  H                 9         0.500000   0.500000   0.879552   x
            x  H                10         0.500000   0.666667   0.620448   x
            x  H                11         0.500000   0.833333   0.879552   x
            x  H                12         0.500000   1.000000   0.620448   x
            x  H                13         0.500000   0.833333   0.120448   x
            x  H                14         0.500000   0.666667   0.379552   x
            x  H                15         0.500000   0.500000   0.120448   x
            x  H                16         0.000000   0.833333   0.379552   x
            x  H                17         0.000000   0.666667   0.120448   x
            x  H                18        -0.000000   0.500000   0.379552   x
            x  H                19         0.000000   0.666667   0.879552   x
            x  H                20        -0.000000   0.833333   0.620448   x
            x  H                21        -0.000000   1.000000   0.879552   x
            x  H                22         0.000000   0.166667   0.620448   x
            x  H                23        -0.000000   0.333333   0.879552   x
            x  H                24         0.000000   0.500000   0.620448   x
            xxxxxxxxxxxxxxxxxxxxxxxxxxxxxxxxxxxxxxxxxxxxxxxxxxxxxxxxxxxxxxxxx


------------------------------------------------------------------------ <-- SCF
SCF loop      Energy                           Energy gain       Timer   <-- SCF
                                               per atom          (sec)   <-- SCF
------------------------------------------------------------------------ <-- SCF
Initial  -3.68798751E+002                                       1014.63  <-- SCF
      1  -3.68798799E+002                    1.99712446E-006    1052.86  <-- SCF
      2  -3.68798799E+002                    1.55303176E-011    1097.61  <-- SCF
      3  -3.68798799E+002                    0.00000000E+000    1170.93  <-- SCF
------------------------------------------------------------------------ <-- SCF
 
Final energy =  -368.7987989938     eV
(energy not corrected for finite basis set)
 

 ******************************** Symmetrised Forces ********************************
 *                                                                                  *
 *                           Cartesian components (eV/A)                            *
 * -------------------------------------------------------------------------------- *
 *                         x                    y                    z              *
 *                                                                                  *
 * H               1      0.00000             -0.00000             -0.00275         *
 * H               2     -0.00000              0.00000              0.00275         *
 * H               3     -0.00000             -0.00000             -0.00275         *
 * H               4     -0.00000             -0.00000              0.00275         *
 * H               5      0.00000              0.00000             -0.00275         *
 * H               6     -0.00000             -0.00000              0.00275         *
 * H               7     -0.00000              0.00000              0.00275         *
 * H               8     -0.00000             -0.00000             -0.00275         *
 * H               9     -0.00000              0.00000              0.00275         *
 * H              10      0.00000              0.00000             -0.00275         *
 * H              11     -0.00000             -0.00000              0.00275         *
 * H              12      0.00000              0.00000             -0.00275         *
 * H              13     -0.00000             -0.00000             -0.00275         *
 * H              14     -0.00000              0.00000              0.00275         *
 * H              15      0.00000             -0.00000             -0.00275         *
 * H              16     -0.00000             -0.00000              0.00275         *
 * H              17      0.00000              0.00000             -0.00275         *
 * H              18     -0.00000             -0.00000              0.00275         *
 * H              19     -0.00000              0.00000              0.00275         *
 * H              20     -0.00000             -0.00000             -0.00275         *
 * H              21     -0.00000              0.00000              0.00275         *
 * H              22      0.00000              0.00000             -0.00275         *
 * H              23     -0.00000             -0.00000              0.00275         *
 * H              24      0.00000              0.00000             -0.00275         *
 *                                                                                  *
 ************************************************************************************

 *********** Symmetrised Stress Tensor ***********
 *                                               *
 *          Cartesian components (GPa)           *
 * --------------------------------------------- *
 *             x             y             z     *
 *                                               *
 *  x    -60.036403      0.000000      0.000000  *
 *  y      0.000000    -60.016010      0.000000  *
 *  z      0.000000      0.000000    -59.953473  *
 *                                               *
 *  Pressure:   60.0020                          *
 *                                               *
 *************************************************
  
 +------------+-------------+-------------+-----------------+ <-- min LBFGS
 |    Step    |   lambda    |   F.delta'  |    enthalpy     | <-- min LBFGS
 +------------+-------------+-------------+-----------------+ <-- min LBFGS
 |  previous  |    0.000000 |    0.000667 |     -345.086839 | <-- min LBFGS
 | trial step |    1.000000 |   -0.001367 |     -345.086875 | <-- min LBFGS
 +------------+-------------+-------------+-----------------+ <-- min LBFGS
  

--------------------------------------------------------------------------------
 LBFGS: improving iteration         2 with line minimization (lambda=  0.327960)
--------------------------------------------------------------------------------

                           -------------------------------
                                      Unit Cell
                           -------------------------------
        Real Lattice(A)              Reciprocal Lattice(1/A)
     3.2688253     0.0000000     0.0000000        1.922153919  -0.000000000   0.000000000
     0.0000000     6.0875341     0.0000000       -0.000000000   1.032139648   0.000000000
     0.0000000     0.0000000     3.1825242        0.000000000   0.000000000   1.974277333

                       Lattice parameters(A)       Cell Angles
                    a =      3.268825          alpha =   90.000000
                    b =      6.087534          beta  =   90.000000
                    c =      3.182524          gamma =   90.000000

                Current cell volume =            63.329320 A**3

                           -------------------------------
                                     Cell Contents
                           -------------------------------

            xxxxxxxxxxxxxxxxxxxxxxxxxxxxxxxxxxxxxxxxxxxxxxxxxxxxxxxxxxxxxxxxx
            x  Element         Atom        Fractional coordinates of atoms  x
            x                 Number           u          v          w      x
            x---------------------------------------------------------------x
            x  H                 1         0.000000   0.000000   0.120420   x
            x  H                 2         0.000000   0.166667   0.379580   x
            x  H                 3        -0.000000   0.333333   0.120420   x
            x  H                 4         0.500000   0.333333   0.379580   x
            x  H                 5         0.500000   0.166667   0.120420   x
            x  H                 6         0.500000   0.000000   0.379580   x
            x  H                 7         0.500000   0.166667   0.879580   x
            x  H                 8         0.500000   0.333333   0.620420   x
            x  H                 9         0.500000   0.500000   0.879580   x
            x  H                10         0.500000   0.666667   0.620420   x
            x  H                11         0.500000   0.833333   0.879580   x
            x  H                12         0.500000   1.000000   0.620420   x
            x  H                13         0.500000   0.833333   0.120420   x
            x  H                14         0.500000   0.666667   0.379580   x
            x  H                15         0.500000   0.500000   0.120420   x
            x  H                16         0.000000   0.833333   0.379580   x
            x  H                17         0.000000   0.666667   0.120420   x
            x  H                18        -0.000000   0.500000   0.379580   x
            x  H                19         0.000000   0.666667   0.879580   x
            x  H                20        -0.000000   0.833333   0.620420   x
            x  H                21        -0.000000   1.000000   0.879580   x
            x  H                22         0.000000   0.166667   0.620420   x
            x  H                23        -0.000000   0.333333   0.879580   x
            x  H                24         0.000000   0.500000   0.620420   x
            xxxxxxxxxxxxxxxxxxxxxxxxxxxxxxxxxxxxxxxxxxxxxxxxxxxxxxxxxxxxxxxxx


------------------------------------------------------------------------ <-- SCF
SCF loop      Energy                           Energy gain       Timer   <-- SCF
                                               per atom          (sec)   <-- SCF
------------------------------------------------------------------------ <-- SCF
Initial  -3.68802831E+002                                       1192.53  <-- SCF
      1  -3.68802852E+002                    8.88036275E-007    1231.27  <-- SCF
      2  -3.68802852E+002                    6.90213959E-012    1276.09  <-- SCF
      3  -3.68802852E+002                    8.25759333E-014    1344.56  <-- SCF
------------------------------------------------------------------------ <-- SCF
 
Final energy =  -368.8028521158     eV
(energy not corrected for finite basis set)
 

 ******************************** Symmetrised Forces ********************************
 *                                                                                  *
 *                           Cartesian components (eV/A)                            *
 * -------------------------------------------------------------------------------- *
 *                         x                    y                    z              *
 *                                                                                  *
 * H               1      0.00000             -0.00000              0.00004         *
 * H               2      0.00000              0.00000             -0.00004         *
 * H               3      0.00000             -0.00000              0.00004         *
 * H               4      0.00000             -0.00000             -0.00004         *
 * H               5      0.00000              0.00000              0.00004         *
 * H               6      0.00000             -0.00000             -0.00004         *
 * H               7     -0.00000              0.00000             -0.00004         *
 * H               8      0.00000             -0.00000              0.00004         *
 * H               9      0.00000              0.00000             -0.00004         *
 * H              10      0.00000              0.00000              0.00004         *
 * H              11      0.00000             -0.00000             -0.00004         *
 * H              12      0.00000              0.00000              0.00004         *
 * H              13      0.00000             -0.00000              0.00004         *
 * H              14      0.00000              0.00000             -0.00004         *
 * H              15      0.00000             -0.00000              0.00004         *
 * H              16      0.00000             -0.00000             -0.00004         *
 * H              17      0.00000              0.00000              0.00004         *
 * H              18      0.00000             -0.00000             -0.00004         *
 * H              19     -0.00000              0.00000             -0.00004         *
 * H              20      0.00000             -0.00000              0.00004         *
 * H              21      0.00000              0.00000             -0.00004         *
 * H              22      0.00000              0.00000              0.00004         *
 * H              23      0.00000             -0.00000             -0.00004         *
 * H              24      0.00000              0.00000              0.00004         *
 *                                                                                  *
 ************************************************************************************

 *********** Symmetrised Stress Tensor ***********
 *                                               *
 *          Cartesian components (GPa)           *
 * --------------------------------------------- *
 *             x             y             z     *
 *                                               *
 *  x    -60.002469      0.000000      0.000000  *
 *  y      0.000000    -59.998703      0.000000  *
 *  z      0.000000      0.000000    -60.000974  *
 *                                               *
 *  Pressure:   60.0007                          *
 *                                               *
 *************************************************
  
 +------------+-------------+-------------+-----------------+ <-- min LBFGS
 |    Step    |   lambda    |   F.delta'  |    enthalpy     | <-- min LBFGS
 +------------+-------------+-------------+-----------------+ <-- min LBFGS
 |  previous  |    0.000000 |    0.000667 |     -345.086839 | <-- min LBFGS
 | trial step |    1.000000 |   -0.001367 |     -345.086875 | <-- min LBFGS
 |  line step |    0.327960 |  6.063E-006 |     -345.086878 | <-- min LBFGS
 +------------+-------------+-------------+-----------------+ <-- min LBFGS
  
 LBFGS: finished iteration     2 with enthalpy= -3.45086878E+002 eV
  
 +-----------+-----------------+-----------------+------------+-----+ <-- LBFGS
 | Parameter |      value      |    tolerance    |    units   | OK? | <-- LBFGS
 +-----------+-----------------+-----------------+------------+-----+ <-- LBFGS
 |  dE/ion   |   1.622831E-006 |   1.000000E-009 |         eV | No  | <-- LBFGS
 |  |F|max   |   3.592851E-005 |   1.000000E-005 |       eV/A | No  | <-- LBFGS
 |  |dR|max  |   4.353956E-005 |   1.000000E-005 |          A | No  | <-- LBFGS
 |   Smax    |   2.469265E-003 |   1.000000E-005 |        GPa | No  | <-- LBFGS
 +-----------+-----------------+-----------------+------------+-----+ <-- LBFGS
  

================================================================================
 Starting LBFGS iteration          3 ...
================================================================================
  
 +------------+-------------+-------------+-----------------+ <-- min LBFGS
 |    Step    |   lambda    |   F.delta'  |    enthalpy     | <-- min LBFGS
 +------------+-------------+-------------+-----------------+ <-- min LBFGS
 |  previous  |    0.000000 |    0.000046 |     -345.086878 | <-- min LBFGS
 +------------+-------------+-------------+-----------------+ <-- min LBFGS
  

--------------------------------------------------------------------------------
 LBFGS: starting iteration         3 with trial guess (lambda=  1.000000)
--------------------------------------------------------------------------------

                           -------------------------------
                                      Unit Cell
                           -------------------------------
        Real Lattice(A)              Reciprocal Lattice(1/A)
     3.2688323     0.0000000     0.0000000        1.922149790  -0.000000000   0.000000000
     0.0000000     6.0875314     0.0000000       -0.000000000   1.032140112   0.000000000
     0.0000000     0.0000000     3.1825261        0.000000000   0.000000000   1.974276157

                       Lattice parameters(A)       Cell Angles
                    a =      3.268832          alpha =   90.000000
                    b =      6.087531          beta  =   90.000000
                    c =      3.182526          gamma =   90.000000

                Current cell volume =            63.329465 A**3

                           -------------------------------
                                     Cell Contents
                           -------------------------------

            xxxxxxxxxxxxxxxxxxxxxxxxxxxxxxxxxxxxxxxxxxxxxxxxxxxxxxxxxxxxxxxxx
            x  Element         Atom        Fractional coordinates of atoms  x
            x                 Number           u          v          w      x
            x---------------------------------------------------------------x
            x  H                 1         0.000000   0.000000   0.120420   x
            x  H                 2         0.000000   0.166667   0.379580   x
            x  H                 3        -0.000000   0.333333   0.120420   x
            x  H                 4         0.500000   0.333333   0.379580   x
            x  H                 5         0.500000   0.166667   0.120420   x
            x  H                 6         0.500000   0.000000   0.379580   x
            x  H                 7         0.500000   0.166667   0.879580   x
            x  H                 8         0.500000   0.333333   0.620420   x
            x  H                 9         0.500000   0.500000   0.879580   x
            x  H                10         0.500000   0.666667   0.620420   x
            x  H                11         0.500000   0.833333   0.879580   x
            x  H                12         0.500000   1.000000   0.620420   x
            x  H                13         0.500000   0.833333   0.120420   x
            x  H                14         0.500000   0.666667   0.379580   x
            x  H                15         0.500000   0.500000   0.120420   x
            x  H                16         0.000000   0.833333   0.379580   x
            x  H                17         0.000000   0.666667   0.120420   x
            x  H                18         0.000000   0.500000   0.379580   x
            x  H                19         0.000000   0.666667   0.879580   x
            x  H                20        -0.000000   0.833333   0.620420   x
            x  H                21        -0.000000   1.000000   0.879580   x
            x  H                22        -0.000000   0.166667   0.620420   x
            x  H                23        -0.000000   0.333333   0.879580   x
            x  H                24        -0.000000   0.500000   0.620420   x
            xxxxxxxxxxxxxxxxxxxxxxxxxxxxxxxxxxxxxxxxxxxxxxxxxxxxxxxxxxxxxxxxx


------------------------------------------------------------------------ <-- SCF
SCF loop      Energy                           Energy gain       Timer   <-- SCF
                                               per atom          (sec)   <-- SCF
------------------------------------------------------------------------ <-- SCF
Initial  -3.68802906E+002                                       1366.95  <-- SCF
      1  -3.68802906E+002                    4.10630177E-009    1407.70  <-- SCF
      2  -3.68802906E+002                    7.04916504E-014    1474.09  <-- SCF
      3  -3.68802906E+002                    3.62528488E-014    1542.86  <-- SCF
------------------------------------------------------------------------ <-- SCF
 
Final energy =  -368.8029059234     eV
(energy not corrected for finite basis set)
 

 ******************************** Symmetrised Forces ********************************
 *                                                                                  *
 *                           Cartesian components (eV/A)                            *
 * -------------------------------------------------------------------------------- *
 *                         x                    y                    z              *
 *                                                                                  *
 * H               1      0.00000              0.00000              0.00000         *
 * H               2      0.00000             -0.00000             -0.00000         *
 * H               3      0.00000              0.00000              0.00000         *
 * H               4      0.00000              0.00000             -0.00000         *
 * H               5      0.00000             -0.00000              0.00000         *
 * H               6      0.00000              0.00000             -0.00000         *
 * H               7      0.00000             -0.00000             -0.00000         *
 * H               8      0.00000              0.00000              0.00000         *
 * H               9      0.00000             -0.00000             -0.00000         *
 * H              10      0.00000             -0.00000              0.00000         *
 * H              11      0.00000              0.00000             -0.00000         *
 * H              12      0.00000             -0.00000              0.00000         *
 * H              13      0.00000              0.00000              0.00000         *
 * H              14      0.00000             -0.00000             -0.00000         *
 * H              15      0.00000              0.00000              0.00000         *
 * H              16      0.00000              0.00000             -0.00000         *
 * H              17      0.00000             -0.00000              0.00000         *
 * H              18      0.00000              0.00000             -0.00000         *
 * H              19      0.00000             -0.00000             -0.00000         *
 * H              20      0.00000              0.00000              0.00000         *
 * H              21      0.00000             -0.00000             -0.00000         *
 * H              22      0.00000             -0.00000              0.00000         *
 * H              23      0.00000              0.00000             -0.00000         *
 * H              24      0.00000             -0.00000              0.00000         *
 *                                                                                  *
 ************************************************************************************

 *********** Symmetrised Stress Tensor ***********
 *                                               *
 *          Cartesian components (GPa)           *
 * --------------------------------------------- *
 *             x             y             z     *
 *                                               *
 *  x    -60.001798     -0.000000      0.000000  *
 *  y     -0.000000    -59.998367      0.000000  *
 *  z      0.000000      0.000000    -59.999830  *
 *                                               *
 *  Pressure:   60.0000                          *
 *                                               *
 *************************************************
  
 +------------+-------------+-------------+-----------------+ <-- min LBFGS
 |    Step    |   lambda    |   F.delta'  |    enthalpy     | <-- min LBFGS
 +------------+-------------+-------------+-----------------+ <-- min LBFGS
 |  previous  |    0.000000 |    0.000046 |     -345.086878 | <-- min LBFGS
 | trial step |    1.000000 |    0.000026 |     -345.086878 | <-- min LBFGS
 +------------+-------------+-------------+-----------------+ <-- min LBFGS
  

--------------------------------------------------------------------------------
 LBFGS: improving iteration         3 with line minimization (lambda=  2.347491)
--------------------------------------------------------------------------------

                           -------------------------------
                                      Unit Cell
                           -------------------------------
        Real Lattice(A)              Reciprocal Lattice(1/A)
     3.2688418     0.0000000     0.0000000        1.922144225  -0.000000000   0.000000000
     0.0000000     6.0875277     0.0000000       -0.000000000   1.032140737   0.000000000
     0.0000000     0.0000000     3.1825286        0.000000000   0.000000000   1.974274574

                       Lattice parameters(A)       Cell Angles
                    a =      3.268842          alpha =   90.000000
                    b =      6.087528          beta  =   90.000000
                    c =      3.182529          gamma =   90.000000

                Current cell volume =            63.329661 A**3

                           -------------------------------
                                     Cell Contents
                           -------------------------------

            xxxxxxxxxxxxxxxxxxxxxxxxxxxxxxxxxxxxxxxxxxxxxxxxxxxxxxxxxxxxxxxxx
            x  Element         Atom        Fractional coordinates of atoms  x
            x                 Number           u          v          w      x
            x---------------------------------------------------------------x
            x  H                 1         0.000000   0.000000   0.120421   x
            x  H                 2         0.000000   0.166667   0.379580   x
            x  H                 3        -0.000000   0.333333   0.120420   x
            x  H                 4         0.500000   0.333333   0.379580   x
            x  H                 5         0.500000   0.166667   0.120420   x
            x  H                 6         0.500000   0.000000   0.379579   x
            x  H                 7         0.500000   0.166667   0.879580   x
            x  H                 8         0.500000   0.333333   0.620420   x
            x  H                 9         0.500000   0.500000   0.879579   x
            x  H                10         0.500000   0.666667   0.620420   x
            x  H                11         0.500000   0.833333   0.879580   x
            x  H                12         0.500000   1.000000   0.620421   x
            x  H                13         0.500000   0.833333   0.120420   x
            x  H                14         0.500000   0.666667   0.379580   x
            x  H                15         0.500000   0.500000   0.120421   x
            x  H                16         0.000000   0.833333   0.379580   x
            x  H                17         0.000000   0.666667   0.120420   x
            x  H                18         0.000000   0.500000   0.379579   x
            x  H                19         0.000000   0.666667   0.879580   x
            x  H                20        -0.000000   0.833333   0.620420   x
            x  H                21        -0.000000   1.000000   0.879579   x
            x  H                22        -0.000000   0.166667   0.620420   x
            x  H                23        -0.000000   0.333333   0.879580   x
            x  H                24        -0.000000   0.500000   0.620421   x
            xxxxxxxxxxxxxxxxxxxxxxxxxxxxxxxxxxxxxxxxxxxxxxxxxxxxxxxxxxxxxxxxx


------------------------------------------------------------------------ <-- SCF
SCF loop      Energy                           Energy gain       Timer   <-- SCF
                                               per atom          (sec)   <-- SCF
------------------------------------------------------------------------ <-- SCF
Initial  -3.68802978E+002                                       1566.41  <-- SCF
      1  -3.68802978E+002                    1.14967451E-009    1605.57  <-- SCF
      2  -3.68802978E+002                    1.26884971E-013    1676.10  <-- SCF
      3  -3.68802978E+002                    0.00000000E+000    1751.26  <-- SCF
------------------------------------------------------------------------ <-- SCF
 
Final energy =  -368.8029784266     eV
(energy not corrected for finite basis set)
 

 ******************************** Symmetrised Forces ********************************
 *                                                                                  *
 *                           Cartesian components (eV/A)                            *
 * -------------------------------------------------------------------------------- *
 *                         x                    y                    z              *
 *                                                                                  *
 * H               1      0.00000              0.00000             -0.00005         *
 * H               2      0.00000              0.00000              0.00005         *
 * H               3      0.00000             -0.00000             -0.00005         *
 * H               4      0.00000             -0.00000              0.00005         *
 * H               5      0.00000              0.00000             -0.00005         *
 * H               6     -0.00000              0.00000              0.00005         *
 * H               7     -0.00000              0.00000              0.00005         *
 * H               8     -0.00000             -0.00000             -0.00005         *
 * H               9      0.00000             -0.00000              0.00005         *
 * H              10      0.00000              0.00000             -0.00005         *
 * H              11      0.00000             -0.00000              0.00005         *
 * H              12      0.00000             -0.00000             -0.00005         *
 * H              13      0.00000             -0.00000             -0.00005         *
 * H              14      0.00000              0.00000              0.00005         *
 * H              15      0.00000              0.00000             -0.00005         *
 * H              16      0.00000             -0.00000              0.00005         *
 * H              17      0.00000              0.00000             -0.00005         *
 * H              18     -0.00000              0.00000              0.00005         *
 * H              19     -0.00000              0.00000              0.00005         *
 * H              20      0.00000             -0.00000             -0.00005         *
 * H              21      0.00000             -0.00000              0.00005         *
 * H              22     -0.00000              0.00000             -0.00005         *
 * H              23     -0.00000             -0.00000              0.00005         *
 * H              24     -0.00000             -0.00000             -0.00005         *
 *                                                                                  *
 ************************************************************************************

 *********** Symmetrised Stress Tensor ***********
 *                                               *
 *          Cartesian components (GPa)           *
 * --------------------------------------------- *
 *             x             y             z     *
 *                                               *
 *  x    -60.000903      0.000000      0.000000  *
 *  y      0.000000    -59.997909      0.000000  *
 *  z      0.000000      0.000000    -59.998289  *
 *                                               *
 *  Pressure:   59.9990                          *
 *                                               *
 *************************************************
  
 +------------+-------------+-------------+-----------------+ <-- min LBFGS
 |    Step    |   lambda    |   F.delta'  |    enthalpy     | <-- min LBFGS
 +------------+-------------+-------------+-----------------+ <-- min LBFGS
 |  previous  |    0.000000 |    0.000046 |     -345.086878 | <-- min LBFGS
 | trial step |    1.000000 |    0.000026 |     -345.086878 | <-- min LBFGS
 |  line step |    2.347491 |  2.255E-007 |     -345.086878 | <-- min LBFGS
 +------------+-------------+-------------+-----------------+ <-- min LBFGS
  
 LBFGS: finished iteration     3 with enthalpy= -3.45086878E+002 eV
  
 +-----------+-----------------+-----------------+------------+-----+ <-- LBFGS
 | Parameter |      value      |    tolerance    |    units   | OK? | <-- LBFGS
 +-----------+-----------------+-----------------+------------+-----+ <-- LBFGS
 |  dE/ion   |   1.523768E-010 |   1.000000E-009 |         eV | Yes | <-- LBFGS
 |  |F|max   |   4.736070E-005 |   1.000000E-005 |       eV/A | No  | <-- LBFGS
 |  |dR|max  |   1.534717E-006 |   1.000000E-005 |          A | Yes | <-- LBFGS
 |   Smax    |   2.091316E-003 |   1.000000E-005 |        GPa | No  | <-- LBFGS
 +-----------+-----------------+-----------------+------------+-----+ <-- LBFGS
  

================================================================================
 Starting LBFGS iteration          4 ...
================================================================================
  
 +------------+-------------+-------------+-----------------+ <-- min LBFGS
 |    Step    |   lambda    |   F.delta'  |    enthalpy     | <-- min LBFGS
 +------------+-------------+-------------+-----------------+ <-- min LBFGS
 |  previous  |    0.000000 |    0.000034 |     -345.086878 | <-- min LBFGS
[...]
            x  H                19         0.000000   0.666667   0.890451   x
            x  H                20         0.000000   0.833333   0.609549   x
            x  H                21        -0.000000   1.000000   0.890451   x
            x  H                22         0.000000   0.166667   0.609549   x
            x  H                23        -0.000000   0.333333   0.890451   x
            x  H                24         0.000000   0.500000   0.609549   x
            xxxxxxxxxxxxxxxxxxxxxxxxxxxxxxxxxxxxxxxxxxxxxxxxxxxxxxxxxxxxxxxxx


 LBFGS: Final Enthalpy     = -3.58432763E+002 eV
 LBFGS: Final <frequency>  unchanged from initial value
 LBFGS: Final bulk modulus =      82.74355 GPa

 ******************************** Symmetrised Forces ********************************
 *                                                                                  *
 *                           Cartesian components (eV/A)                            *
 * -------------------------------------------------------------------------------- *
 *                         x                    y                    z              *
 *                                                                                  *
 * H               1     -0.00000              0.00000              0.00000         *
 * H               2      0.00000             -0.00000              0.00000         *
 * H               3      0.00000              0.00000             -0.00000         *
 * H               4     -0.00000              0.00000              0.00000         *
 * H               5      0.00000             -0.00000             -0.00000         *
 * H               6     -0.00000              0.00000             -0.00000         *
 * H               7     -0.00000             -0.00000              0.00000         *
 * H               8     -0.00000              0.00000             -0.00000         *
 * H               9     -0.00000             -0.00000             -0.00000         *
 * H              10     -0.00000             -0.00000             -0.00000         *
 * H              11     -0.00000              0.00000              0.00000         *
 * H              12     -0.00000             -0.00000              0.00000         *
 * H              13      0.00000              0.00000             -0.00000         *
 * H              14      0.00000             -0.00000              0.00000         *
 * H              15     -0.00000              0.00000              0.00000         *
 * H              16     -0.00000              0.00000              0.00000         *
 * H              17      0.00000             -0.00000             -0.00000         *
 * H              18     -0.00000              0.00000             -0.00000         *
 * H              19     -0.00000             -0.00000              0.00000         *
 * H              20     -0.00000              0.00000             -0.00000         *
 * H              21     -0.00000             -0.00000             -0.00000         *
 * H              22     -0.00000             -0.00000             -0.00000         *
 * H              23     -0.00000              0.00000              0.00000         *
 * H              24     -0.00000             -0.00000              0.00000         *
 *                                                                                  *
 ************************************************************************************

 *********** Symmetrised Stress Tensor ***********
 *                                               *
 *          Cartesian components (GPa)           *
 * --------------------------------------------- *
 *             x             y             z     *
 *                                               *
 *  x    -30.000001      0.000000      0.000000  *
 *  y      0.000000    -30.000004      0.000000  *
 *  z      0.000000      0.000000    -29.999998  *
 *                                               *
 *  Pressure:   30.0000                          *
 *                                               *
 *************************************************

 Pseudo atomic calculation performed for H 1s1

 Converged in 20 iterations to a total energy of -12.4843 eV

Charge spilling parameter for spin component 1 = 0.71%

            Orbital Populations       
     Ion    Atom   Orbital             Charge
  -------------------------------------------
      H     1      S                    1.000
      H     2      S                    1.000
      H     3      S                    1.000
      H     4      S                    1.000
      H     5      S                    1.000
      H     6      S                    1.000
      H     7      S                    1.000
      H     8      S                    1.000
      H     9      S                    1.000
      H    10      S                    1.000
      H    11      S                    1.000
      H    12      S                    1.000
      H    13      S                    1.000
      H    14      S                    1.000
      H    15      S                    1.000
      H    16      S                    1.000
      H    17      S                    1.000
      H    18      S                    1.000
      H    19      S                    1.000
      H    20      S                    1.000
      H    21      S                    1.000
      H    22      S                    1.000
      H    23      S                    1.000
      H    24      S                    1.000
  -------------------------------------------
                           Total:      24.000
  -------------------------------------------

     Atomic Populations (Mulliken)
     -----------------------------
Species          Ion     s      p      d      f     Total  Charge (e)
=====================================================================
  H               1     1.00   0.00   0.00   0.00   1.00    -0.00
  H               2     1.00   0.00   0.00   0.00   1.00     0.00
  H               3     1.00   0.00   0.00   0.00   1.00     0.00
  H               4     1.00   0.00   0.00   0.00   1.00     0.00
  H               5     1.00   0.00   0.00   0.00   1.00     0.00
  H               6     1.00   0.00   0.00   0.00   1.00    -0.00
  H               7     1.00   0.00   0.00   0.00   1.00     0.00
  H               8     1.00   0.00   0.00   0.00   1.00     0.00
  H               9     1.00   0.00   0.00   0.00   1.00    -0.00
  H              10     1.00   0.00   0.00   0.00   1.00     0.00
  H              11     1.00   0.00   0.00   0.00   1.00     0.00
  H              12     1.00   0.00   0.00   0.00   1.00    -0.00
  H              13     1.00   0.00   0.00   0.00   1.00     0.00
  H              14     1.00   0.00   0.00   0.00   1.00     0.00
  H              15     1.00   0.00   0.00   0.00   1.00    -0.00
  H              16     1.00   0.00   0.00   0.00   1.00     0.00
  H              17     1.00   0.00   0.00   0.00   1.00     0.00
  H              18     1.00   0.00   0.00   0.00   1.00    -0.00
  H              19     1.00   0.00   0.00   0.00   1.00     0.00
  H              20     1.00   0.00   0.00   0.00   1.00     0.00
  H              21     1.00   0.00   0.00   0.00   1.00    -0.00
  H              22     1.00   0.00   0.00   0.00   1.00     0.00
  H              23     1.00   0.00   0.00   0.00   1.00     0.00
  H              24     1.00   0.00   0.00   0.00   1.00    -0.00
=====================================================================

                 Bond                   Population      Length (A)
======================================================================
              H 18 -- H 24                   1.22        0.75425
              H 6  -- H 12                   1.22        0.75425
              H 9  -- H 15                   1.22        0.75425
              H 1  -- H 21                   1.22        0.75425
              H 16 -- H 20                   1.22        0.75425
              H 4  -- H 8                    1.22        0.75425
              H 11 -- H 13                   1.22        0.75425
              H 3  -- H 23                   1.22        0.75425
              H 17 -- H 19                   1.22        0.75425
              H 10 -- H 14                   1.22        0.75425
              H 5  -- H 7                    1.22        0.75425
              H 2  -- H 22                   1.22        0.75425
              H 5  -- H 6                   -0.06        1.48391
              H 1  -- H 2                   -0.06        1.48391
              H 14 -- H 15                  -0.06        1.48391
              H 17 -- H 18                  -0.06        1.48391
              H 20 -- H 21                  -0.06        1.48391
              H 11 -- H 12                  -0.06        1.48391
              H 23 -- H 24                  -0.06        1.48391
              H 8  -- H 9                   -0.06        1.48391
              H 19 -- H 24                  -0.06        1.48391
              H 9  -- H 10                  -0.06        1.48391
              H 21 -- H 22                  -0.06        1.48391
              H 7  -- H 12                  -0.06        1.48391
              H 6  -- H 13                  -0.06        1.48391
              H 3  -- H 18                  -0.06        1.48391
              H 1  -- H 16                  -0.06        1.48391
              H 4  -- H 15                  -0.06        1.48391
              H 2  -- H 3                   -0.06        1.48391
              H 4  -- H 5                   -0.06        1.48391
              H 22 -- H 23                  -0.06        1.48391
              H 7  -- H 8                   -0.06        1.48391
              H 13 -- H 14                  -0.06        1.48391
              H 19 -- H 20                  -0.06        1.48391
              H 10 -- H 11                  -0.06        1.48391
              H 16 -- H 17                  -0.06        1.48391
              H 10 -- H 19                  -0.03        2.01227
              H 7  -- H 22                  -0.03        2.01227
              H 13 -- H 16                  -0.03        2.01227
              H 3  -- H 4                   -0.03        2.01227
              H 14 -- H 17                  -0.03        2.01227
              H 2  -- H 5                   -0.03        2.01227
              H 8  -- H 23                  -0.03        2.01227
              H 11 -- H 20                  -0.03        2.01227
              H 12 -- H 21                  -0.03        2.01227
              H 9  -- H 24                  -0.03        2.01227
              H 15 -- H 18                  -0.03        2.01227
              H 1  -- H 6                   -0.03        2.01227
              H 6  -- H 7                   -0.15        2.05661
              H 1  -- H 22                  -0.15        2.05661
              H 18 -- H 19                  -0.15        2.05661
              H 10 -- H 15                  -0.15        2.05661
              H 12 -- H 13                  -0.15        2.05661
              H 16 -- H 21                  -0.15        2.05661
              H 3  -- H 24                  -0.15        2.05661
              H 4  -- H 9                   -0.15        2.05661
              H 17 -- H 24                  -0.15        2.05661
              H 9  -- H 14                  -0.15        2.05661
              H 5  -- H 12                  -0.15        2.05661
              H 2  -- H 21                  -0.15        2.05661
              H 18 -- H 23                  -0.15        2.05661
              H 8  -- H 15                  -0.15        2.05661
              H 6  -- H 11                  -0.15        2.05661
              H 1  -- H 20                  -0.15        2.05661
              H 5  -- H 8                   -0.15        2.05661
              H 2  -- H 23                  -0.15        2.05661
              H 11 -- H 14                  -0.15        2.05661
              H 17 -- H 20                  -0.15        2.05661
              H 4  -- H 7                   -0.15        2.05661
              H 3  -- H 22                  -0.15        2.05661
              H 16 -- H 19                  -0.15        2.05661
              H 10 -- H 13                  -0.15        2.05661
              H 15 -- H 17                  -0.12        2.09308
              H 11 -- H 21                  -0.12        2.09308
              H 2  -- H 6                   -0.12        2.09308
              H 1  -- H 5                   -0.12        2.09308
              H 14 -- H 18                  -0.12        2.09308
              H 12 -- H 20                  -0.12        2.09308
              H 9  -- H 23                  -0.12        2.09308
              H 8  -- H 24                  -0.12        2.09308
              H 10 -- H 24                  -0.12        2.09308
              H 12 -- H 22                  -0.12        2.09308
              H 9  -- H 19                  -0.12        2.09308
              H 7  -- H 21                  -0.12        2.09308
              H 6  -- H 16                  -0.12        2.09308
              H 4  -- H 18                  -0.12        2.09308
              H 3  -- H 15                  -0.12        2.09308
              H 1  -- H 13                  -0.12        2.09308
              H 2  -- H 4                   -0.12        2.09308
              H 3  -- H 5                   -0.12        2.09308
              H 7  -- H 23                  -0.12        2.09308
              H 8  -- H 22                  -0.12        2.09308
              H 14 -- H 16                  -0.12        2.09308
              H 10 -- H 20                  -0.12        2.09308
              H 13 -- H 17                  -0.12        2.09308
              H 11 -- H 19                  -0.12        2.09308
              H 6  -- H 22                  -0.10        2.22483
              H 1  -- H 7                   -0.10        2.22483
              H 12 -- H 16                  -0.10        2.22483
              H 15 -- H 19                  -0.10        2.22483
              H 13 -- H 21                  -0.10        2.22483
              H 10 -- H 18                  -0.10        2.22483
              H 4  -- H 24                  -0.10        2.22483
              H 3  -- H 9                   -0.10        2.22483
              H 14 -- H 24                  -0.10        2.22483
              H 9  -- H 17                  -0.10        2.22483
              H 15 -- H 23                  -0.10        2.22483
              H 8  -- H 18                  -0.10        2.22483
              H 6  -- H 20                  -0.10        2.22483
              H 1  -- H 11                  -0.10        2.22483
              H 5  -- H 21                  -0.10        2.22483
              H 2  -- H 12                  -0.10        2.22483
              H 5  -- H 23                  -0.10        2.22483
              H 2  -- H 8                   -0.10        2.22483
              H 14 -- H 20                  -0.10        2.22483
              H 11 -- H 17                  -0.10        2.22483
              H 4  -- H 22                  -0.10        2.22483
              H 3  -- H 7                   -0.10        2.22483
              H 10 -- H 16                  -0.10        2.22483
              H 13 -- H 19                  -0.10        2.22483
              H 7  -- H 11                  -0.03        2.25112
              H 20 -- H 22                  -0.03        2.25112
              H 8  -- H 10                  -0.03        2.25112
              H 19 -- H 23                  -0.03        2.25112
              H 5  -- H 13                  -0.03        2.25112
              H 2  -- H 16                  -0.03        2.25112
              H 4  -- H 14                  -0.03        2.25112
              H 3  -- H 17                  -0.03        2.25112
              H 4  -- H 6                   -0.03        2.25112
              H 1  -- H 3                   -0.03        2.25112
              H 22 -- H 24                  -0.03        2.25112
              H 7  -- H 9                   -0.03        2.25112
              H 19 -- H 21                  -0.03        2.25112
              H 16 -- H 18                  -0.03        2.25112
              H 13 -- H 15                  -0.03        2.25112
              H 10 -- H 12                  -0.03        2.25112
              H 5  -- H 15                  -0.03        2.25112
              H 2  -- H 18                  -0.03        2.25112
              H 8  -- H 12                  -0.03        2.25112
              H 21 -- H 23                  -0.03        2.25112
              H 20 -- H 24                  -0.03        2.25112
              H 9  -- H 11                  -0.03        2.25112
              H 6  -- H 14                  -0.03        2.25112
              H 1  -- H 17                  -0.03        2.25112
              H 16 -- H 22                  -0.04        2.37412
              H 7  -- H 13                  -0.04        2.37412
              H 4  -- H 10                  -0.04        2.37412
              H 3  -- H 19                  -0.04        2.37412
              H 17 -- H 23                  -0.04        2.37412
              H 8  -- H 14                  -0.04        2.37412
              H 5  -- H 11                  -0.04        2.37412
              H 2  -- H 20                  -0.04        2.37412
              H 6  -- H 8                   -0.04        2.37412
              H 1  -- H 23                  -0.04        2.37412
              H 5  -- H 9                   -0.04        2.37412
              H 2  -- H 24                  -0.04        2.37412
              H 18 -- H 20                  -0.04        2.37412
              H 11 -- H 15                  -0.04        2.37412
              H 17 -- H 21                  -0.04        2.37412
              H 12 -- H 14                  -0.04        2.37412
              H 4  -- H 12                  -0.04        2.37412
              H 3  -- H 21                  -0.04        2.37412
              H 18 -- H 22                  -0.04        2.37412
              H 7  -- H 15                  -0.04        2.37412
              H 16 -- H 24                  -0.04        2.37412
              H 9  -- H 13                  -0.04        2.37412
              H 6  -- H 10                  -0.04        2.37412
              H 1  -- H 19                  -0.04        2.37412
              H 13 -- H 20                  -0.02        2.46513
              H 3  -- H 8                   -0.02        2.46513
              H 14 -- H 19                  -0.02        2.46513
              H 11 -- H 16                  -0.02        2.46513
              H 10 -- H 17                  -0.02        2.46513
              H 5  -- H 22                  -0.02        2.46513
              H 4  -- H 23                  -0.02        2.46513
              H 2  -- H 7                   -0.02        2.46513
              H 15 -- H 24                  -0.02        2.46513
              H 9  -- H 18                  -0.02        2.46513
              H 6  -- H 21                  -0.02        2.46513
              H 1  -- H 12                  -0.02        2.46513
======================================================================


Writing analysis data to Cmca-12.castep_bin

Writing model to Cmca-12.check
 
 A BibTeX formatted list of references used in this run has been written to 
 Cmca-12.bib
 
Initialisation time =      7.74 s
Calculation time    =   5628.16 s
Finalisation time   =      1.38 s
Total time          =   5637.27 s
Peak Memory Use     = 442928 kB
  
Overall parallel efficiency rating: Terrible (3%)                               
  
Data was distributed by:-
G-vector (8-way); efficiency rating: Terrible (3%)                              
