 +-------------------------------------------------+
 |                                                 |
 |      CCC   AA    SSS  TTTTT  EEEEE  PPPP        |
 |     C     A  A  S       T    E      P   P       |
 |     C     AAAA   SS     T    EEE    PPPP        |
 |     C     A  A     S    T    E      P           |
 |      CCC  A  A  SSS     T    EEEEE  P           |
 |                                                 |
 +-------------------------------------------------+
 |                                                 |
 | Welcome to Academic Release CASTEP version 18.1 |          
 | Ab Initio Total Energy Program                  |
 |                                                 |
 | Authors:                                        |
 | M. Segall, M. Probert, C. Pickard, P. Hasnip,   |
 | S. Clark, K. Refson, J. R. Yates, M. Payne      |
 |                                                 |
 | Contributors:                                   |
 | P. Lindan, P. Haynes, J. White, V. Milman,      |
 | N. Govind, M. Gibson, P. Tulip, V. Cocula,      |
 | B. Montanari, D. Quigley, M. Glover,            |
 | L. Bernasconi, A. Perlov, M. Plummer,           |
 | E. McNellis, J. Meyer, J. Gale, D. Jochym       |
 | J. Aarons, B. Walker, R. Gillen, D. Jones       |
 | T. Green, I. J. Bush, C. J. Armstrong,          |
 | E. J. Higgins, E. L. Brown, M. S. McFly,        |
 | J. Wilkins, B-C. Shih, P. J. P. Byrne           |
 |                                                 |
 | Copyright (c) 2000 - 2017                       |
 |                                                 |
 |     Distributed under the terms of an           |
 |     Agreement between the United Kingdom        |
 |     Car-Parrinello (UKCP) Consortium,           |
 |     Daresbury Laboratory and Accelrys, Inc.     |
 |                                                 |
 | Please cite                                     |
 |                                                 |
 |     "First principles methods using CASTEP"     |
 |                                                 |
 |         Zeitschrift fuer Kristallographie       |
 |           220(5-6) pp. 567-570 (2005)           |
 |                                                 |
 | S. J. Clark, M. D. Segall, C. J. Pickard,       |
 | P. J. Hasnip, M. J. Probert, K. Refson,         |
 | M. C. Payne                                     |
 |                                                 |
 |       in all publications arising from          |
 |              your use of CASTEP                 |
 |                                                 |
 +-------------------------------------------------+


 Compiled for linux_x86_64_gfortran4.8 on Thu, 19 Jul 2018 15:42:32 +0100
 from code version 70483bd0ad64+  Sun, 10 Dec 2017 12:18:29 +0000
 Compiler: GNU Fortran 4.8.5; Optimisation: fast
 MATHLIBS: Intel MKL(2018.0.0) (LAPACK version 3.7.0)
 FFT Lib : mkl
 Fundamental constants values: CODATA 2014

 Run started: Fri, 21 Aug 2020 12:21:55 +0100

 Atomic calculation performed for H: 1s1

 Converged in 41 iterations to an ae energy of -12.488 eV

   ============================================================                
   | Pseudopotential Report - Date of generation 21-08-2020   |                
   ------------------------------------------------------------                
   | Element: H Ionic charge:  1.00 Level of theory: PBE      |                
   | Atomic Solver: Koelling-Harmon                           |                
   |                                                          |                
   |               Reference Electronic Structure             |                
   |         Orbital         Occupation         Energy        |                
   |            1s              1.000           -0.239        |                
   |                                                          |                
   |                 Pseudopotential Definition               |                
   |        Beta     l      e      Rc     scheme   norm       |                
   |         loc     0   -0.239   0.702     qc      1         |                
   |                                                          |                
   | No charge augmentation                                   |                
   | No partial core correction                               |                
   ------------------------------------------------------------                
   | "0|0.7|2|6|8|10L(qc=10)"                                 |                
   ------------------------------------------------------------                
   |      Author: Chris J. Pickard, Cambridge University      |                
   ============================================================                

 Pseudo atomic calculation performed for H 1s1

 Converged in 24 iterations to a total energy of -12.4843 eV

 Calculation parallelised over 16 processes.
 Data is distributed by k-point(16-way)

 ************************************ Title ************************************
 

 ***************************** General Parameters ******************************
  
 output verbosity                               : normal  (1)
 write checkpoint data to                       : Hibam.check
 type of calculation                            : geometry optimization
 stress calculation                             : on
 density difference calculation                 : off
 electron localisation func (ELF) calculation   : off
 Hirshfeld analysis                             : off
 unlimited duration calculation
 timing information                             : on
 memory usage estimate                          : on
 write extra output files                       : on
 write final potential to formatted file        : off
 write final density to formatted file          : off
 write structure in CELL formatted file         : on
 write BibTeX reference list                    : on
 write OTFG pseudopotential files               : on
 write electrostatic potential file             : on
 write bands file                               : on
 checkpoint writing                             : both castep_bin and check files
  
 output         length unit                     : A
 output           mass unit                     : amu
 output           time unit                     : ps
 output         charge unit                     : e
 output           spin unit                     : hbar/2
 output         energy unit                     : eV
 output          force unit                     : eV/A
 output       velocity unit                     : A/ps
 output       pressure unit                     : GPa
 output     inv_length unit                     : 1/A
 output      frequency unit                     : cm-1
 output force constant unit                     : eV/A**2
 output         volume unit                     : A**3
 output   IR intensity unit                     : (D/A)**2/amu
 output         dipole unit                     : D
 output         efield unit                     : eV/A/e
 output        entropy unit                     : J/mol/K
  
 wavefunctions paging                           : none
 random number generator seed                   : randomised (122155440)
 data distribution                              : optimal for this architecture
 optimization strategy                          : maximize speed(+++)

 *********************** Exchange-Correlation Parameters ***********************
  
 using functional                               : Perdew Burke Ernzerhof
 relativistic treatment                         : Koelling-Harmon
 DFT+D: Semi-empirical dispersion correction    : off

 ************************* Pseudopotential Parameters **************************
  
 pseudopotential representation                 : reciprocal space
 <beta|phi> representation                      : reciprocal space
 spin-orbit coupling                            : off

 **************************** Basis Set Parameters *****************************
  
 plane wave basis set cut-off                   :  1200.0000   eV
 size of standard grid                          :     2.0000
 size of   fine   gmax                          :    35.4943   1/A
 finite basis set correction                    : automatic
 number of sample energies                      :          3
           sample  spacing                      :     5.0000   eV

 **************************** Electronic Parameters ****************************
  
 number of  electrons                           :  16.00    
 net charge of system                           :  0.000    
 treating system as non-spin-polarized
 number of bands                                :          8

 ********************* Electronic Minimization Parameters **********************
  
 Method: Treating system as non-metallic,
         and number of  SD  steps               :          1
         and number of  CG  steps               :          4
  
 total energy / atom convergence tol.           : 0.1000E-10   eV
 eigen-energy convergence tolerance             : 0.2000E-10   eV
 max force / atom convergence tol.              : ignored
 convergence tolerance window                   :          3   cycles
 max. number of SCF cycles                      :        100
 periodic dipole correction                     : NONE

 ************************** Density Mixing Parameters **************************
  
 density-mixing scheme                          : Broyden
 max. length of mixing history                  :         20
 charge density mixing amplitude                : 0.8000    
 cut-off energy for mixing                      :  1200.       eV

 *********************** Population Analysis Parameters ************************
  
 Population analysis with cutoff                :  3.000       A
 Population analysis output                     : summary and pdos components

 ********************** Geometry Optimization Parameters ***********************
  
 optimization method                            : LBFGS
 max. no. of LBFGS updates                      : unbounded
 variable cell method                           : fixed basis quality
 max. number of steps                           :         60
 estimated bulk modulus                         :  500.0       GPa
 estimated <frequency>                          :  1668.       cm-1
 geom line minimiser                            : on
 with line minimiser tolerance                  :     0.4000
 total energy convergence tolerance             : 0.1000E-08   eV/atom
        max ionic |force| tolerance             : 0.1000E-04   eV/A
 max ionic |displacement| tolerance             : 0.1000E-04   A
   max |stress component| tolerance             : 0.1000E-04   GPa
 convergence tolerance window                   :          2   steps
 backup results every                           :      14400   seconds
 write geom trajectory file                     : on

 *******************************************************************************
  

                           -------------------------------
                                      Unit Cell
                           -------------------------------
        Real Lattice(A)                      Reciprocal Lattice(1/A)
     3.0211186    -0.0000000     0.0000000        2.079754628   0.000000000   0.000000000
    -0.0000000     1.8555166     0.0000000        0.000000000   3.386218908   0.000000000
     0.0000000     0.0000000     5.7631028        0.000000000   0.000000000   1.090243483

                       Lattice parameters(A)       Cell Angles
                    a =      3.021119          alpha =   90.000000
                    b =      1.855517          beta  =   90.000000
                    c =      5.763103          gamma =   90.000000

                       Current cell volume =            32.306430       A**3
                                   density =             0.499190   AMU/A**3
                                           =             0.828924     g/cm^3

                           -------------------------------
                                     Cell Contents
                           -------------------------------
                         Total number of ions in cell =   16
                      Total number of species in cell =    1
                        Max number of any one species =   16

            xxxxxxxxxxxxxxxxxxxxxxxxxxxxxxxxxxxxxxxxxxxxxxxxxxxxxxxxxxxx
            x  Element    Atom        Fractional coordinates of atoms  x
            x            Number           u          v          w      x
            x----------------------------------------------------------x
            x  H            1         0.402635   0.381626   0.000000   x 
            x  H            2        -0.402635   0.381626   0.500000   x 
            x  H            3         0.402635  -0.381626   0.500000   x 
            x  H            4        -0.402635  -0.381626   0.000000   x 
            x  H            5         0.365733  -0.000000   0.250000   x 
            x  H            6        -0.365733   0.000000   0.750000   x 
            x  H            7         0.365733   0.000000   0.750000   x 
            x  H            8        -0.365733  -0.000000   0.250000   x 
            x  H            9         0.902635   0.881626   0.500000   x 
            x  H           10        -0.902635   0.881626   0.000000   x 
            x  H           11         0.902635  -0.881626   0.000000   x 
            x  H           12        -0.902635  -0.881626   0.500000   x 
            x  H           13         0.865733   0.500000   0.750000   x 
            x  H           14        -0.865733   0.500000   0.250000   x 
            x  H           15         0.865733   0.500000   0.250000   x 
            x  H           16        -0.865733   0.500000   0.750000   x 
            xxxxxxxxxxxxxxxxxxxxxxxxxxxxxxxxxxxxxxxxxxxxxxxxxxxxxxxxxxxx


                         No user defined ionic velocities

                           -------------------------------
                                   Details of Species
                           -------------------------------

                               Mass of species in AMU
                                    H    1.0079400

                          Electric Quadrupole Moment (Barn)
                                    H    0.0028600 Isotope  2

                          Files used for pseudopotentials:
                                    H 0|0.7|2|6|8|10L(qc=10)

                           -------------------------------
                              k-Points For BZ Sampling
                           -------------------------------
                       MP grid size for SCF calculation is  8  8  8
                            with an offset of   0.000  0.000  0.000
                       Number of kpoints used =            64

                           -------------------------------
                               Symmetry and Constraints
                           -------------------------------

                      Cell is a supercell containing 2 primitive cells
                      Maximum deviation from symmetry = 0.301870E-14     ANG

                      Number of symmetry operations   =          16
                      Number of ionic constraints     =           3
                      Point group of crystal =     8: D2h, mmm, 2/m 2/m 2/m
                      Space group of crystal =    72: Ibam, -I 2 2c

             Set iprint > 1 for details on symmetry rotations/translations

                         Centre of mass is constrained
             Set iprint > 1 for details of linear ionic constraints

                         Number of cell constraints= 3
                         Cell constraints are:  1 2 3 0 0 0

                         External pressure/stress (GPa)
                        115.00000   0.00000   0.00000
                                  115.00000   0.00000
                                            115.00000
  
+---------------- MEMORY AND SCRATCH DISK ESTIMATES PER PROCESS --------------+
|                                                     Memory          Disk    |
| Baseline code, static data and system overhead      415.0 MB         0.0 MB |
| BLAS internal memory storage                          0.0 MB         0.0 MB |
| Model and support data                               38.3 MB         0.0 MB |
| Electronic energy minimisation requirements          16.1 MB         0.0 MB |
| Force calculation requirements                        7.1 MB         0.0 MB |
| Stress calculation requirements                       9.0 MB         0.0 MB |
|                                               ----------------------------- |
| Approx. total storage required per process          469.5 MB         0.0 MB |
|                                                                             |
| Requirements will fluctuate during execution and may exceed these estimates |
+-----------------------------------------------------------------------------+
Calculating finite basis set correction with  3 cut-off energies.
Calculating total energy with cut-off of 1190.000 eV.
------------------------------------------------------------------------ <-- SCF
SCF loop      Energy                           Energy gain       Timer   <-- SCF
                                               per atom          (sec)   <-- SCF
------------------------------------------------------------------------ <-- SCF
Initial   3.81292530E+002                                          3.39  <-- SCF
      1  -2.00998532E+002                    3.63931914E+001       4.12  <-- SCF
      2  -2.38249477E+002                    2.32818403E+000       4.61  <-- SCF
      3  -2.38338182E+002                    5.54404973E-003       5.54  <-- SCF
      4  -2.38324259E+002                   -8.70151018E-004       6.47  <-- SCF
      5  -2.38324850E+002                    3.68993351E-005       7.39  <-- SCF
      6  -2.38324894E+002                    2.78945024E-006       8.32  <-- SCF
      7  -2.38324894E+002                    1.30273615E-008       9.24  <-- SCF
      8  -2.38324894E+002                    6.78469043E-010      10.19  <-- SCF
      9  -2.38324894E+002                    1.21628308E-011      10.92  <-- SCF
     10  -2.38324894E+002                    4.98476670E-013      11.62  <-- SCF
     11  -2.38324894E+002                   -3.59507417E-013      12.37  <-- SCF
------------------------------------------------------------------------ <-- SCF
 
Final energy =  -238.3248944641     eV
(energy not corrected for finite basis set)
 
Calculating total energy with cut-off of 1195.000 eV.
------------------------------------------------------------------------ <-- SCF
SCF loop      Energy                           Energy gain       Timer   <-- SCF
                                               per atom          (sec)   <-- SCF
------------------------------------------------------------------------ <-- SCF
Initial  -2.38324894E+002                                         13.02  <-- SCF
      1  -2.38326094E+002                    7.49987051E-005      13.59  <-- SCF
      2  -2.38326094E+002                    1.24332166E-010      14.49  <-- SCF
      3  -2.38326095E+002                    2.81191989E-008      15.39  <-- SCF
      4  -2.38326095E+002                    1.48687434E-009      16.28  <-- SCF
      5  -2.38326095E+002                    8.36836592E-012      17.01  <-- SCF
      6  -2.38326095E+002                    7.55267682E-014      17.72  <-- SCF
------------------------------------------------------------------------ <-- SCF
 
Final energy =  -238.3260949192     eV
(energy not corrected for finite basis set)
 
Calculating total energy with cut-off of 1200.000 eV.
------------------------------------------------------------------------ <-- SCF
SCF loop      Energy                           Energy gain       Timer   <-- SCF
                                               per atom          (sec)   <-- SCF
------------------------------------------------------------------------ <-- SCF
Initial  -2.38326095E+002                                         18.35  <-- SCF
      1  -2.38327270E+002                    7.34159835E-005      18.92  <-- SCF
      2  -2.38327270E+002                    1.23081443E-010      19.82  <-- SCF
      3  -2.38327270E+002                    2.78445231E-008      20.72  <-- SCF
      4  -2.38327270E+002                    1.39021518E-009      21.62  <-- SCF
      5  -2.38327270E+002                    7.05722122E-012      22.35  <-- SCF
      6  -2.38327270E+002                    2.47727800E-013      23.14  <-- SCF
------------------------------------------------------------------------ <-- SCF
 
Final energy =  -238.3272700448     eV
(energy not corrected for finite basis set)
 
 For future reference: finite basis dEtot/dlog(Ecut) =      -0.287234eV
 Total energy corrected for finite basis set =    -238.327275 eV
 
+---------------- MEMORY AND SCRATCH DISK ESTIMATES PER PROCESS --------------+
|                                                     Memory          Disk    |
| Model and support data                               46.5 MB         0.0 MB |
| Electronic energy minimisation requirements          16.1 MB         0.0 MB |
| Geometry minimisation requirements                   18.8 MB         0.0 MB |
|                                               ----------------------------- |
| Approx. total storage required per process           81.4 MB         0.0 MB |
|                                                                             |
| Requirements will fluctuate during execution and may exceed these estimates |
+-----------------------------------------------------------------------------+
 

 ******************************** Symmetrised Forces ********************************
 *                                                                                  *
 *                           Cartesian components (eV/A)                            *
 * -------------------------------------------------------------------------------- *
 *                         x                    y                    z              *
 *                                                                                  *
 * H               1      0.00000              0.00000              0.00000         *
 * H               2     -0.00000              0.00000              0.00000         *
 * H               3      0.00000             -0.00000              0.00000         *
 * H               4     -0.00000             -0.00000              0.00000         *
 * H               5      0.00000              0.00000              0.00000         *
 * H               6     -0.00000             -0.00000             -0.00000         *
 * H               7      0.00000             -0.00000             -0.00000         *
 * H               8     -0.00000              0.00000              0.00000         *
 * H               9      0.00000              0.00000              0.00000         *
 * H              10     -0.00000              0.00000              0.00000         *
 * H              11      0.00000             -0.00000              0.00000         *
 * H              12     -0.00000             -0.00000              0.00000         *
 * H              13      0.00000              0.00000             -0.00000         *
 * H              14     -0.00000             -0.00000              0.00000         *
 * H              15      0.00000             -0.00000              0.00000         *
 * H              16     -0.00000              0.00000             -0.00000         *
 *                                                                                  *
 ************************************************************************************

 *********** Symmetrised Stress Tensor ***********
 *                                               *
 *          Cartesian components (GPa)           *
 * --------------------------------------------- *
 *             x             y             z     *
 *                                               *
 *  x   -131.990731      0.000000      0.000000  *
 *  y      0.000000   -131.990738      0.000000  *
 *  z      0.000000      0.000000   -131.990743  *
 *                                               *
 *  Pressure:  131.9907                          *
 *                                               *
 *************************************************
 LBFGS: finished iteration     0 with enthalpy= -2.15138574E+002 eV
  
 +-----------+-----------------+-----------------+------------+-----+ <-- LBFGS
 | Parameter |      value      |    tolerance    |    units   | OK? | <-- LBFGS
 +-----------+-----------------+-----------------+------------+-----+ <-- LBFGS
 |  dE/ion   |   0.000000E+000 |   1.000000E-009 |         eV | No  | <-- LBFGS
 |  |F|max   |   3.083859E-007 |   1.000000E-005 |       eV/A | Yes | <-- LBFGS
 |  |dR|max  |   0.000000E+000 |   1.000000E-005 |          A | No  | <-- LBFGS
 |   Smax    |   1.699074E+001 |   1.000000E-005 |        GPa | No  | <-- LBFGS
 +-----------+-----------------+-----------------+------------+-----+ <-- LBFGS
  

================================================================================
 Starting LBFGS iteration          1 ...
================================================================================
  
 +------------+-------------+-------------+-----------------+ <-- min LBFGS
 |    Step    |   lambda    |   F.delta'  |    enthalpy     | <-- min LBFGS
 +------------+-------------+-------------+-----------------+ <-- min LBFGS
 |  previous  |    0.000000 |    0.218072 |     -215.138574 | <-- min LBFGS
 +------------+-------------+-------------+-----------------+ <-- min LBFGS
  

--------------------------------------------------------------------------------
 LBFGS: starting iteration         1 with trial guess (lambda=  1.000000)
--------------------------------------------------------------------------------
 
+---------------- MEMORY AND SCRATCH DISK ESTIMATES PER PROCESS --------------+
|                                                     Memory          Disk    |
| Model and support data                               46.6 MB         0.0 MB |
| Electronic energy minimisation requirements          16.5 MB         0.0 MB |
| Geometry minimisation requirements                   19.2 MB         0.0 MB |
|                                               ----------------------------- |
| Approx. total storage required per process           82.3 MB         0.0 MB |
|                                                                             |
| Requirements will fluctuate during execution and may exceed these estimates |
+-----------------------------------------------------------------------------+
 

                           -------------------------------
                                      Unit Cell
                           -------------------------------
        Real Lattice(A)              Reciprocal Lattice(1/A)
     3.0553392    -0.0000000     0.0000000        2.056460780   0.000000000   0.000000000
    -0.0000000     1.8765343     0.0000000        0.000000000   3.348292270   0.000000000
     0.0000000     0.0000000     5.8283824        0.000000000   0.000000000   1.078032435

                       Lattice parameters(A)       Cell Angles
                    a =      3.055339          alpha =   90.000000
                    b =      1.876534          beta  =   90.000000
                    c =      5.828382          gamma =   90.000000

                Current cell volume =            33.416733 A**3

                           -------------------------------
                                     Cell Contents
                           -------------------------------

            xxxxxxxxxxxxxxxxxxxxxxxxxxxxxxxxxxxxxxxxxxxxxxxxxxxxxxxxxxxxxxxxx
            x  Element         Atom        Fractional coordinates of atoms  x
            x                 Number           u          v          w      x
            x---------------------------------------------------------------x
            x  H                 1         0.402635   0.381626   0.000000   x
            x  H                 2        -0.402635   0.381626   0.500000   x
            x  H                 3         0.402635  -0.381626   0.500000   x
            x  H                 4        -0.402635  -0.381626   0.000000   x
            x  H                 5         0.365733   0.000000   0.250000   x
            x  H                 6        -0.365733  -0.000000   0.750000   x
            x  H                 7         0.365733  -0.000000   0.750000   x
            x  H                 8        -0.365733   0.000000   0.250000   x
            x  H                 9         0.902635   0.881626   0.500000   x
            x  H                10        -0.902635   0.881626   0.000000   x
            x  H                11         0.902635  -0.881626   0.000000   x
            x  H                12        -0.902635  -0.881626   0.500000   x
            x  H                13         0.865733   0.500000   0.750000   x
            x  H                14        -0.865733   0.500000   0.250000   x
            x  H                15         0.865733   0.500000   0.250000   x
            x  H                16        -0.865733   0.500000   0.750000   x
            xxxxxxxxxxxxxxxxxxxxxxxxxxxxxxxxxxxxxxxxxxxxxxxxxxxxxxxxxxxxxxxxx


------------------------------------------------------------------------ <-- SCF
SCF loop      Energy                           Energy gain       Timer   <-- SCF
                                               per atom          (sec)   <-- SCF
------------------------------------------------------------------------ <-- SCF
Initial  -2.39174738E+002                                         25.43  <-- SCF
      1  -2.39195379E+002                    1.29005318E-003      26.01  <-- SCF
      2  -2.39195503E+002                    7.78082656E-006      26.95  <-- SCF
      3  -2.39195224E+002                   -1.74582327E-005      27.87  <-- SCF
      4  -2.39195218E+002                   -3.50685597E-007      28.80  <-- SCF
      5  -2.39195219E+002                    2.14779308E-008      29.73  <-- SCF
      6  -2.39195219E+002                    2.00060742E-009      30.66  <-- SCF
      7  -2.39195219E+002                    4.20533046E-012      31.36  <-- SCF
      8  -2.39195219E+002                    3.23254568E-013      32.07  <-- SCF
------------------------------------------------------------------------ <-- SCF
 
Final energy =  -239.1952186221     eV
(energy not corrected for finite basis set)
 

 ******************************** Symmetrised Forces ********************************
 *                                                                                  *
 *                           Cartesian components (eV/A)                            *
 * -------------------------------------------------------------------------------- *
 *                         x                    y                    z              *
 *                                                                                  *
 * H               1      0.17746              0.13616              0.00000         *
 * H               2     -0.17746              0.13616              0.00000         *
 * H               3      0.17746             -0.13616              0.00000         *
 * H               4     -0.17746             -0.13616              0.00000         *
 * H               5      0.15261             -0.00000              0.00000         *
 * H               6     -0.15261              0.00000              0.00000         *
 * H               7      0.15261              0.00000              0.00000         *
 * H               8     -0.15261              0.00000              0.00000         *
 * H               9      0.17746              0.13616              0.00000         *
 * H              10     -0.17746              0.13616              0.00000         *
 * H              11      0.17746             -0.13616              0.00000         *
 * H              12     -0.17746             -0.13616              0.00000         *
 * H              13      0.15261             -0.00000              0.00000         *
 * H              14     -0.15261              0.00000              0.00000         *
 * H              15      0.15261             -0.00000              0.00000         *
 * H              16     -0.15261              0.00000              0.00000         *
 *                                                                                  *
 ************************************************************************************

 *********** Symmetrised Stress Tensor ***********
 *                                               *
 *          Cartesian components (GPa)           *
 * --------------------------------------------- *
 *             x             y             z     *
 *                                               *
 *  x   -115.523539      0.000000      0.000000  *
 *  y      0.000000   -119.325907      0.000000  *
 *  z      0.000000      0.000000   -121.610579  *
 *                                               *
 *  Pressure:  118.8200                          *
 *                                               *
 *************************************************
  
 +------------+-------------+-------------+-----------------+ <-- min LBFGS
 |    Step    |   lambda    |   F.delta'  |    enthalpy     | <-- min LBFGS
 +------------+-------------+-------------+-----------------+ <-- min LBFGS
 |  previous  |    0.000000 |    0.218072 |     -215.138574 | <-- min LBFGS
 | trial step |    1.000000 |    0.050146 |     -215.209573 | <-- min LBFGS
 +------------+-------------+-------------+-----------------+ <-- min LBFGS
  
 LBFGS: finished iteration     1 with enthalpy= -2.15209573E+002 eV
  
 +-----------+-----------------+-----------------+------------+-----+ <-- LBFGS
 | Parameter |      value      |    tolerance    |    units   | OK? | <-- LBFGS
 +-----------+-----------------+-----------------+------------+-----+ <-- LBFGS
 |  dE/ion   |   4.437468E-003 |   1.000000E-009 |         eV | No  | <-- LBFGS
 |  |F|max   |   2.236779E-001 |   1.000000E-005 |       eV/A | No  | <-- LBFGS
 |  |dR|max  |   3.024914E-008 |   1.000000E-005 |          A | Yes | <-- LBFGS
 |   Smax    |   6.610579E+000 |   1.000000E-005 |        GPa | No  | <-- LBFGS
 +-----------+-----------------+-----------------+------------+-----+ <-- LBFGS
  

================================================================================
 Starting LBFGS iteration          2 ...
================================================================================
  
 +------------+-------------+-------------+-----------------+ <-- min LBFGS
 |    Step    |   lambda    |   F.delta'  |    enthalpy     | <-- min LBFGS
 +------------+-------------+-------------+-----------------+ <-- min LBFGS
 |  previous  |    0.000000 |    0.090241 |     -215.209573 | <-- min LBFGS
 +------------+-------------+-------------+-----------------+ <-- min LBFGS
  

--------------------------------------------------------------------------------
 LBFGS: starting iteration         2 with trial guess (lambda=  1.000000)
--------------------------------------------------------------------------------
 
+---------------- MEMORY AND SCRATCH DISK ESTIMATES PER PROCESS --------------+
|                                                     Memory          Disk    |
| Model and support data                               46.7 MB         0.0 MB |
| Electronic energy minimisation requirements          17.0 MB         0.0 MB |
| Geometry minimisation requirements                   19.7 MB         0.0 MB |
|                                               ----------------------------- |
| Approx. total storage required per process           83.3 MB         0.0 MB |
|                                                                             |
| Requirements will fluctuate during execution and may exceed these estimates |
+-----------------------------------------------------------------------------+
 

                           -------------------------------
                                      Unit Cell
                           -------------------------------
        Real Lattice(A)              Reciprocal Lattice(1/A)
     3.0869016    -0.0000000     0.0000000        2.035434244   0.000000000   0.000000000
    -0.0000000     1.9021667     0.0000000        0.000000000   3.303172831   0.000000000
     0.0000000     0.0000000     5.9196536        0.000000000   0.000000000   1.061410975

                       Lattice parameters(A)       Cell Angles
                    a =      3.086902          alpha =   90.000000
                    b =      1.902167          beta  =   90.000000
                    c =      5.919654          gamma =   90.000000

                Current cell volume =            34.759031 A**3

                           -------------------------------
                                     Cell Contents
                           -------------------------------

            xxxxxxxxxxxxxxxxxxxxxxxxxxxxxxxxxxxxxxxxxxxxxxxxxxxxxxxxxxxxxxxxx
            x  Element         Atom        Fractional coordinates of atoms  x
            x                 Number           u          v          w      x
            x---------------------------------------------------------------x
            x  H                 1         0.410117   0.390973   0.000000   x
            x  H                 2        -0.410117   0.390973   0.500000   x
            x  H                 3         0.410117  -0.390973   0.500000   x
            x  H                 4        -0.410117  -0.390973   0.000000   x
            x  H                 5         0.372167   0.000000   0.250000   x
            x  H                 6        -0.372167  -0.000000   0.750000   x
            x  H                 7         0.372167  -0.000000   0.750000   x
            x  H                 8        -0.372167   0.000000   0.250000   x
            x  H                 9         0.910117   0.890973   0.500000   x
            x  H                10        -0.910117   0.890973   0.000000   x
            x  H                11         0.910117  -0.890973   0.000000   x
            x  H                12        -0.910117  -0.890973   0.500000   x
            x  H                13         0.872167   0.500000   0.750000   x
            x  H                14        -0.872167   0.500000   0.250000   x
            x  H                15         0.872167   0.500000   0.250000   x
            x  H                16        -0.872167   0.500000   0.750000   x
            xxxxxxxxxxxxxxxxxxxxxxxxxxxxxxxxxxxxxxxxxxxxxxxxxxxxxxxxxxxxxxxxx


------------------------------------------------------------------------ <-- SCF
SCF loop      Energy                           Energy gain       Timer   <-- SCF
                                               per atom          (sec)   <-- SCF
------------------------------------------------------------------------ <-- SCF
Initial  -2.39028592E+002                                         34.40  <-- SCF
      1  -2.40127607E+002                    6.86884089E-002      34.98  <-- SCF
      2  -2.40132360E+002                    2.97079206E-004      35.89  <-- SCF
      3  -2.40058290E+002                   -4.62935665E-003      36.81  <-- SCF
      4  -2.40055276E+002                   -1.88384602E-004      37.73  <-- SCF
      5  -2.40055286E+002                    6.35234482E-007      38.64  <-- SCF
      6  -2.40055287E+002                    5.88136008E-008      39.56  <-- SCF
      7  -2.40055287E+002                    5.60372367E-010      40.47  <-- SCF
      8  -2.40055287E+002                    7.20797265E-011      41.18  <-- SCF
      9  -2.40055287E+002                    1.27489185E-012      41.89  <-- SCF
     10  -2.40055287E+002                    1.78243173E-013      42.60  <-- SCF
------------------------------------------------------------------------ <-- SCF
 
Final energy =  -240.0552874230     eV
(energy not corrected for finite basis set)
 

 ******************************** Symmetrised Forces ********************************
 *                                                                                  *
 *                           Cartesian components (eV/A)                            *
 * -------------------------------------------------------------------------------- *
 *                         x                    y                    z              *
 *                                                                                  *
 * H               1     -1.20895             -0.93492              0.00000         *
 * H               2      1.20895             -0.93492              0.00000         *
 * H               3     -1.20895              0.93492              0.00000         *
 * H               4      1.20895              0.93492              0.00000         *
 * H               5      0.01390              0.00000             -0.00000         *
 * H               6     -0.01390              0.00000             -0.00000         *
 * H               7      0.01390              0.00000             -0.00000         *
 * H               8     -0.01390              0.00000              0.00000         *
 * H               9     -1.20895             -0.93492              0.00000         *
 * H              10      1.20895             -0.93492              0.00000         *
 * H              11     -1.20895              0.93492              0.00000         *
 * H              12      1.20895              0.93492              0.00000         *
 * H              13      0.01390              0.00000              0.00000         *
 * H              14     -0.01390              0.00000             -0.00000         *
 * H              15      0.01390              0.00000              0.00000         *
 * H              16     -0.01390              0.00000              0.00000         *
 *                                                                                  *
 ************************************************************************************

 *********** Symmetrised Stress Tensor ***********
 *                                               *
 *          Cartesian components (GPa)           *
 * --------------------------------------------- *
 *             x             y             z     *
 *                                               *
 *  x   -122.049156      0.000000      0.000000  *
 *  y      0.000000   -118.660537      0.000000  *
 *  z      0.000000      0.000000   -110.103710  *
 *                                               *
 *  Pressure:  116.9378                          *
 *                                               *
 *************************************************
  
 +------------+-------------+-------------+-----------------+ <-- min LBFGS
 |    Step    |   lambda    |   F.delta'  |    enthalpy     | <-- min LBFGS
 +------------+-------------+-------------+-----------------+ <-- min LBFGS
 |  previous  |    0.000000 |    0.090241 |     -215.209573 | <-- min LBFGS
 | trial step |    1.000000 |   -0.280822 |     -215.106179 | <-- min LBFGS
 +------------+-------------+-------------+-----------------+ <-- min LBFGS
  

--------------------------------------------------------------------------------
 LBFGS: improving iteration         2 with line minimization (lambda=  0.243196)
--------------------------------------------------------------------------------

                           -------------------------------
                                      Unit Cell
                           -------------------------------
        Real Lattice(A)              Reciprocal Lattice(1/A)
     3.0630151    -0.0000000     0.0000000        2.051307338   0.000000000   0.000000000
    -0.0000000     1.8827680     0.0000000        0.000000000   3.337206357   0.000000000
     0.0000000     0.0000000     5.8505792        0.000000000   0.000000000   1.073942442

                       Lattice parameters(A)       Cell Angles
                    a =      3.063015          alpha =   90.000000
                    b =      1.882768          beta  =   90.000000
                    c =      5.850579          gamma =   90.000000

                Current cell volume =            33.739979 A**3

                           -------------------------------
                                     Cell Contents
                           -------------------------------

            xxxxxxxxxxxxxxxxxxxxxxxxxxxxxxxxxxxxxxxxxxxxxxxxxxxxxxxxxxxxxxxxx
            x  Element         Atom        Fractional coordinates of atoms  x
            x                 Number           u          v          w      x
            x---------------------------------------------------------------x
            x  H                 1         0.404455   0.383899   0.000000   x
            x  H                 2        -0.404455   0.383899   0.500000   x
            x  H                 3         0.404455  -0.383899   0.500000   x
            x  H                 4        -0.404455  -0.383899   0.000000   x
            x  H                 5         0.367298   0.000000   0.250000   x
            x  H                 6        -0.367298  -0.000000   0.750000   x
            x  H                 7         0.367298  -0.000000   0.750000   x
            x  H                 8        -0.367298   0.000000   0.250000   x
            x  H                 9         0.904455   0.883899   0.500000   x
            x  H                10        -0.904455   0.883899   0.000000   x
            x  H                11         0.904455  -0.883899   0.000000   x
            x  H                12        -0.904455  -0.883899   0.500000   x
            x  H                13         0.867298   0.500000   0.750000   x
            x  H                14        -0.867298   0.500000   0.250000   x
            x  H                15         0.867298   0.500000   0.250000   x
            x  H                16        -0.867298   0.500000   0.750000   x
            xxxxxxxxxxxxxxxxxxxxxxxxxxxxxxxxxxxxxxxxxxxxxxxxxxxxxxxxxxxxxxxxx


------------------------------------------------------------------------ <-- SCF
SCF loop      Energy                           Energy gain       Timer   <-- SCF
                                               per atom          (sec)   <-- SCF
------------------------------------------------------------------------ <-- SCF
Initial  -2.38825115E+002                                         44.83  <-- SCF
      1  -2.39485934E+002                    4.13011743E-002      45.42  <-- SCF
      2  -2.39489243E+002                    2.06824193E-004      46.35  <-- SCF
      3  -2.39444326E+002                   -2.80733703E-003      47.28  <-- SCF
      4  -2.39442547E+002                   -1.11174211E-004      48.21  <-- SCF
      5  -2.39442551E+002                    2.31290133E-007      49.15  <-- SCF
      6  -2.39442551E+002                    2.09063381E-008      50.09  <-- SCF
      7  -2.39442551E+002                    2.43027014E-010      50.99  <-- SCF
      8  -2.39442551E+002                    2.97847363E-011      51.70  <-- SCF
      9  -2.39442551E+002                    5.86087722E-013      52.40  <-- SCF
     10  -2.39442551E+002                   -2.23559234E-013      53.10  <-- SCF
------------------------------------------------------------------------ <-- SCF
 
Final energy =  -239.4425508413     eV
(energy not corrected for finite basis set)
 

 ******************************** Symmetrised Forces ********************************
 *                                                                                  *
 *                           Cartesian components (eV/A)                            *
 * -------------------------------------------------------------------------------- *
 *                         x                    y                    z              *
 *                                                                                  *
 * H               1     -0.10641             -0.08401              0.00000         *
 * H               2      0.10641             -0.08401              0.00000         *
 * H               3     -0.10641              0.08401              0.00000         *
 * H               4      0.10641              0.08401              0.00000         *
 * H               5      0.12561              0.00000              0.00000         *
 * H               6     -0.12561              0.00000              0.00000         *
 * H               7      0.12561              0.00000              0.00000         *
 * H               8     -0.12561              0.00000              0.00000         *
 * H               9     -0.10641             -0.08401              0.00000         *
 * H              10      0.10641             -0.08401              0.00000         *
 * H              11     -0.10641              0.08401              0.00000         *
 * H              12      0.10641              0.08401              0.00000         *
 * H              13      0.12561              0.00000              0.00000         *
 * H              14     -0.12561             -0.00000              0.00000         *
 * H              15      0.12561              0.00000              0.00000         *
 * H              16     -0.12561             -0.00000              0.00000         *
 *                                                                                  *
 ************************************************************************************

 *********** Symmetrised Stress Tensor ***********
 *                                               *
 *          Cartesian components (GPa)           *
 * --------------------------------------------- *
 *             x             y             z     *
 *                                               *
 *  x   -116.701556     -0.000000      0.000000  *
 *  y     -0.000000   -118.773982      0.000000  *
 *  z      0.000000      0.000000   -118.598555  *
 *                                               *
 *  Pressure:  118.0247                          *
 *                                               *
 *************************************************
  
 +------------+-------------+-------------+-----------------+ <-- min LBFGS
 |    Step    |   lambda    |   F.delta'  |    enthalpy     | <-- min LBFGS
 +------------+-------------+-------------+-----------------+ <-- min LBFGS
 |  previous  |    0.000000 |    0.090241 |     -215.209573 | <-- min LBFGS
 | trial step |    1.000000 |   -0.280822 |     -215.106179 | <-- min LBFGS
 |  line step |    0.243196 |    0.012076 |     -215.224921 | <-- min LBFGS
 +------------+-------------+-------------+-----------------+ <-- min LBFGS
  
 LBFGS: finished iteration     2 with enthalpy= -2.15224921E+002 eV
  
 +-----------+-----------------+-----------------+------------+-----+ <-- LBFGS
 | Parameter |      value      |    tolerance    |    units   | OK? | <-- LBFGS
 +-----------+-----------------+-----------------+------------+-----+ <-- LBFGS
 |  dE/ion   |   9.592135E-004 |   1.000000E-009 |         eV | No  | <-- LBFGS
 |  |F|max   |   1.355752E-001 |   1.000000E-005 |       eV/A | No  | <-- LBFGS
 |  |dR|max  |   7.027348E-003 |   1.000000E-005 |          A | No  | <-- LBFGS
 |   Smax    |   3.773982E+000 |   1.000000E-005 |        GPa | No  | <-- LBFGS
 +-----------+-----------------+-----------------+------------+-----+ <-- LBFGS
  

================================================================================
 Starting LBFGS iteration          3 ...
================================================================================
  
 +------------+-------------+-------------+-----------------+ <-- min LBFGS
 |    Step    |   lambda    |   F.delta'  |    enthalpy     | <-- min LBFGS
 +------------+-------------+-------------+-----------------+ <-- min LBFGS
 |  previous  |    0.000000 |    0.059011 |     -215.224921 | <-- min LBFGS
 +------------+-------------+-------------+-----------------+ <-- min LBFGS
  

--------------------------------------------------------------------------------
 LBFGS: starting iteration         3 with trial guess (lambda=  1.000000)
--------------------------------------------------------------------------------

                           -------------------------------
                                      Unit Cell
                           -------------------------------
        Real Lattice(A)              Reciprocal Lattice(1/A)
     3.0781083    -0.0000000     0.0000000        2.041248969   0.000000000   0.000000000
    -0.0000000     1.8979594     0.0000000        0.000000000   3.310495020   0.000000000
     0.0000000     0.0000000     5.9023235        0.000000000   0.000000000   1.064527443

                       Lattice parameters(A)       Cell Angles
                    a =      3.078108          alpha =   90.000000
                    b =      1.897959          beta  =   90.000000
                    c =      5.902323          gamma =   90.000000

                Current cell volume =            34.482109 A**3

                           -------------------------------
                                     Cell Contents
                           -------------------------------

            xxxxxxxxxxxxxxxxxxxxxxxxxxxxxxxxxxxxxxxxxxxxxxxxxxxxxxxxxxxxxxxxx
            x  Element         Atom        Fractional coordinates of atoms  x
            x                 Number           u          v          w      x
            x---------------------------------------------------------------x
            x  H                 1         0.403902   0.383060   0.000000   x
            x  H                 2        -0.403902   0.383060   0.500000   x
            x  H                 3         0.403902  -0.383060   0.500000   x
            x  H                 4        -0.403902  -0.383060   0.000000   x
            x  H                 5         0.374981   0.000000   0.250000   x
            x  H                 6        -0.374981  -0.000000   0.750000   x
            x  H                 7         0.374981  -0.000000   0.750000   x
            x  H                 8        -0.374981   0.000000   0.250000   x
            x  H                 9         0.903902   0.883060   0.500000   x
            x  H                10        -0.903902   0.883060   0.000000   x
            x  H                11         0.903902  -0.883060   0.000000   x
            x  H                12        -0.903902  -0.883060   0.500000   x
            x  H                13         0.874981   0.500000   0.750000   x
            x  H                14        -0.874981   0.500000   0.250000   x
            x  H                15         0.874981   0.500000   0.250000   x
            x  H                16        -0.874981   0.500000   0.750000   x
            xxxxxxxxxxxxxxxxxxxxxxxxxxxxxxxxxxxxxxxxxxxxxxxxxxxxxxxxxxxxxxxxx


------------------------------------------------------------------------ <-- SCF
SCF loop      Energy                           Energy gain       Timer   <-- SCF
                                               per atom          (sec)   <-- SCF
------------------------------------------------------------------------ <-- SCF
Initial  -2.39507941E+002                                         55.36  <-- SCF
      1  -2.40008413E+002                    3.12794839E-002      56.03  <-- SCF
      2  -2.40010776E+002                    1.47654275E-004      56.95  <-- SCF
      3  -2.39975454E+002                   -2.20757040E-003      57.90  <-- SCF
      4  -2.39974341E+002                   -6.95968938E-005      58.85  <-- SCF
      5  -2.39974335E+002                   -3.76313035E-007      59.81  <-- SCF
      6  -2.39974335E+002                    6.62801468E-009      60.80  <-- SCF
      7  -2.39974335E+002                    4.11288569E-010      61.73  <-- SCF
      8  -2.39974335E+002                    7.70070929E-011      62.48  <-- SCF
      9  -2.39974335E+002                    1.30510256E-012      63.18  <-- SCF
     10  -2.39974335E+002                    3.65549558E-013      63.88  <-- SCF
------------------------------------------------------------------------ <-- SCF
 
Final energy =  -239.9743349228     eV
(energy not corrected for finite basis set)
 

 ******************************** Symmetrised Forces ********************************
 *                                                                                  *
 *                           Cartesian components (eV/A)                            *
 * -------------------------------------------------------------------------------- *
 *                         x                    y                    z              *
 *                                                                                  *
 * H               1      0.06826              0.08893              0.00000         *
 * H               2     -0.06826              0.08893              0.00000         *
 * H               3      0.06826             -0.08893              0.00000         *
 * H               4     -0.06826             -0.08893              0.00000         *
 * H               5     -0.25087             -0.00000             -0.00000         *
 * H               6      0.25087              0.00000             -0.00000         *
 * H               7     -0.25087              0.00000              0.00000         *
 * H               8      0.25087              0.00000             -0.00000         *
 * H               9      0.06826              0.08893              0.00000         *
 * H              10     -0.06826              0.08893              0.00000         *
 * H              11      0.06826             -0.08893              0.00000         *
 * H              12     -0.06826             -0.08893              0.00000         *
 * H              13     -0.25087              0.00000             -0.00000         *
 * H              14      0.25087              0.00000              0.00000         *
 * H              15     -0.25087             -0.00000              0.00000         *
 * H              16      0.25087             -0.00000             -0.00000         *
 *                                                                                  *
 ************************************************************************************

 *********** Symmetrised Stress Tensor ***********
 *                                               *
 *          Cartesian components (GPa)           *
 * --------------------------------------------- *
 *             x             y             z     *
 *                                               *
 *  x   -116.260845      0.000000      0.000000  *
 *  y      0.000000   -114.900977      0.000000  *
 *  z      0.000000      0.000000   -113.118073  *
 *                                               *
 *  Pressure:  114.7600                          *
 *                                               *
 *************************************************
  
 +------------+-------------+-------------+-----------------+ <-- min LBFGS
 |    Step    |   lambda    |   F.delta'  |    enthalpy     | <-- min LBFGS
 +------------+-------------+-------------+-----------------+ <-- min LBFGS
 |  previous  |    0.000000 |    0.059011 |     -215.224921 | <-- min LBFGS
 | trial step |    1.000000 |   -0.074667 |     -215.223989 | <-- min LBFGS
 +------------+-------------+-------------+-----------------+ <-- min LBFGS
  

--------------------------------------------------------------------------------
 LBFGS: improving iteration         3 with line minimization (lambda=  0.441442)
--------------------------------------------------------------------------------

                           -------------------------------
                                      Unit Cell
                           -------------------------------
        Real Lattice(A)              Reciprocal Lattice(1/A)
     3.0696778    -0.0000000     0.0000000        2.046854959   0.000000000   0.000000000
    -0.0000000     1.8894741     0.0000000        0.000000000   3.325361902   0.000000000
     0.0000000     0.0000000     5.8734213        0.000000000   0.000000000   1.069765816

                       Lattice parameters(A)       Cell Angles
                    a =      3.069678          alpha =   90.000000
                    b =      1.889474          beta  =   90.000000
                    c =      5.873421          gamma =   90.000000

                Current cell volume =            34.066295 A**3

                           -------------------------------
                                     Cell Contents
                           -------------------------------

            xxxxxxxxxxxxxxxxxxxxxxxxxxxxxxxxxxxxxxxxxxxxxxxxxxxxxxxxxxxxxxxxx
            x  Element         Atom        Fractional coordinates of atoms  x
            x                 Number           u          v          w      x
            x---------------------------------------------------------------x
            x  H                 1         0.404211   0.383529   0.000000   x
            x  H                 2        -0.404211   0.383529   0.500000   x
            x  H                 3         0.404211  -0.383529   0.500000   x
            x  H                 4        -0.404211  -0.383529   0.000000   x
            x  H                 5         0.370689   0.000000   0.250000   x
            x  H                 6        -0.370689  -0.000000   0.750000   x
            x  H                 7         0.370689  -0.000000   0.750000   x
            x  H                 8        -0.370689   0.000000   0.250000   x
            x  H                 9         0.904211   0.883529   0.500000   x
            x  H                10        -0.904211   0.883529   0.000000   x
            x  H                11         0.904211  -0.883529   0.000000   x
            x  H                12        -0.904211  -0.883529   0.500000   x
            x  H                13         0.870689   0.500000   0.750000   x
            x  H                14        -0.870689   0.500000   0.250000   x
            x  H                15         0.870689   0.500000   0.250000   x
            x  H                16        -0.870689   0.500000   0.750000   x
            xxxxxxxxxxxxxxxxxxxxxxxxxxxxxxxxxxxxxxxxxxxxxxxxxxxxxxxxxxxxxxxxx


------------------------------------------------------------------------ <-- SCF
SCF loop      Energy                           Energy gain       Timer   <-- SCF
                                               per atom          (sec)   <-- SCF
------------------------------------------------------------------------ <-- SCF
Initial  -2.39538232E+002                                         66.09  <-- SCF
      1  -2.39698933E+002                    1.00438165E-002      66.69  <-- SCF
      2  -2.39699712E+002                    4.87037531E-005      67.61  <-- SCF
      3  -2.39688001E+002                   -7.31921378E-004      68.56  <-- SCF
      4  -2.39687637E+002                   -2.28013641E-005      69.51  <-- SCF
      5  -2.39687635E+002                   -1.04920125E-007      70.44  <-- SCF
      6  -2.39687635E+002                    9.63026716E-011      71.37  <-- SCF
      7  -2.39687635E+002                    2.19692263E-010      72.23  <-- SCF
      8  -2.39687635E+002                    2.01203311E-011      72.99  <-- SCF
      9  -2.39687635E+002                    3.38359922E-013      73.70  <-- SCF
     10  -2.39687635E+002                    1.99390668E-013      74.40  <-- SCF
------------------------------------------------------------------------ <-- SCF
 
Final energy =  -239.6876350043     eV
(energy not corrected for finite basis set)
 

 ******************************** Symmetrised Forces ********************************
 *                                                                                  *
 *                           Cartesian components (eV/A)                            *
 * -------------------------------------------------------------------------------- *
 *                         x                    y                    z              *
 *                                                                                  *
 * H               1     -0.02661             -0.00652              0.00000         *
 * H               2      0.02661             -0.00652              0.00000         *
 * H               3     -0.02661              0.00652              0.00000         *
 * H               4      0.02661              0.00652              0.00000         *
 * H               5     -0.00120              0.00000             -0.00000         *
 * H               6      0.00120              0.00000             -0.00000         *
 * H               7     -0.00120              0.00000              0.00000         *
 * H               8      0.00120              0.00000             -0.00000         *
 * H               9     -0.02661             -0.00652              0.00000         *
 * H              10      0.02661             -0.00652              0.00000         *
 * H              11     -0.02661              0.00652              0.00000         *
 * H              12      0.02661              0.00652              0.00000         *
 * H              13     -0.00120              0.00000              0.00000         *
 * H              14      0.00120              0.00000             -0.00000         *
 * H              15     -0.00120             -0.00000              0.00000         *
 * H              16      0.00120             -0.00000             -0.00000         *
 *                                                                                  *
 ************************************************************************************

 *********** Symmetrised Stress Tensor ***********
 *                                               *
 *          Cartesian components (GPa)           *
 * --------------------------------------------- *
 *             x             y             z     *
 *                                               *
 *  x   -115.973419      0.000000      0.000000  *
 *  y      0.000000   -117.069092      0.000000  *
 *  z      0.000000      0.000000   -116.134649  *
 *                                               *
 *  Pressure:  116.3924                          *
 *                                               *
 *************************************************
  
 +------------+-------------+-------------+-----------------+ <-- min LBFGS
 |    Step    |   lambda    |   F.delta'  |    enthalpy     | <-- min LBFGS
 +------------+-------------+-------------+-----------------+ <-- min LBFGS
 |  previous  |    0.000000 |    0.059011 |     -215.224921 | <-- min LBFGS
 | trial step |    1.000000 |   -0.074667 |     -215.223989 | <-- min LBFGS
 |  line step |    0.441442 |    0.009919 |     -215.235728 | <-- min LBFGS
 +------------+-------------+-------------+-----------------+ <-- min LBFGS
  
 LBFGS: finished iteration     3 with enthalpy= -2.15235728E+002 eV
  
 +-----------+-----------------+-----------------+------------+-----+ <-- LBFGS
 | Parameter |      value      |    tolerance    |    units   | OK? | <-- LBFGS
 +-----------+-----------------+-----------------+------------+-----+ <-- LBFGS
 |  dE/ion   |   6.754405E-004 |   1.000000E-009 |         eV | No  | <-- LBFGS
 |  |F|max   |   2.739426E-002 |   1.000000E-005 |       eV/A | No  | <-- LBFGS
 |  |dR|max  |   1.041193E-002 |   1.000000E-005 |          A | No  | <-- LBFGS
 |   Smax    |   2.069092E+000 |   1.000000E-005 |        GPa | No  | <-- LBFGS
 +-----------+-----------------+-----------------+------------+-----+ <-- LBFGS
  

================================================================================
 Starting LBFGS iteration          4 ...
================================================================================
  
 +------------+-------------+-------------+-----------------+ <-- min LBFGS
 |    Step    |   lambda    |   F.delta'  |    enthalpy     | <-- min LBFGS
 +------------+-------------+-------------+-----------------+ <-- min LBFGS
 |  previous  |    0.000000 |    0.016812 |     -215.235728 | <-- min LBFGS
 +------------+-------------+-------------+-----------------+ <-- min LBFGS
  

--------------------------------------------------------------------------------
 LBFGS: starting iteration         4 with trial guess (lambda=  1.000000)
--------------------------------------------------------------------------------

                           -------------------------------
                                      Unit Cell
                           -------------------------------
        Real Lattice(A)              Reciprocal Lattice(1/A)
     3.0729855    -0.0000000     0.0000000        2.044651808   0.000000000   0.000000000
    -0.0000000     1.8937001     0.0000000        0.000000000   3.317941015   0.000000000
     0.0000000     0.0000000     5.8831741        0.000000000   0.000000000   1.067992421

                       Lattice parameters(A)       Cell Angles
                    a =      3.072985          alpha =   90.000000
                    b =      1.893700          beta  =   90.000000
                    c =      5.883174          gamma =   90.000000

                Current cell volume =            34.236031 A**3

                           -------------------------------
                                     Cell Contents
                           -------------------------------

            xxxxxxxxxxxxxxxxxxxxxxxxxxxxxxxxxxxxxxxxxxxxxxxxxxxxxxxxxxxxxxxxx
            x  Element         Atom        Fractional coordinates of atoms  x
            x                 Number           u          v          w      x
            x---------------------------------------------------------------x
            x  H                 1         0.403953   0.384096   0.000000   x
            x  H                 2        -0.403953   0.384096   0.500000   x
            x  H                 3         0.403953  -0.384096   0.500000   x
            x  H                 4        -0.403953  -0.384096   0.000000   x
            x  H                 5         0.371132   0.000000   0.250000   x
            x  H                 6        -0.371132  -0.000000   0.750000   x
            x  H                 7         0.371132  -0.000000   0.750000   x
            x  H                 8        -0.371132   0.000000   0.250000   x
            x  H                 9         0.903953   0.884096   0.500000   x
            x  H                10        -0.903953   0.884096   0.000000   x
            x  H                11         0.903953  -0.884096   0.000000   x
            x  H                12        -0.903953  -0.884096   0.500000   x
            x  H                13         0.871132   0.500000   0.750000   x
            x  H                14        -0.871132   0.500000   0.250000   x
            x  H                15         0.871132   0.500000   0.250000   x
            x  H                16        -0.871132   0.500000   0.750000   x
            xxxxxxxxxxxxxxxxxxxxxxxxxxxxxxxxxxxxxxxxxxxxxxxxxxxxxxxxxxxxxxxxx


------------------------------------------------------------------------ <-- SCF
SCF loop      Energy                           Energy gain       Timer   <-- SCF
                                               per atom          (sec)   <-- SCF
------------------------------------------------------------------------ <-- SCF
Initial  -2.39806238E+002                                         76.71  <-- SCF
      1  -2.39810463E+002                    2.64037889E-004      77.30  <-- SCF
      2  -2.39810483E+002                    1.28616117E-006      78.22  <-- SCF
      3  -2.39810332E+002                   -9.43395087E-006      79.14  <-- SCF
      4  -2.39810327E+002                   -3.11257482E-007      80.10  <-- SCF
      5  -2.39810327E+002                    1.43574574E-009      81.01  <-- SCF
      6  -2.39810327E+002                    2.44839656E-010      81.96  <-- SCF
      7  -2.39810327E+002                    1.59512535E-012      82.66  <-- SCF
      8  -2.39810327E+002                    7.46204470E-013      83.35  <-- SCF
------------------------------------------------------------------------ <-- SCF
 
Final energy =  -239.8103273322     eV
(energy not corrected for finite basis set)
 

 ******************************** Symmetrised Forces ********************************
 *                                                                                  *
 *                           Cartesian components (eV/A)                            *
 * -------------------------------------------------------------------------------- *
 *                         x                    y                    z              *
 *                                                                                  *
 * H               1     -0.00546              0.00997              0.00000         *
 * H               2      0.00546              0.00997              0.00000         *
 * H               3     -0.00546             -0.00997              0.00000         *
 * H               4      0.00546             -0.00997              0.00000         *
 * H               5     -0.00191              0.00000              0.00000         *
 * H               6      0.00191              0.00000              0.00000         *
 * H               7     -0.00191              0.00000             -0.00000         *
 * H               8      0.00191              0.00000             -0.00000         *
 * H               9     -0.00546              0.00997              0.00000         *
 * H              10      0.00546              0.00997              0.00000         *
 * H              11     -0.00546             -0.00997              0.00000         *
 * H              12      0.00546             -0.00997              0.00000         *
 * H              13     -0.00191              0.00000              0.00000         *
 * H              14      0.00191              0.00000              0.00000         *
 * H              15     -0.00191              0.00000             -0.00000         *
 * H              16      0.00191              0.00000             -0.00000         *
 *                                                                                  *
 ************************************************************************************

 *********** Symmetrised Stress Tensor ***********
 *                                               *
 *          Cartesian components (GPa)           *
 * --------------------------------------------- *
 *             x             y             z     *
 *                                               *
 *  x   -114.572226      0.000000      0.000000  *
 *  y      0.000000   -115.496453      0.000000  *
 *  z      0.000000      0.000000   -114.767828  *
 *                                               *
 *  Pressure:  114.9455                          *
 *                                               *
 *************************************************
  
 +------------+-------------+-------------+-----------------+ <-- min LBFGS
 |    Step    |   lambda    |   F.delta'  |    enthalpy     | <-- min LBFGS
 +------------+-------------+-------------+-----------------+ <-- min LBFGS
 |  previous  |    0.000000 |    0.016812 |     -215.235728 | <-- min LBFGS
 | trial step |    1.000000 |    0.001533 |     -215.236611 | <-- min LBFGS
 +------------+-------------+-------------+-----------------+ <-- min LBFGS
  
 LBFGS: finished iteration     4 with enthalpy= -2.15236611E+002 eV
  
 +-----------+-----------------+-----------------+------------+-----+ <-- LBFGS
 | Parameter |      value      |    tolerance    |    units   | OK? | <-- LBFGS
 +-----------+-----------------+-----------------+------------+-----+ <-- LBFGS
 |  dE/ion   |   5.519245E-005 |   1.000000E-009 |         eV | No  | <-- LBFGS
 |  |F|max   |   1.136787E-002 |   1.000000E-005 |       eV/A | No  | <-- LBFGS
 |  |dR|max  |   1.360880E-003 |   1.000000E-005 |          A | No  | <-- LBFGS
 |   Smax    |   4.964530E-001 |   1.000000E-005 |        GPa | No  | <-- LBFGS
 +-----------+-----------------+-----------------+------------+-----+ <-- LBFGS
  

================================================================================
 Starting LBFGS iteration          5 ...
================================================================================
  
 +------------+-------------+-------------+-----------------+ <-- min LBFGS
 |    Step    |   lambda    |   F.delta'  |    enthalpy     | <-- min LBFGS
 +------------+-------------+-------------+-----------------+ <-- min LBFGS
 |  previous  |    0.000000 |    0.003939 |     -215.236611 | <-- min LBFGS
 +------------+-------------+-------------+-----------------+ <-- min LBFGS
  

--------------------------------------------------------------------------------
 LBFGS: starting iteration         5 with trial guess (lambda=  1.000000)
--------------------------------------------------------------------------------

                           -------------------------------
                                      Unit Cell
                           -------------------------------
        Real Lattice(A)              Reciprocal Lattice(1/A)
     3.0723859    -0.0000000     0.0000000        2.045050843   0.000000000   0.000000000
    -0.0000000     1.8948824     0.0000000        0.000000000   3.315870900   0.000000000
     0.0000000     0.0000000     5.8832882        0.000000000   0.000000000   1.067971702

                       Lattice parameters(A)       Cell Angles
                    a =      3.072386          alpha =   90.000000
                    b =      1.894882          beta  =   90.000000
                    c =      5.883288          gamma =   90.000000

                Current cell volume =            34.251385 A**3

                           -------------------------------
                                     Cell Contents
                           -------------------------------

            xxxxxxxxxxxxxxxxxxxxxxxxxxxxxxxxxxxxxxxxxxxxxxxxxxxxxxxxxxxxxxxxx
            x  Element         Atom        Fractional coordinates of atoms  x
            x                 Number           u          v          w      x
            x---------------------------------------------------------------x
            x  H                 1         0.403679   0.384671   0.000000   x
            x  H                 2        -0.403679   0.384671   0.500000   x
            x  H                 3         0.403679  -0.384671   0.500000   x
            x  H                 4        -0.403679  -0.384671   0.000000   x
            x  H                 5         0.371149   0.000000   0.250000   x
            x  H                 6        -0.371149  -0.000000   0.750000   x
            x  H                 7         0.371149  -0.000000   0.750000   x
            x  H                 8        -0.371149   0.000000   0.250000   x
            x  H                 9         0.903679   0.884671   0.500000   x
            x  H                10        -0.903679   0.884671   0.000000   x
            x  H                11         0.903679  -0.884671   0.000000   x
            x  H                12        -0.903679  -0.884671   0.500000   x
            x  H                13         0.871149   0.500000   0.750000   x
            x  H                14        -0.871149   0.500000   0.250000   x
            x  H                15         0.871149   0.500000   0.250000   x
[...]
            x---------------------------------------------------------------x
            x  H                 1         0.400649   0.391171   0.000000   x
            x  H                 2        -0.400649   0.391171   0.500000   x
            x  H                 3         0.400649  -0.391171   0.500000   x
            x  H                 4        -0.400649  -0.391171   0.000000   x
            x  H                 5         0.371473   0.000000   0.250000   x
            x  H                 6        -0.371473  -0.000000   0.750000   x
            x  H                 7         0.371473  -0.000000   0.750000   x
            x  H                 8        -0.371473   0.000000   0.250000   x
            x  H                 9         0.900649   0.891171   0.500000   x
            x  H                10        -0.900649   0.891171   0.000000   x
            x  H                11         0.900649  -0.891171   0.000000   x
            x  H                12        -0.900649  -0.891171   0.500000   x
            x  H                13         0.871473   0.500000   0.750000   x
            x  H                14        -0.871473   0.500000   0.250000   x
            x  H                15         0.871473   0.500000   0.250000   x
            x  H                16        -0.871473   0.500000   0.750000   x
            xxxxxxxxxxxxxxxxxxxxxxxxxxxxxxxxxxxxxxxxxxxxxxxxxxxxxxxxxxxxxxxxx


------------------------------------------------------------------------ <-- SCF
SCF loop      Energy                           Energy gain       Timer   <-- SCF
                                               per atom          (sec)   <-- SCF
------------------------------------------------------------------------ <-- SCF
Initial  -2.39816906E+002                                        193.85  <-- SCF
      1  -2.39816906E+002                    5.74003439E-014     194.22  <-- SCF
      2  -2.39816906E+002                    9.06321219E-015     194.93  <-- SCF
      3  -2.39816906E+002                   -2.71896366E-013     195.64  <-- SCF
      4  -2.39816906E+002                    2.02411739E-013     196.48  <-- SCF
------------------------------------------------------------------------ <-- SCF
 
Final energy =  -239.8169055212     eV
(energy not corrected for finite basis set)
 

 ******************************** Symmetrised Forces ********************************
 *                                                                                  *
 *                           Cartesian components (eV/A)                            *
 * -------------------------------------------------------------------------------- *
 *                         x                    y                    z              *
 *                                                                                  *
 * H               1     -0.00000             -0.00000              0.00000         *
 * H               2      0.00000             -0.00000              0.00000         *
 * H               3     -0.00000              0.00000              0.00000         *
 * H               4      0.00000              0.00000              0.00000         *
 * H               5     -0.00000              0.00000             -0.00000         *
 * H               6      0.00000              0.00000             -0.00000         *
 * H               7     -0.00000              0.00000             -0.00000         *
 * H               8      0.00000              0.00000             -0.00000         *
 * H               9     -0.00000             -0.00000              0.00000         *
 * H              10      0.00000             -0.00000              0.00000         *
 * H              11     -0.00000              0.00000              0.00000         *
 * H              12      0.00000              0.00000              0.00000         *
 * H              13     -0.00000              0.00000             -0.00000         *
 * H              14      0.00000              0.00000             -0.00000         *
 * H              15     -0.00000              0.00000              0.00000         *
 * H              16      0.00000             -0.00000              0.00000         *
 *                                                                                  *
 ************************************************************************************

 *********** Symmetrised Stress Tensor ***********
 *                                               *
 *          Cartesian components (GPa)           *
 * --------------------------------------------- *
 *             x             y             z     *
 *                                               *
 *  x   -115.000004      0.000000      0.000000  *
 *  y      0.000000   -114.999995      0.000000  *
 *  z      0.000000      0.000000   -114.999998  *
 *                                               *
 *  Pressure:  115.0000                          *
 *                                               *
 *************************************************
  
 +------------+-------------+-------------+-----------------+ <-- min LBFGS
 |    Step    |   lambda    |   F.delta'  |    enthalpy     | <-- min LBFGS
 +------------+-------------+-------------+-----------------+ <-- min LBFGS
 |  previous  |    0.000000 |  5.309E-008 |     -215.237498 | <-- min LBFGS
 | trial step |    1.000000 | -1.844E-008 |     -215.237498 | <-- min LBFGS
 +------------+-------------+-------------+-----------------+ <-- min LBFGS
  
 LBFGS: finished iteration    15 with enthalpy= -2.15237498E+002 eV
  
 +-----------+-----------------+-----------------+------------+-----+ <-- LBFGS
 | Parameter |      value      |    tolerance    |    units   | OK? | <-- LBFGS
 +-----------+-----------------+-----------------+------------+-----+ <-- LBFGS
 |  dE/ion   |   3.021071E-013 |   1.000000E-009 |         eV | Yes | <-- LBFGS
 |  |F|max   |   2.327031E-007 |   1.000000E-005 |       eV/A | Yes | <-- LBFGS
 |  |dR|max  |   5.846737E-008 |   1.000000E-005 |          A | Yes | <-- LBFGS
 |   Smax    |   4.645385E-006 |   1.000000E-005 |        GPa | Yes | <-- LBFGS
 +-----------+-----------------+-----------------+------------+-----+ <-- LBFGS
  
 LBFGS: Geometry optimization completed successfully.

================================================================================
 LBFGS: Final Configuration:
================================================================================

                           -------------------------------
                                      Unit Cell
                           -------------------------------
        Real Lattice(A)              Reciprocal Lattice(1/A)
     3.0711753    -0.0000000     0.0000000        2.045856973   0.000000000   0.000000000
    -0.0000000     1.8972295     0.0000000        0.000000000   3.311768674   0.000000000
     0.0000000     0.0000000     5.8770491        0.000000000   0.000000000   1.069105464

                       Lattice parameters(A)       Cell Angles
                    a =      3.071175          alpha =   90.000000
                    b =      1.897230          beta  =   90.000000
                    c =      5.877049          gamma =   90.000000

                Current cell volume =            34.243945 A**3

                           -------------------------------
                                     Cell Contents
                           -------------------------------

            xxxxxxxxxxxxxxxxxxxxxxxxxxxxxxxxxxxxxxxxxxxxxxxxxxxxxxxxxxxxxxxxx
            x  Element         Atom        Fractional coordinates of atoms  x
            x                 Number           u          v          w      x
            x---------------------------------------------------------------x
            x  H                 1         0.400649   0.391171   0.000000   x
            x  H                 2        -0.400649   0.391171   0.500000   x
            x  H                 3         0.400649  -0.391171   0.500000   x
            x  H                 4        -0.400649  -0.391171   0.000000   x
            x  H                 5         0.371473   0.000000   0.250000   x
            x  H                 6        -0.371473  -0.000000   0.750000   x
            x  H                 7         0.371473  -0.000000   0.750000   x
            x  H                 8        -0.371473   0.000000   0.250000   x
            x  H                 9         0.900649   0.891171   0.500000   x
            x  H                10        -0.900649   0.891171   0.000000   x
            x  H                11         0.900649  -0.891171   0.000000   x
            x  H                12        -0.900649  -0.891171   0.500000   x
            x  H                13         0.871473   0.500000   0.750000   x
            x  H                14        -0.871473   0.500000   0.250000   x
            x  H                15         0.871473   0.500000   0.250000   x
            x  H                16        -0.871473   0.500000   0.750000   x
            xxxxxxxxxxxxxxxxxxxxxxxxxxxxxxxxxxxxxxxxxxxxxxxxxxxxxxxxxxxxxxxxx


 LBFGS: Final Enthalpy     = -2.15237498E+002 eV
 LBFGS: Final <frequency>  =     365.24431 cm-1
 LBFGS: Final bulk modulus =     297.34972 GPa

 ******************************** Symmetrised Forces ********************************
 *                                                                                  *
 *                           Cartesian components (eV/A)                            *
 * -------------------------------------------------------------------------------- *
 *                         x                    y                    z              *
 *                                                                                  *
 * H               1     -0.00000             -0.00000              0.00000         *
 * H               2      0.00000             -0.00000              0.00000         *
 * H               3     -0.00000              0.00000              0.00000         *
 * H               4      0.00000              0.00000              0.00000         *
 * H               5     -0.00000              0.00000             -0.00000         *
 * H               6      0.00000              0.00000             -0.00000         *
 * H               7     -0.00000              0.00000             -0.00000         *
 * H               8      0.00000              0.00000             -0.00000         *
 * H               9     -0.00000             -0.00000              0.00000         *
 * H              10      0.00000             -0.00000              0.00000         *
 * H              11     -0.00000              0.00000              0.00000         *
 * H              12      0.00000              0.00000              0.00000         *
 * H              13     -0.00000              0.00000             -0.00000         *
 * H              14      0.00000              0.00000             -0.00000         *
 * H              15     -0.00000              0.00000              0.00000         *
 * H              16      0.00000             -0.00000              0.00000         *
 *                                                                                  *
 ************************************************************************************

 *********** Symmetrised Stress Tensor ***********
 *                                               *
 *          Cartesian components (GPa)           *
 * --------------------------------------------- *
 *             x             y             z     *
 *                                               *
 *  x   -115.000004      0.000000      0.000000  *
 *  y      0.000000   -114.999995      0.000000  *
 *  z      0.000000      0.000000   -114.999998  *
 *                                               *
 *  Pressure:  115.0000                          *
 *                                               *
 *************************************************

 Pseudo atomic calculation performed for H 1s1

 Converged in 24 iterations to a total energy of -12.4843 eV

Charge spilling parameter for spin component 1 = 0.54%

            Orbital Populations       
     Ion    Atom   Orbital             Charge
  -------------------------------------------
      H     1      S                    1.005
      H     2      S                    1.002
      H     3      S                    1.002
      H     4      S                    1.005
      H     5      S                    0.997
      H     6      S                    0.997
      H     7      S                    0.997
      H     8      S                    0.997
      H     9      S                    1.005
      H    10      S                    1.002
      H    11      S                    1.002
      H    12      S                    1.005
      H    13      S                    0.997
      H    14      S                    0.997
      H    15      S                    0.997
      H    16      S                    0.997
  -------------------------------------------
                           Total:      16.000
  -------------------------------------------

     Atomic Populations (Mulliken)
     -----------------------------
Species          Ion     s      p      d      f     Total  Charge (e)
=====================================================================
  H               1     1.00   0.00   0.00   0.00   1.00    -0.00
  H               2     1.00   0.00   0.00   0.00   1.00    -0.00
  H               3     1.00   0.00   0.00   0.00   1.00    -0.00
  H               4     1.00   0.00   0.00   0.00   1.00    -0.00
  H               5     1.00   0.00   0.00   0.00   1.00     0.00
  H               6     1.00   0.00   0.00   0.00   1.00     0.00
  H               7     1.00   0.00   0.00   0.00   1.00     0.00
  H               8     1.00   0.00   0.00   0.00   1.00     0.00
  H               9     1.00   0.00   0.00   0.00   1.00    -0.00
  H              10     1.00   0.00   0.00   0.00   1.00    -0.00
  H              11     1.00   0.00   0.00   0.00   1.00    -0.00
  H              12     1.00   0.00   0.00   0.00   1.00    -0.00
  H              13     1.00   0.00   0.00   0.00   1.00     0.00
  H              14     1.00   0.00   0.00   0.00   1.00     0.00
  H              15     1.00   0.00   0.00   0.00   1.00     0.00
  H              16     1.00   0.00   0.00   0.00   1.00     0.00
=====================================================================

                 Bond                   Population      Length (A)
======================================================================
              H 2  -- H 3                    1.37        0.73684
              H 1  -- H 4                    1.37        0.73684
              H 10 -- H 11                   1.37        0.73684
              H 9  -- H 12                   1.37        0.73684
              H 6  -- H 7                    0.90        0.78946
              H 5  -- H 8                    0.90        0.78946
              H 14 -- H 15                   0.90        0.78946
              H 13 -- H 16                   0.90        0.78946
              H 8  -- H 15                   0.32        1.20689
              H 7  -- H 16                   0.32        1.20689
              H 6  -- H 13                   0.32        1.20689
              H 5  -- H 14                   0.32        1.20689
              H 4  -- H 11                  -0.19        1.32519
              H 3  -- H 12                  -0.19        1.32519
              H 2  -- H 9                   -0.19        1.32519
              H 1  -- H 10                  -0.19        1.32519
              H 4  -- H 10                  -0.53        1.62634
              H 3  -- H 9                   -0.53        1.62634
              H 2  -- H 12                  -0.53        1.62634
              H 1  -- H 11                  -0.53        1.62634
              H 12 -- H 16                  -0.12        1.64849
              H 11 -- H 15                  -0.12        1.64849
              H 10 -- H 14                  -0.12        1.64849
              H 9  -- H 13                  -0.12        1.64849
              H 4  -- H 8                   -0.12        1.64849
              H 3  -- H 7                   -0.12        1.64849
              H 2  -- H 6                   -0.12        1.64849
              H 1  -- H 5                   -0.12        1.64849
              H 12 -- H 14                  -0.12        1.64849
              H 11 -- H 13                  -0.12        1.64849
              H 10 -- H 16                  -0.12        1.64849
              H 9  -- H 15                  -0.12        1.64849
              H 4  -- H 6                   -0.12        1.64849
              H 3  -- H 5                   -0.12        1.64849
              H 2  -- H 8                   -0.12        1.64849
              H 1  -- H 7                   -0.12        1.64849
              H 4  -- H 15                  -0.04        1.70288
              H 3  -- H 16                  -0.04        1.70288
              H 2  -- H 13                  -0.04        1.70288
              H 1  -- H 14                  -0.04        1.70288
              H 8  -- H 9                   -0.04        1.70288
              H 7  -- H 10                  -0.04        1.70288
              H 6  -- H 11                  -0.04        1.70288
              H 5  -- H 12                  -0.04        1.70288
              H 4  -- H 13                  -0.04        1.70288
              H 3  -- H 14                  -0.04        1.70288
              H 2  -- H 15                  -0.04        1.70288
              H 1  -- H 16                  -0.04        1.70288
              H 8  -- H 11                  -0.04        1.70288
              H 7  -- H 12                  -0.04        1.70288
              H 6  -- H 9                   -0.04        1.70288
              H 5  -- H 10                  -0.04        1.70288
              H 4  -- H 5                   -0.20        1.78866
              H 3  -- H 6                   -0.20        1.78866
              H 2  -- H 7                   -0.20        1.78866
              H 1  -- H 8                   -0.20        1.78866
              H 4  -- H 7                   -0.20        1.78866
              H 3  -- H 8                   -0.20        1.78866
              H 2  -- H 5                   -0.20        1.78866
              H 1  -- H 6                   -0.20        1.78866
              H 12 -- H 13                  -0.20        1.78866
              H 11 -- H 14                  -0.20        1.78866
              H 10 -- H 15                  -0.20        1.78866
              H 9  -- H 16                  -0.20        1.78866
              H 12 -- H 15                  -0.20        1.78866
              H 11 -- H 16                  -0.20        1.78866
              H 10 -- H 13                  -0.20        1.78866
              H 9  -- H 14                  -0.20        1.78866
              H 8  -- H 14                  -0.60        1.80497
              H 7  -- H 13                  -0.60        1.80497
              H 6  -- H 16                  -0.60        1.80497
              H 5  -- H 15                  -0.60        1.80497
======================================================================


Writing analysis data to Hibam.castep_bin

Writing model to Hibam.check
 
 A BibTeX formatted list of references used in this run has been written to 
 Hibam.bib
 
Initialisation time =      2.53 s
Calculation time    =    196.97 s
Finalisation time   =      1.28 s
Total time          =    200.77 s
Peak Memory Use     = 510520 kB
  
Overall parallel efficiency rating: Excellent (92%)                             
  
Data was distributed by:-
k-point (16-way); efficiency rating: Excellent (93%)                            
  
Parallel notes:
1) Calculation only took 199.5 s, so efficiency estimates may be inaccurate.    
