 +-------------------------------------------------+
 |                                                 |
 |      CCC   AA    SSS  TTTTT  EEEEE  PPPP        |
 |     C     A  A  S       T    E      P   P       |
 |     C     AAAA   SS     T    EEE    PPPP        |
 |     C     A  A     S    T    E      P           |
 |      CCC  A  A  SSS     T    EEEEE  P           |
 |                                                 |
 +-------------------------------------------------+
 |                                                 |
 | Welcome to Academic Release CASTEP version 18.1 |          
 | Ab Initio Total Energy Program                  |
 |                                                 |
 | Authors:                                        |
 | M. Segall, M. Probert, C. Pickard, P. Hasnip,   |
 | S. Clark, K. Refson, J. R. Yates, M. Payne      |
 |                                                 |
 | Contributors:                                   |
 | P. Lindan, P. Haynes, J. White, V. Milman,      |
 | N. Govind, M. Gibson, P. Tulip, V. Cocula,      |
 | B. Montanari, D. Quigley, M. Glover,            |
 | L. Bernasconi, A. Perlov, M. Plummer,           |
 | E. McNellis, J. Meyer, J. Gale, D. Jochym       |
 | J. Aarons, B. Walker, R. Gillen, D. Jones       |
 | T. Green, I. J. Bush, C. J. Armstrong,          |
 | E. J. Higgins, E. L. Brown, M. S. McFly,        |
 | J. Wilkins, B-C. Shih, P. J. P. Byrne           |
 |                                                 |
 | Copyright (c) 2000 - 2017                       |
 |                                                 |
 |     Distributed under the terms of an           |
 |     Agreement between the United Kingdom        |
 |     Car-Parrinello (UKCP) Consortium,           |
 |     Daresbury Laboratory and Accelrys, Inc.     |
 |                                                 |
 | Please cite                                     |
 |                                                 |
 |     "First principles methods using CASTEP"     |
 |                                                 |
 |         Zeitschrift fuer Kristallographie       |
 |           220(5-6) pp. 567-570 (2005)           |
 |                                                 |
 | S. J. Clark, M. D. Segall, C. J. Pickard,       |
 | P. J. Hasnip, M. J. Probert, K. Refson,         |
 | M. C. Payne                                     |
 |                                                 |
 |       in all publications arising from          |
 |              your use of CASTEP                 |
 |                                                 |
 +-------------------------------------------------+


 Compiled for linux_x86_64_gfortran4.8 on Thu, 19 Jul 2018 15:42:32 +0100
 from code version 70483bd0ad64+  Sun, 10 Dec 2017 12:18:29 +0000
 Compiler: GNU Fortran 4.8.5; Optimisation: fast
 MATHLIBS: Intel MKL(2018.0.0) (LAPACK version 3.7.0)
 FFT Lib : mkl
 Fundamental constants values: CODATA 2014

 Run started: Fri, 21 Aug 2020 12:14:04 +0100

 Atomic calculation performed for H: 1s1

 Converged in 41 iterations to an ae energy of -12.488 eV

   ============================================================                
   | Pseudopotential Report - Date of generation 21-08-2020   |                
   ------------------------------------------------------------                
   | Element: H Ionic charge:  1.00 Level of theory: PBE      |                
   | Atomic Solver: Koelling-Harmon                           |                
   |                                                          |                
   |               Reference Electronic Structure             |                
   |         Orbital         Occupation         Energy        |                
   |            1s              1.000           -0.239        |                
   |                                                          |                
   |                 Pseudopotential Definition               |                
   |        Beta     l      e      Rc     scheme   norm       |                
   |         loc     0   -0.239   0.702     qc      1         |                
   |                                                          |                
   | No charge augmentation                                   |                
   | No partial core correction                               |                
   ------------------------------------------------------------                
   | "0|0.7|2|6|8|10L(qc=10)"                                 |                
   ------------------------------------------------------------                
   |      Author: Chris J. Pickard, Cambridge University      |                
   ============================================================                

 Pseudo atomic calculation performed for H 1s1

 Converged in 24 iterations to a total energy of -12.4843 eV

 Calculation parallelised over 16 processes.
 Data is distributed by k-point(16-way)

 ************************************ Title ************************************
 

 ***************************** General Parameters ******************************
  
 output verbosity                               : normal  (1)
 write checkpoint data to                       : Hibam.check
 type of calculation                            : geometry optimization
 stress calculation                             : on
 density difference calculation                 : off
 electron localisation func (ELF) calculation   : off
 Hirshfeld analysis                             : off
 unlimited duration calculation
 timing information                             : on
 memory usage estimate                          : on
 write extra output files                       : on
 write final potential to formatted file        : off
 write final density to formatted file          : off
 write structure in CELL formatted file         : on
 write BibTeX reference list                    : on
 write OTFG pseudopotential files               : on
 write electrostatic potential file             : on
 write bands file                               : on
 checkpoint writing                             : both castep_bin and check files
  
 output         length unit                     : A
 output           mass unit                     : amu
 output           time unit                     : ps
 output         charge unit                     : e
 output           spin unit                     : hbar/2
 output         energy unit                     : eV
 output          force unit                     : eV/A
 output       velocity unit                     : A/ps
 output       pressure unit                     : GPa
 output     inv_length unit                     : 1/A
 output      frequency unit                     : cm-1
 output force constant unit                     : eV/A**2
 output         volume unit                     : A**3
 output   IR intensity unit                     : (D/A)**2/amu
 output         dipole unit                     : D
 output         efield unit                     : eV/A/e
 output        entropy unit                     : J/mol/K
  
 wavefunctions paging                           : none
 random number generator seed                   : randomised (121404848)
 data distribution                              : optimal for this architecture
 optimization strategy                          : maximize speed(+++)

 *********************** Exchange-Correlation Parameters ***********************
  
 using functional                               : Perdew Burke Ernzerhof
 relativistic treatment                         : Koelling-Harmon
 DFT+D: Semi-empirical dispersion correction    : off

 ************************* Pseudopotential Parameters **************************
  
 pseudopotential representation                 : reciprocal space
 <beta|phi> representation                      : reciprocal space
 spin-orbit coupling                            : off

 **************************** Basis Set Parameters *****************************
  
 plane wave basis set cut-off                   :  1200.0000   eV
 size of standard grid                          :     2.0000
 size of   fine   gmax                          :    35.4943   1/A
 finite basis set correction                    : automatic
 number of sample energies                      :          3
           sample  spacing                      :     5.0000   eV

 **************************** Electronic Parameters ****************************
  
 number of  electrons                           :  16.00    
 net charge of system                           :  0.000    
 treating system as non-spin-polarized
 number of bands                                :          8

 ********************* Electronic Minimization Parameters **********************
  
 Method: Treating system as non-metallic,
         and number of  SD  steps               :          1
         and number of  CG  steps               :          4
  
 total energy / atom convergence tol.           : 0.1000E-10   eV
 eigen-energy convergence tolerance             : 0.2000E-10   eV
 max force / atom convergence tol.              : ignored
 convergence tolerance window                   :          3   cycles
 max. number of SCF cycles                      :        100
 periodic dipole correction                     : NONE

 ************************** Density Mixing Parameters **************************
  
 density-mixing scheme                          : Broyden
 max. length of mixing history                  :         20
 charge density mixing amplitude                : 0.8000    
 cut-off energy for mixing                      :  1200.       eV

 *********************** Population Analysis Parameters ************************
  
 Population analysis with cutoff                :  3.000       A
 Population analysis output                     : summary and pdos components

 ********************** Geometry Optimization Parameters ***********************
  
 optimization method                            : LBFGS
 max. no. of LBFGS updates                      : unbounded
 variable cell method                           : fixed basis quality
 max. number of steps                           :         60
 estimated bulk modulus                         :  500.0       GPa
 estimated <frequency>                          :  1668.       cm-1
 geom line minimiser                            : on
 with line minimiser tolerance                  :     0.4000
 total energy convergence tolerance             : 0.1000E-08   eV/atom
        max ionic |force| tolerance             : 0.1000E-04   eV/A
 max ionic |displacement| tolerance             : 0.1000E-04   A
   max |stress component| tolerance             : 0.1000E-04   GPa
 convergence tolerance window                   :          2   steps
 backup results every                           :      14400   seconds
 write geom trajectory file                     : on

 *******************************************************************************
  

                           -------------------------------
                                      Unit Cell
                           -------------------------------
        Real Lattice(A)                      Reciprocal Lattice(1/A)
     2.9127812     0.0000000     0.0000000        2.157108597  -0.000000000   0.000000000
     0.0000000     1.7684805     0.0000000       -0.000000000   3.552872188   0.000000000
     0.0000000     0.0000000     5.4924815        0.000000000   0.000000000   1.143961128

                       Lattice parameters(A)       Cell Angles
                    a =      2.912781          alpha =   90.000000
                    b =      1.768481          beta  =   90.000000
                    c =      5.492481          gamma =   90.000000

                       Current cell volume =            28.292853       A**3
                                   density =             0.570004   AMU/A**3
                                           =             0.946514     g/cm^3

                           -------------------------------
                                     Cell Contents
                           -------------------------------
                         Total number of ions in cell =   16
                      Total number of species in cell =    1
                        Max number of any one species =   16

            xxxxxxxxxxxxxxxxxxxxxxxxxxxxxxxxxxxxxxxxxxxxxxxxxxxxxxxxxxxx
            x  Element    Atom        Fractional coordinates of atoms  x
            x            Number           u          v          w      x
            x----------------------------------------------------------x
            x  H            1         0.406997   0.362543   0.000000   x 
            x  H            2        -0.406997   0.362543   0.500000   x 
            x  H            3         0.406997  -0.362543   0.500000   x 
            x  H            4        -0.406997  -0.362543   0.000000   x 
            x  H            5         0.351110   0.000000   0.250000   x 
            x  H            6        -0.351110  -0.000000   0.750000   x 
            x  H            7         0.351110  -0.000000   0.750000   x 
            x  H            8        -0.351110   0.000000   0.250000   x 
            x  H            9         0.906997   0.862543   0.500000   x 
            x  H           10        -0.906997   0.862543   0.000000   x 
            x  H           11         0.906997  -0.862543   0.000000   x 
            x  H           12        -0.906997  -0.862543   0.500000   x 
            x  H           13         0.851110   0.500000   0.750000   x 
            x  H           14        -0.851110   0.500000   0.250000   x 
            x  H           15         0.851110   0.500000   0.250000   x 
            x  H           16        -0.851110   0.500000   0.750000   x 
            xxxxxxxxxxxxxxxxxxxxxxxxxxxxxxxxxxxxxxxxxxxxxxxxxxxxxxxxxxxx


                         No user defined ionic velocities

                           -------------------------------
                                   Details of Species
                           -------------------------------

                               Mass of species in AMU
                                    H    1.0079400

                          Electric Quadrupole Moment (Barn)
                                    H    0.0028600 Isotope  2

                          Files used for pseudopotentials:
                                    H 0|0.7|2|6|8|10L(qc=10)

                           -------------------------------
                              k-Points For BZ Sampling
                           -------------------------------
                       MP grid size for SCF calculation is  8  8  8
                            with an offset of   0.000  0.000  0.000
                       Number of kpoints used =            64

                           -------------------------------
                               Symmetry and Constraints
                           -------------------------------

                      Cell is a supercell containing 2 primitive cells
                      Maximum deviation from symmetry = 0.323384E-15     ANG

                      Number of symmetry operations   =          16
                      Number of ionic constraints     =           3
                      Point group of crystal =     8: D2h, mmm, 2/m 2/m 2/m
                      Space group of crystal =    72: Ibam, -I 2 2c

             Set iprint > 1 for details on symmetry rotations/translations

                         Centre of mass is constrained
             Set iprint > 1 for details of linear ionic constraints

                         Number of cell constraints= 3
                         Cell constraints are:  1 2 3 0 0 0

                         External pressure/stress (GPa)
                        166.00000   0.00000   0.00000
                                  166.00000   0.00000
                                            166.00000
  
+---------------- MEMORY AND SCRATCH DISK ESTIMATES PER PROCESS --------------+
|                                                     Memory          Disk    |
| Baseline code, static data and system overhead      415.0 MB         0.0 MB |
| BLAS internal memory storage                          0.0 MB         0.0 MB |
| Model and support data                               34.7 MB         0.0 MB |
| Electronic energy minimisation requirements          13.4 MB         0.0 MB |
| Force calculation requirements                        5.3 MB         0.0 MB |
| Stress calculation requirements                       6.7 MB         0.0 MB |
|                                               ----------------------------- |
| Approx. total storage required per process          463.1 MB         0.0 MB |
|                                                                             |
| Requirements will fluctuate during execution and may exceed these estimates |
+-----------------------------------------------------------------------------+
Calculating finite basis set correction with  3 cut-off energies.
Calculating total energy with cut-off of 1190.000 eV.
------------------------------------------------------------------------ <-- SCF
SCF loop      Energy                           Energy gain       Timer   <-- SCF
                                               per atom          (sec)   <-- SCF
------------------------------------------------------------------------ <-- SCF
Initial   3.70283106E+002                                          3.11  <-- SCF
      1  -1.97331912E+002                    3.54759387E+001       3.62  <-- SCF
      2  -2.34068695E+002                    2.29604890E+000       3.98  <-- SCF
      3  -2.34446798E+002                    2.36314639E-002       4.66  <-- SCF
      4  -2.34437558E+002                   -5.77485159E-004       5.31  <-- SCF
      5  -2.34437729E+002                    1.06413927E-005       5.96  <-- SCF
      6  -2.34437757E+002                    1.78499971E-006       6.64  <-- SCF
      7  -2.34437758E+002                    5.48683633E-008       7.29  <-- SCF
      8  -2.34437758E+002                    7.24041895E-010       8.00  <-- SCF
      9  -2.34437758E+002                    2.01505418E-011       8.52  <-- SCF
     10  -2.34437758E+002                    6.37445924E-013       9.02  <-- SCF
     11  -2.34437758E+002                    1.11779617E-013       9.52  <-- SCF
------------------------------------------------------------------------ <-- SCF
 
Final energy =  -234.4377581143     eV
(energy not corrected for finite basis set)
 
Calculating total energy with cut-off of 1195.000 eV.
------------------------------------------------------------------------ <-- SCF
SCF loop      Energy                           Energy gain       Timer   <-- SCF
                                               per atom          (sec)   <-- SCF
------------------------------------------------------------------------ <-- SCF
Initial  -2.34437758E+002                                          9.98  <-- SCF
      1  -2.34438998E+002                    7.74733757E-005      10.39  <-- SCF
      2  -2.34438998E+002                    1.42667044E-010      11.04  <-- SCF
      3  -2.34438998E+002                    2.74221200E-008      11.69  <-- SCF
      4  -2.34438998E+002                    1.26748116E-009      12.34  <-- SCF
      5  -2.34438998E+002                    5.71284475E-012      12.84  <-- SCF
      6  -2.34438998E+002                    1.05737476E-013      13.35  <-- SCF
------------------------------------------------------------------------ <-- SCF
 
Final energy =  -234.4389981497     eV
(energy not corrected for finite basis set)
 
Calculating total energy with cut-off of 1200.000 eV.
------------------------------------------------------------------------ <-- SCF
SCF loop      Energy                           Energy gain       Timer   <-- SCF
                                               per atom          (sec)   <-- SCF
------------------------------------------------------------------------ <-- SCF
Initial  -2.34438998E+002                                         13.81  <-- SCF
      1  -2.34440214E+002                    7.60109796E-005      14.21  <-- SCF
      2  -2.34440214E+002                    1.40721475E-010      14.85  <-- SCF
      3  -2.34440215E+002                    2.63268097E-008      15.50  <-- SCF
      4  -2.34440215E+002                    1.20133482E-009      16.14  <-- SCF
      5  -2.34440215E+002                    5.04518812E-012      16.65  <-- SCF
      6  -2.34440215E+002                    4.10865619E-013      17.16  <-- SCF
------------------------------------------------------------------------ <-- SCF
 
Final energy =  -234.4402147682     eV
(energy not corrected for finite basis set)
 
 For future reference: finite basis dEtot/dlog(Ecut) =      -0.290023eV
 Total energy corrected for finite basis set =    -234.440195 eV
 
+---------------- MEMORY AND SCRATCH DISK ESTIMATES PER PROCESS --------------+
|                                                     Memory          Disk    |
| Model and support data                               43.6 MB         0.0 MB |
| Electronic energy minimisation requirements          13.4 MB         0.0 MB |
| Geometry minimisation requirements                   15.6 MB         0.0 MB |
|                                               ----------------------------- |
| Approx. total storage required per process           72.6 MB         0.0 MB |
|                                                                             |
| Requirements will fluctuate during execution and may exceed these estimates |
+-----------------------------------------------------------------------------+
 

 ******************************** Symmetrised Forces ********************************
 *                                                                                  *
 *                           Cartesian components (eV/A)                            *
 * -------------------------------------------------------------------------------- *
 *                         x                    y                    z              *
 *                                                                                  *
 * H               1      0.00000              0.00000             -0.00000         *
 * H               2     -0.00000              0.00000             -0.00000         *
 * H               3      0.00000             -0.00000             -0.00000         *
 * H               4     -0.00000             -0.00000             -0.00000         *
 * H               5     -0.00000              0.00000              0.00000         *
 * H               6      0.00000              0.00000             -0.00000         *
 * H               7     -0.00000              0.00000              0.00000         *
 * H               8      0.00000              0.00000              0.00000         *
 * H               9      0.00000              0.00000             -0.00000         *
 * H              10     -0.00000              0.00000             -0.00000         *
 * H              11      0.00000             -0.00000             -0.00000         *
 * H              12     -0.00000             -0.00000             -0.00000         *
 * H              13     -0.00000              0.00000             -0.00000         *
 * H              14      0.00000              0.00000              0.00000         *
 * H              15     -0.00000              0.00000              0.00000         *
 * H              16      0.00000              0.00000             -0.00000         *
 *                                                                                  *
 ************************************************************************************

 *********** Symmetrised Stress Tensor ***********
 *                                               *
 *          Cartesian components (GPa)           *
 * --------------------------------------------- *
 *             x             y             z     *
 *                                               *
 *  x   -182.993140     -0.000000      0.000000  *
 *  y     -0.000000   -182.993141      0.000000  *
 *  z      0.000000      0.000000   -182.993137  *
 *                                               *
 *  Pressure:  182.9931                          *
 *                                               *
 *************************************************
 LBFGS: finished iteration     0 with enthalpy= -2.05126238E+002 eV
  
 +-----------+-----------------+-----------------+------------+-----+ <-- LBFGS
 | Parameter |      value      |    tolerance    |    units   | OK? | <-- LBFGS
 +-----------+-----------------+-----------------+------------+-----+ <-- LBFGS
 |  dE/ion   |   0.000000E+000 |   1.000000E-009 |         eV | No  | <-- LBFGS
 |  |F|max   |   1.390194E-007 |   1.000000E-005 |       eV/A | Yes | <-- LBFGS
 |  |dR|max  |   0.000000E+000 |   1.000000E-005 |          A | No  | <-- LBFGS
 |   Smax    |   1.699314E+001 |   1.000000E-005 |        GPa | No  | <-- LBFGS
 +-----------+-----------------+-----------------+------------+-----+ <-- LBFGS
  

================================================================================
 Starting LBFGS iteration          1 ...
================================================================================
  
 +------------+-------------+-------------+-----------------+ <-- min LBFGS
 |    Step    |   lambda    |   F.delta'  |    enthalpy     | <-- min LBFGS
 +------------+-------------+-------------+-----------------+ <-- min LBFGS
 |  previous  |    0.000000 |    0.191007 |     -205.126238 | <-- min LBFGS
 +------------+-------------+-------------+-----------------+ <-- min LBFGS
  

--------------------------------------------------------------------------------
 LBFGS: starting iteration         1 with trial guess (lambda=  1.000000)
--------------------------------------------------------------------------------
 
+---------------- MEMORY AND SCRATCH DISK ESTIMATES PER PROCESS --------------+
|                                                     Memory          Disk    |
| Model and support data                               45.1 MB         0.0 MB |
| Electronic energy minimisation requirements          14.5 MB         0.0 MB |
| Geometry minimisation requirements                   16.9 MB         0.0 MB |
|                                               ----------------------------- |
| Approx. total storage required per process           76.5 MB         0.0 MB |
|                                                                             |
| Requirements will fluctuate during execution and may exceed these estimates |
+-----------------------------------------------------------------------------+
 

                           -------------------------------
                                      Unit Cell
                           -------------------------------
        Real Lattice(A)              Reciprocal Lattice(1/A)
     2.9457794     0.0000000     0.0000000        2.132944975  -0.000000000   0.000000000
     0.0000000     1.7885152     0.0000000       -0.000000000   3.513073420   0.000000000
     0.0000000     0.0000000     5.5547045        0.000000000   0.000000000   1.131146641

                       Lattice parameters(A)       Cell Angles
                    a =      2.945779          alpha =   90.000000
                    b =      1.788515          beta  =   90.000000
                    c =      5.554704          gamma =   90.000000

                Current cell volume =            29.265356 A**3

                           -------------------------------
                                     Cell Contents
                           -------------------------------

            xxxxxxxxxxxxxxxxxxxxxxxxxxxxxxxxxxxxxxxxxxxxxxxxxxxxxxxxxxxxxxxxx
            x  Element         Atom        Fractional coordinates of atoms  x
            x                 Number           u          v          w      x
            x---------------------------------------------------------------x
            x  H                 1         0.406997   0.362543   0.000000   x
            x  H                 2        -0.406997   0.362543   0.500000   x
            x  H                 3         0.406997  -0.362543   0.500000   x
            x  H                 4        -0.406997  -0.362543   0.000000   x
            x  H                 5         0.351110   0.000000   0.250000   x
            x  H                 6        -0.351110   0.000000   0.750000   x
            x  H                 7         0.351110   0.000000   0.750000   x
            x  H                 8        -0.351110   0.000000   0.250000   x
            x  H                 9         0.906997   0.862543   0.500000   x
            x  H                10        -0.906997   0.862543   0.000000   x
            x  H                11         0.906997  -0.862543   0.000000   x
            x  H                12        -0.906997  -0.862543   0.500000   x
            x  H                13         0.851110   0.500000   0.750000   x
            x  H                14        -0.851110   0.500000   0.250000   x
            x  H                15         0.851110   0.500000   0.250000   x
            x  H                16        -0.851110   0.500000   0.750000   x
            xxxxxxxxxxxxxxxxxxxxxxxxxxxxxxxxxxxxxxxxxxxxxxxxxxxxxxxxxxxxxxxxx


------------------------------------------------------------------------ <-- SCF
SCF loop      Energy                           Energy gain       Timer   <-- SCF
                                               per atom          (sec)   <-- SCF
------------------------------------------------------------------------ <-- SCF
Initial  -2.35477631E+002                                         19.01  <-- SCF
      1  -2.35497150E+002                    1.21994878E-003      19.49  <-- SCF
      2  -2.35497215E+002                    4.07805488E-006      20.29  <-- SCF
      3  -2.35497132E+002                   -5.20407812E-006      21.06  <-- SCF
      4  -2.35497134E+002                    1.58185568E-007      21.84  <-- SCF
      5  -2.35497134E+002                    1.17409956E-008      22.61  <-- SCF
      6  -2.35497134E+002                    1.12986535E-009      23.38  <-- SCF
      7  -2.35497134E+002                    7.93635281E-012      23.98  <-- SCF
      8  -2.35497134E+002                   -3.14191356E-013      24.58  <-- SCF
------------------------------------------------------------------------ <-- SCF
 
Final energy =  -235.4971344250     eV
(energy not corrected for finite basis set)
 

 ******************************** Symmetrised Forces ********************************
 *                                                                                  *
 *                           Cartesian components (eV/A)                            *
 * -------------------------------------------------------------------------------- *
 *                         x                    y                    z              *
 *                                                                                  *
 * H               1      0.15899              0.14638              0.00000         *
 * H               2     -0.15899              0.14638              0.00000         *
 * H               3      0.15899             -0.14638              0.00000         *
 * H               4     -0.15899             -0.14638              0.00000         *
 * H               5      0.07949              0.00000              0.00000         *
 * H               6     -0.07949              0.00000              0.00000         *
 * H               7      0.07949              0.00000             -0.00000         *
 * H               8     -0.07949             -0.00000              0.00000         *
 * H               9      0.15899              0.14638              0.00000         *
 * H              10     -0.15899              0.14638              0.00000         *
 * H              11      0.15899             -0.14638              0.00000         *
 * H              12     -0.15899             -0.14638              0.00000         *
 * H              13      0.07949              0.00000             -0.00000         *
 * H              14     -0.07949             -0.00000             -0.00000         *
 * H              15      0.07949             -0.00000             -0.00000         *
 * H              16     -0.07949             -0.00000              0.00000         *
 *                                                                                  *
 ************************************************************************************

 *********** Symmetrised Stress Tensor ***********
 *                                               *
 *          Cartesian components (GPa)           *
 * --------------------------------------------- *
 *             x             y             z     *
 *                                               *
 *  x   -162.974467     -0.000000      0.000000  *
 *  y     -0.000000   -165.196377      0.000000  *
 *  z      0.000000      0.000000   -168.799388  *
 *                                               *
 *  Pressure:  165.6567                          *
 *                                               *
 *************************************************
  
 +------------+-------------+-------------+-----------------+ <-- min LBFGS
 |    Step    |   lambda    |   F.delta'  |    enthalpy     | <-- min LBFGS
 +------------+-------------+-------------+-----------------+ <-- min LBFGS
 |  previous  |    0.000000 |    0.191007 |     -205.126238 | <-- min LBFGS
 | trial step |    1.000000 |   -0.003946 |     -205.175603 | <-- min LBFGS
 +------------+-------------+-------------+-----------------+ <-- min LBFGS
  
 LBFGS: finished iteration     1 with enthalpy= -2.05175603E+002 eV
  
 +-----------+-----------------+-----------------+------------+-----+ <-- LBFGS
 | Parameter |      value      |    tolerance    |    units   | OK? | <-- LBFGS
 +-----------+-----------------+-----------------+------------+-----+ <-- LBFGS
 |  dE/ion   |   3.085295E-003 |   1.000000E-009 |         eV | No  | <-- LBFGS
 |  |F|max   |   2.161114E-001 |   1.000000E-005 |       eV/A | No  | <-- LBFGS
 |  |dR|max  |   1.363624E-008 |   1.000000E-005 |          A | Yes | <-- LBFGS
 |   Smax    |   3.025533E+000 |   1.000000E-005 |        GPa | No  | <-- LBFGS
 +-----------+-----------------+-----------------+------------+-----+ <-- LBFGS
  

================================================================================
 Starting LBFGS iteration          2 ...
================================================================================
  
 +------------+-------------+-------------+-----------------+ <-- min LBFGS
 |    Step    |   lambda    |   F.delta'  |    enthalpy     | <-- min LBFGS
 +------------+-------------+-------------+-----------------+ <-- min LBFGS
 |  previous  |    0.000000 |    0.053562 |     -205.175603 | <-- min LBFGS
 +------------+-------------+-------------+-----------------+ <-- min LBFGS
  

--------------------------------------------------------------------------------
 LBFGS: starting iteration         2 with trial guess (lambda=  1.000000)
--------------------------------------------------------------------------------
 
+---------------- MEMORY AND SCRATCH DISK ESTIMATES PER PROCESS --------------+
|                                                     Memory          Disk    |
| Model and support data                               45.1 MB         0.0 MB |
| Electronic energy minimisation requirements          14.7 MB         0.0 MB |
| Geometry minimisation requirements                   17.1 MB         0.0 MB |
|                                               ----------------------------- |
| Approx. total storage required per process           76.9 MB         0.0 MB |
|                                                                             |
| Requirements will fluctuate during execution and may exceed these estimates |
+-----------------------------------------------------------------------------+
 

                           -------------------------------
                                      Unit Cell
                           -------------------------------
        Real Lattice(A)              Reciprocal Lattice(1/A)
     2.9536223     0.0000000     0.0000000        2.127281259  -0.000000000   0.000000000
     0.0000000     1.7959021     0.0000000       -0.000000000   3.498623576   0.000000000
     0.0000000     0.0000000     5.5908667        0.000000000   0.000000000   1.123830284

                       Lattice parameters(A)       Cell Angles
                    a =      2.953622          alpha =   90.000000
                    b =      1.795902          beta  =   90.000000
                    c =      5.590867          gamma =   90.000000

                Current cell volume =            29.656285 A**3

                           -------------------------------
                                     Cell Contents
                           -------------------------------

            xxxxxxxxxxxxxxxxxxxxxxxxxxxxxxxxxxxxxxxxxxxxxxxxxxxxxxxxxxxxxxxxx
            x  Element         Atom        Fractional coordinates of atoms  x
            x                 Number           u          v          w      x
            x---------------------------------------------------------------x
            x  H                 1         0.412242   0.370498   0.000000   x
            x  H                 2        -0.412242   0.370498   0.500000   x
            x  H                 3         0.412242  -0.370498   0.500000   x
            x  H                 4        -0.412242  -0.370498   0.000000   x
            x  H                 5         0.353732   0.000000   0.250000   x
            x  H                 6        -0.353732   0.000000   0.750000   x
            x  H                 7         0.353732  -0.000000   0.750000   x
            x  H                 8        -0.353732  -0.000000   0.250000   x
            x  H                 9         0.912242   0.870498   0.500000   x
            x  H                10        -0.912242   0.870498   0.000000   x
            x  H                11         0.912242  -0.870498   0.000000   x
            x  H                12        -0.912242  -0.870498   0.500000   x
            x  H                13         0.853732   0.500000   0.750000   x
            x  H                14        -0.853732   0.500000   0.250000   x
            x  H                15         0.853732   0.500000   0.250000   x
            x  H                16        -0.853732   0.500000   0.750000   x
            xxxxxxxxxxxxxxxxxxxxxxxxxxxxxxxxxxxxxxxxxxxxxxxxxxxxxxxxxxxxxxxxx


------------------------------------------------------------------------ <-- SCF
SCF loop      Energy                           Energy gain       Timer   <-- SCF
                                               per atom          (sec)   <-- SCF
------------------------------------------------------------------------ <-- SCF
Initial  -2.35445096E+002                                         26.77  <-- SCF
      1  -2.35854618E+002                    2.55951524E-002      27.26  <-- SCF
      2  -2.35856652E+002                    1.27120930E-004      28.04  <-- SCF
      3  -2.35832017E+002                   -1.53968031E-003      28.83  <-- SCF
      4  -2.35831231E+002                   -4.91410044E-005      29.62  <-- SCF
      5  -2.35831226E+002                   -2.95642275E-007      30.41  <-- SCF
      6  -2.35831226E+002                    2.91536951E-009      31.20  <-- SCF
      7  -2.35831226E+002                    3.16744161E-010      31.91  <-- SCF
      8  -2.35831226E+002                    2.85702659E-011      32.52  <-- SCF
      9  -2.35831226E+002                    1.24166007E-012      33.12  <-- SCF
     10  -2.35831226E+002                   -9.60700492E-013      33.79  <-- SCF
------------------------------------------------------------------------ <-- SCF
 
Final energy =  -235.8312261423     eV
(energy not corrected for finite basis set)
 

 ******************************** Symmetrised Forces ********************************
 *                                                                                  *
 *                           Cartesian components (eV/A)                            *
 * -------------------------------------------------------------------------------- *
 *                         x                    y                    z              *
 *                                                                                  *
 * H               1     -0.87010             -0.79830             -0.00000         *
 * H               2      0.87010             -0.79830             -0.00000         *
 * H               3     -0.87010              0.79830             -0.00000         *
 * H               4      0.87010              0.79830             -0.00000         *
 * H               5      0.04443              0.00000              0.00000         *
 * H               6     -0.04443              0.00000             -0.00000         *
 * H               7      0.04443              0.00000              0.00000         *
 * H               8     -0.04443              0.00000             -0.00000         *
 * H               9     -0.87010             -0.79830             -0.00000         *
 * H              10      0.87010             -0.79830             -0.00000         *
 * H              11     -0.87010              0.79830             -0.00000         *
 * H              12      0.87010              0.79830             -0.00000         *
 * H              13      0.04443              0.00000              0.00000         *
 * H              14     -0.04443              0.00000              0.00000         *
 * H              15      0.04443              0.00000             -0.00000         *
 * H              16     -0.04443              0.00000              0.00000         *
 *                                                                                  *
 ************************************************************************************

 *********** Symmetrised Stress Tensor ***********
 *                                               *
 *          Cartesian components (GPa)           *
 * --------------------------------------------- *
 *             x             y             z     *
 *                                               *
 *  x   -169.958672     -0.000000      0.000000  *
 *  y     -0.000000   -168.635242      0.000000  *
 *  z      0.000000      0.000000   -161.747775  *
 *                                               *
 *  Pressure:  166.7806                          *
 *                                               *
 *************************************************
  
 +------------+-------------+-------------+-----------------+ <-- min LBFGS
 |    Step    |   lambda    |   F.delta'  |    enthalpy     | <-- min LBFGS
 +------------+-------------+-------------+-----------------+ <-- min LBFGS
 |  previous  |    0.000000 |    0.053562 |     -205.175603 | <-- min LBFGS
 | trial step |    1.000000 |   -0.248990 |     -205.104650 | <-- min LBFGS
 +------------+-------------+-------------+-----------------+ <-- min LBFGS
  

--------------------------------------------------------------------------------
 LBFGS: improving iteration         2 with line minimization (lambda=  0.177034)
--------------------------------------------------------------------------------

                           -------------------------------
                                      Unit Cell
                           -------------------------------
        Real Lattice(A)              Reciprocal Lattice(1/A)
     2.9471678     0.0000000     0.0000000        2.131940108  -0.000000000   0.000000000
     0.0000000     1.7898230     0.0000000       -0.000000000   3.510506615   0.000000000
     0.0000000     0.0000000     5.5611064        0.000000000   0.000000000   1.129844465

                       Lattice parameters(A)       Cell Angles
                    a =      2.947168          alpha =   90.000000
                    b =      1.789823          beta  =   90.000000
                    c =      5.561106          gamma =   90.000000

                Current cell volume =            29.334328 A**3

                           -------------------------------
                                     Cell Contents
                           -------------------------------

            xxxxxxxxxxxxxxxxxxxxxxxxxxxxxxxxxxxxxxxxxxxxxxxxxxxxxxxxxxxxxxxxx
            x  Element         Atom        Fractional coordinates of atoms  x
            x                 Number           u          v          w      x
            x---------------------------------------------------------------x
            x  H                 1         0.407926   0.363952   0.000000   x
            x  H                 2        -0.407926   0.363952   0.500000   x
            x  H                 3         0.407926  -0.363952   0.500000   x
            x  H                 4        -0.407926  -0.363952   0.000000   x
            x  H                 5         0.351574   0.000000   0.250000   x
            x  H                 6        -0.351574   0.000000   0.750000   x
            x  H                 7         0.351574  -0.000000   0.750000   x
            x  H                 8        -0.351574  -0.000000   0.250000   x
            x  H                 9         0.907926   0.863952   0.500000   x
            x  H                10        -0.907926   0.863952   0.000000   x
            x  H                11         0.907926  -0.863952   0.000000   x
            x  H                12        -0.907926  -0.863952   0.500000   x
            x  H                13         0.851574   0.500000   0.750000   x
            x  H                14        -0.851574   0.500000   0.250000   x
            x  H                15         0.851574   0.500000   0.250000   x
            x  H                16        -0.851574   0.500000   0.750000   x
            xxxxxxxxxxxxxxxxxxxxxxxxxxxxxxxxxxxxxxxxxxxxxxxxxxxxxxxxxxxxxxxxx


------------------------------------------------------------------------ <-- SCF
SCF loop      Energy                           Energy gain       Timer   <-- SCF
                                               per atom          (sec)   <-- SCF
------------------------------------------------------------------------ <-- SCF
Initial  -2.35306468E+002                                         35.79  <-- SCF
      1  -2.35589139E+002                    1.76669706E-002      36.29  <-- SCF
      2  -2.35590693E+002                    9.71054179E-005      37.06  <-- SCF
      3  -2.35573402E+002                   -1.08070075E-003      37.85  <-- SCF
      4  -2.35572866E+002                   -3.34677599E-005      38.64  <-- SCF
      5  -2.35572864E+002                   -1.55717227E-007      39.42  <-- SCF
      6  -2.35572864E+002                    1.79169433E-009      40.22  <-- SCF
      7  -2.35572864E+002                    2.24290333E-010      40.90  <-- SCF
      8  -2.35572864E+002                    1.16613330E-011      41.50  <-- SCF
      9  -2.35572864E+002                   -5.19624165E-013      42.10  <-- SCF
     10  -2.35572864E+002                    7.61309824E-013      42.70  <-- SCF
------------------------------------------------------------------------ <-- SCF
 
Final energy =  -235.5728636448     eV
(energy not corrected for finite basis set)
 

 ******************************** Symmetrised Forces ********************************
 *                                                                                  *
 *                           Cartesian components (eV/A)                            *
 * -------------------------------------------------------------------------------- *
 *                         x                    y                    z              *
 *                                                                                  *
 * H               1      0.00257              0.00167              0.00000         *
 * H               2     -0.00257              0.00167              0.00000         *
 * H               3      0.00257             -0.00167              0.00000         *
 * H               4     -0.00257             -0.00167              0.00000         *
 * H               5      0.07332              0.00000             -0.00000         *
 * H               6     -0.07332              0.00000              0.00000         *
 * H               7      0.07332              0.00000             -0.00000         *
 * H               8     -0.07332             -0.00000             -0.00000         *
 * H               9      0.00257              0.00167              0.00000         *
 * H              10     -0.00257              0.00167              0.00000         *
 * H              11      0.00257             -0.00167              0.00000         *
 * H              12     -0.00257             -0.00167              0.00000         *
 * H              13      0.07332              0.00000              0.00000         *
 * H              14     -0.07332             -0.00000              0.00000         *
 * H              15      0.07332             -0.00000             -0.00000         *
 * H              16     -0.07332              0.00000              0.00000         *
 *                                                                                  *
 ************************************************************************************

 *********** Symmetrised Stress Tensor ***********
 *                                               *
 *          Cartesian components (GPa)           *
 * --------------------------------------------- *
 *             x             y             z     *
 *                                               *
 *  x   -164.054917      0.000000      0.000000  *
 *  y      0.000000   -165.655048      0.000000  *
 *  z      0.000000      0.000000   -167.540037  *
 *                                               *
 *  Pressure:  165.7500                          *
 *                                               *
 *************************************************
  
 +------------+-------------+-------------+-----------------+ <-- min LBFGS
 |    Step    |   lambda    |   F.delta'  |    enthalpy     | <-- min LBFGS
 +------------+-------------+-------------+-----------------+ <-- min LBFGS
 |  previous  |    0.000000 |    0.053562 |     -205.175603 | <-- min LBFGS
 | trial step |    1.000000 |   -0.248990 |     -205.104650 | <-- min LBFGS
 |  line step |    0.177034 |    0.007146 |     -205.179855 | <-- min LBFGS
 +------------+-------------+-------------+-----------------+ <-- min LBFGS
  
 LBFGS: finished iteration     2 with enthalpy= -2.05179855E+002 eV
  
 +-----------+-----------------+-----------------+------------+-----+ <-- LBFGS
 | Parameter |      value      |    tolerance    |    units   | OK? | <-- LBFGS
 +-----------+-----------------+-----------------+------------+-----+ <-- LBFGS
 |  dE/ion   |   2.657743E-004 |   1.000000E-009 |         eV | No  | <-- LBFGS
 |  |F|max   |   7.331726E-002 |   1.000000E-005 |       eV/A | No  | <-- LBFGS
 |  |dR|max  |   3.720677E-003 |   1.000000E-005 |          A | No  | <-- LBFGS
 |   Smax    |   1.945083E+000 |   1.000000E-005 |        GPa | No  | <-- LBFGS
 +-----------+-----------------+-----------------+------------+-----+ <-- LBFGS
  

================================================================================
 Starting LBFGS iteration          3 ...
================================================================================
  
 +------------+-------------+-------------+-----------------+ <-- min LBFGS
 |    Step    |   lambda    |   F.delta'  |    enthalpy     | <-- min LBFGS
 +------------+-------------+-------------+-----------------+ <-- min LBFGS
 |  previous  |    0.000000 |    0.025170 |     -205.179855 | <-- min LBFGS
 +------------+-------------+-------------+-----------------+ <-- min LBFGS
  

--------------------------------------------------------------------------------
 LBFGS: starting iteration         3 with trial guess (lambda=  1.000000)
--------------------------------------------------------------------------------

                           -------------------------------
                                      Unit Cell
                           -------------------------------
        Real Lattice(A)              Reciprocal Lattice(1/A)
     2.9449267     0.0000000     0.0000000        2.133562523  -0.000000000   0.000000000
     0.0000000     1.7906536     0.0000000       -0.000000000   3.508878189   0.000000000
     0.0000000     0.0000000     5.5716435        0.000000000   0.000000000   1.127707704

                       Lattice parameters(A)       Cell Angles
                    a =      2.944927          alpha =   90.000000
                    b =      1.790654          beta  =   90.000000
                    c =      5.571644          gamma =   90.000000

                Current cell volume =            29.381191 A**3

                           -------------------------------
                                     Cell Contents
                           -------------------------------

            xxxxxxxxxxxxxxxxxxxxxxxxxxxxxxxxxxxxxxxxxxxxxxxxxxxxxxxxxxxxxxxxx
            x  Element         Atom        Fractional coordinates of atoms  x
            x                 Number           u          v          w      x
            x---------------------------------------------------------------x
            x  H                 1         0.407946   0.363939   0.000000   x
            x  H                 2        -0.407946   0.363939   0.500000   x
            x  H                 3         0.407946  -0.363939   0.500000   x
            x  H                 4        -0.407946  -0.363939   0.000000   x
            x  H                 5         0.354385  -0.000000   0.250000   x
            x  H                 6        -0.354385   0.000000   0.750000   x
            x  H                 7         0.354385  -0.000000   0.750000   x
            x  H                 8        -0.354385  -0.000000   0.250000   x
            x  H                 9         0.907946   0.863939   0.500000   x
            x  H                10        -0.907946   0.863939   0.000000   x
            x  H                11         0.907946  -0.863939   0.000000   x
            x  H                12        -0.907946  -0.863939   0.500000   x
            x  H                13         0.854385   0.500000   0.750000   x
            x  H                14        -0.854385   0.500000   0.250000   x
            x  H                15         0.854385   0.500000   0.250000   x
            x  H                16        -0.854385   0.500000   0.750000   x
            xxxxxxxxxxxxxxxxxxxxxxxxxxxxxxxxxxxxxxxxxxxxxxxxxxxxxxxxxxxxxxxxx


------------------------------------------------------------------------ <-- SCF
SCF loop      Energy                           Energy gain       Timer   <-- SCF
                                               per atom          (sec)   <-- SCF
------------------------------------------------------------------------ <-- SCF
Initial  -2.35573698E+002                                         44.72  <-- SCF
      1  -2.35626839E+002                    3.32131756E-003      45.21  <-- SCF
      2  -2.35627079E+002                    1.49988549E-005      45.98  <-- SCF
      3  -2.35624744E+002                   -1.45952743E-004      46.91  <-- SCF
      4  -2.35624627E+002                   -7.28811872E-006      47.70  <-- SCF
      5  -2.35624627E+002                    4.12398813E-009      48.48  <-- SCF
      6  -2.35624627E+002                    1.10171803E-009      49.27  <-- SCF
      7  -2.35624627E+002                    1.26733917E-011      49.88  <-- SCF
      8  -2.35624627E+002                    1.58304106E-012      50.48  <-- SCF
      9  -2.35624627E+002                    1.45011395E-013      51.07  <-- SCF
------------------------------------------------------------------------ <-- SCF
 
Final energy =  -235.6246274704     eV
(energy not corrected for finite basis set)
 

 ******************************** Symmetrised Forces ********************************
 *                                                                                  *
 *                           Cartesian components (eV/A)                            *
 * -------------------------------------------------------------------------------- *
 *                         x                    y                    z              *
 *                                                                                  *
 * H               1     -0.01152              0.00064             -0.00000         *
 * H               2      0.01152              0.00064             -0.00000         *
 * H               3     -0.01152             -0.00064             -0.00000         *
 * H               4      0.01152             -0.00064             -0.00000         *
 * H               5      0.00598             -0.00000              0.00000         *
 * H               6     -0.00598              0.00000             -0.00000         *
 * H               7      0.00598             -0.00000              0.00000         *
 * H               8     -0.00598              0.00000              0.00000         *
 * H               9     -0.01152              0.00064             -0.00000         *
 * H              10      0.01152              0.00064             -0.00000         *
 * H              11     -0.01152             -0.00064             -0.00000         *
 * H              12      0.01152             -0.00064             -0.00000         *
 * H              13      0.00598             -0.00000              0.00000         *
 * H              14     -0.00598             -0.00000             -0.00000         *
 * H              15      0.00598             -0.00000              0.00000         *
 * H              16     -0.00598              0.00000             -0.00000         *
 *                                                                                  *
 ************************************************************************************

 *********** Symmetrised Stress Tensor ***********
 *                                               *
 *          Cartesian components (GPa)           *
 * --------------------------------------------- *
 *             x             y             z     *
 *                                               *
 *  x   -165.592610     -0.000000      0.000000  *
 *  y     -0.000000   -166.494778      0.000000  *
 *  z      0.000000      0.000000   -166.324064  *
 *                                               *
 *  Pressure:  166.1372                          *
 *                                               *
 *************************************************
  
 +------------+-------------+-------------+-----------------+ <-- min LBFGS
 |    Step    |   lambda    |   F.delta'  |    enthalpy     | <-- min LBFGS
 +------------+-------------+-------------+-----------------+ <-- min LBFGS
 |  previous  |    0.000000 |    0.025170 |     -205.179855 | <-- min LBFGS
 | trial step |    1.000000 |    0.002687 |     -205.183070 | <-- min LBFGS
 +------------+-------------+-------------+-----------------+ <-- min LBFGS
  
 LBFGS: finished iteration     3 with enthalpy= -2.05183070E+002 eV
  
 +-----------+-----------------+-----------------+------------+-----+ <-- LBFGS
 | Parameter |      value      |    tolerance    |    units   | OK? | <-- LBFGS
 +-----------+-----------------+-----------------+------------+-----+ <-- LBFGS
 |  dE/ion   |   2.009211E-004 |   1.000000E-009 |         eV | No  | <-- LBFGS
 |  |F|max   |   1.153583E-002 |   1.000000E-005 |       eV/A | No  | <-- LBFGS
 |  |dR|max  |   8.277821E-003 |   1.000000E-005 |          A | No  | <-- LBFGS
 |   Smax    |   4.947777E-001 |   1.000000E-005 |        GPa | No  | <-- LBFGS
 +-----------+-----------------+-----------------+------------+-----+ <-- LBFGS
  

================================================================================
 Starting LBFGS iteration          4 ...
================================================================================
  
 +------------+-------------+-------------+-----------------+ <-- min LBFGS
 |    Step    |   lambda    |   F.delta'  |    enthalpy     | <-- min LBFGS
 +------------+-------------+-------------+-----------------+ <-- min LBFGS
 |  previous  |    0.000000 |    0.004541 |     -205.183070 | <-- min LBFGS
 +------------+-------------+-------------+-----------------+ <-- min LBFGS
  

--------------------------------------------------------------------------------
 LBFGS: starting iteration         4 with trial guess (lambda=  1.000000)
--------------------------------------------------------------------------------

                           -------------------------------
                                      Unit Cell
                           -------------------------------
        Real Lattice(A)              Reciprocal Lattice(1/A)
     2.9439971     0.0000000     0.0000000        2.134236259  -0.000000000   0.000000000
     0.0000000     1.7914339     0.0000000       -0.000000000   3.507349788   0.000000000
     0.0000000     0.0000000     5.5739247        0.000000000   0.000000000   1.127246167

                       Lattice parameters(A)       Cell Angles
                    a =      2.943997          alpha =   90.000000
                    b =      1.791434          beta  =   90.000000
                    c =      5.573925          gamma =   90.000000

                Current cell volume =            29.396746 A**3

                           -------------------------------
                                     Cell Contents
                           -------------------------------

            xxxxxxxxxxxxxxxxxxxxxxxxxxxxxxxxxxxxxxxxxxxxxxxxxxxxxxxxxxxxxxxxx
            x  Element         Atom        Fractional coordinates of atoms  x
            x                 Number           u          v          w      x
            x---------------------------------------------------------------x
            x  H                 1         0.407701   0.364264   0.000000   x
            x  H                 2        -0.407701   0.364264   0.500000   x
            x  H                 3         0.407701  -0.364264   0.500000   x
            x  H                 4        -0.407701  -0.364264   0.000000   x
            x  H                 5         0.354741  -0.000000   0.250000   x
            x  H                 6        -0.354741   0.000000   0.750000   x
            x  H                 7         0.354741   0.000000   0.750000   x
            x  H                 8        -0.354741  -0.000000   0.250000   x
            x  H                 9         0.907701   0.864264   0.500000   x
            x  H                10        -0.907701   0.864264   0.000000   x
            x  H                11         0.907701  -0.864264   0.000000   x
            x  H                12        -0.907701  -0.864264   0.500000   x
            x  H                13         0.854741   0.500000   0.750000   x
            x  H                14        -0.854741   0.500000   0.250000   x
            x  H                15         0.854741   0.500000   0.250000   x
            x  H                16        -0.854741   0.500000   0.750000   x
            xxxxxxxxxxxxxxxxxxxxxxxxxxxxxxxxxxxxxxxxxxxxxxxxxxxxxxxxxxxxxxxxx


------------------------------------------------------------------------ <-- SCF
SCF loop      Energy                           Energy gain       Timer   <-- SCF
                                               per atom          (sec)   <-- SCF
------------------------------------------------------------------------ <-- SCF
Initial  -2.35639390E+002                                         53.08  <-- SCF
      1  -2.35640878E+002                    9.30085944E-005      53.58  <-- SCF
      2  -2.35640885E+002                    4.25139351E-007      54.37  <-- SCF
      3  -2.35640850E+002                   -2.20680450E-006      55.16  <-- SCF
      4  -2.35640849E+002                   -7.47799596E-008      55.97  <-- SCF
      5  -2.35640849E+002                    1.96602220E-010      56.76  <-- SCF
      6  -2.35640849E+002                    4.24279173E-011      57.38  <-- SCF
      7  -2.35640849E+002                    1.09966975E-012      57.98  <-- SCF
      8  -2.35640849E+002                    4.41076327E-013      58.58  <-- SCF
------------------------------------------------------------------------ <-- SCF
 
Final energy =  -235.6408486353     eV
(energy not corrected for finite basis set)
 

 ******************************** Symmetrised Forces ********************************
 *                                                                                  *
 *                           Cartesian components (eV/A)                            *
 * -------------------------------------------------------------------------------- *
 *                         x                    y                    z              *
 *                                                                                  *
 * H               1     -0.00609              0.00533             -0.00000         *
 * H               2      0.00609              0.00533             -0.00000         *
 * H               3     -0.00609             -0.00533             -0.00000         *
 * H               4      0.00609             -0.00533             -0.00000         *
 * H               5     -0.00194             -0.00000              0.00000         *
 * H               6      0.00194             -0.00000              0.00000         *
 * H               7     -0.00194             -0.00000              0.00000         *
 * H               8      0.00194             -0.00000             -0.00000         *
 * H               9     -0.00609              0.00533             -0.00000         *
 * H              10      0.00609              0.00533             -0.00000         *
 * H              11     -0.00609             -0.00533             -0.00000         *
 * H              12      0.00609             -0.00533             -0.00000         *
 * H              13     -0.00194              0.00000              0.00000         *
 * H              14      0.00194             -0.00000              0.00000         *
 * H              15     -0.00194             -0.00000              0.00000         *
 * H              16      0.00194             -0.00000             -0.00000         *
 *                                                                                  *
 ************************************************************************************

 *********** Symmetrised Stress Tensor ***********
 *                                               *
 *          Cartesian components (GPa)           *
 * --------------------------------------------- *
 *             x             y             z     *
 *                                               *
 *  x   -165.820028      0.000000      0.000000  *
 *  y      0.000000   -166.266028      0.000000  *
 *  z      0.000000      0.000000   -165.990977  *
 *                                               *
 *  Pressure:  166.0257                          *
 *                                               *
 *************************************************
  
 +------------+-------------+-------------+-----------------+ <-- min LBFGS
 |    Step    |   lambda    |   F.delta'  |    enthalpy     | <-- min LBFGS
 +------------+-------------+-------------+-----------------+ <-- min LBFGS
 |  previous  |    0.000000 |    0.004541 |     -205.183070 | <-- min LBFGS
 | trial step |    1.000000 |    0.001639 |     -205.183203 | <-- min LBFGS
 +------------+-------------+-------------+-----------------+ <-- min LBFGS
  

--------------------------------------------------------------------------------
 LBFGS: improving iteration         4 with line minimization (lambda=  1.564951)
--------------------------------------------------------------------------------

                           -------------------------------
                                      Unit Cell
                           -------------------------------
        Real Lattice(A)              Reciprocal Lattice(1/A)
     2.9434719     0.0000000     0.0000000        2.134617075  -0.000000000   0.000000000
     0.0000000     1.7918747     0.0000000       -0.000000000   3.506486904   0.000000000
     0.0000000     0.0000000     5.5752135        0.000000000   0.000000000   1.126985588

                       Lattice parameters(A)       Cell Angles
                    a =      2.943472          alpha =   90.000000
                    b =      1.791875          beta  =   90.000000
                    c =      5.575214          gamma =   90.000000

                Current cell volume =            29.405532 A**3

                           -------------------------------
                                     Cell Contents
                           -------------------------------

            xxxxxxxxxxxxxxxxxxxxxxxxxxxxxxxxxxxxxxxxxxxxxxxxxxxxxxxxxxxxxxxxx
            x  Element         Atom        Fractional coordinates of atoms  x
            x                 Number           u          v          w      x
            x---------------------------------------------------------------x
            x  H                 1         0.407563   0.364448   0.000000   x
            x  H                 2        -0.407563   0.364448   0.500000   x
            x  H                 3         0.407563  -0.364448   0.500000   x
            x  H                 4        -0.407563  -0.364448   0.000000   x
            x  H                 5         0.354942  -0.000000   0.250000   x
            x  H                 6        -0.354942   0.000000   0.750000   x
            x  H                 7         0.354942   0.000000   0.750000   x
            x  H                 8        -0.354942  -0.000000   0.250000   x
            x  H                 9         0.907563   0.864448   0.500000   x
            x  H                10        -0.907563   0.864448   0.000000   x
            x  H                11         0.907563  -0.864448   0.000000   x
            x  H                12        -0.907563  -0.864448   0.500000   x
            x  H                13         0.854942   0.500000   0.750000   x
            x  H                14        -0.854942   0.500000   0.250000   x
            x  H                15         0.854942   0.500000   0.250000   x
            x  H                16        -0.854942   0.500000   0.750000   x
            xxxxxxxxxxxxxxxxxxxxxxxxxxxxxxxxxxxxxxxxxxxxxxxxxxxxxxxxxxxxxxxxx


------------------------------------------------------------------------ <-- SCF
SCF loop      Energy                           Energy gain       Timer   <-- SCF
                                               per atom          (sec)   <-- SCF
------------------------------------------------------------------------ <-- SCF
Initial  -2.35649468E+002                                         60.59  <-- SCF
      1  -2.35650004E+002                    3.34579046E-005      61.08  <-- SCF
      2  -2.35650006E+002                    1.54782456E-007      61.85  <-- SCF
      3  -2.35649995E+002                   -7.13137812E-007      62.64  <-- SCF
      4  -2.35649994E+002                   -2.41188843E-008      63.48  <-- SCF
      5  -2.35649994E+002                    6.43427644E-011      64.25  <-- SCF
      6  -2.35649994E+002                    1.43380017E-011      64.85  <-- SCF
      7  -2.35649994E+002                   -4.25970973E-013      65.45  <-- SCF
      8  -2.35649994E+002                    1.17821758E-013      66.05  <-- SCF
------------------------------------------------------------------------ <-- SCF
 
Final energy =  -235.6499943186     eV
(energy not corrected for finite basis set)
 

 ******************************** Symmetrised Forces ********************************
 *                                                                                  *
 *                           Cartesian components (eV/A)                            *
 * -------------------------------------------------------------------------------- *
 *                         x                    y                    z              *
 *                                                                                  *
 * H               1     -0.00303              0.00798              0.00000         *
 * H               2      0.00303              0.00798              0.00000         *
 * H               3     -0.00303             -0.00798              0.00000         *
 * H               4      0.00303             -0.00798              0.00000         *
 * H               5     -0.00652              0.00000              0.00000         *
 * H               6      0.00652              0.00000              0.00000         *
 * H               7     -0.00652              0.00000              0.00000         *
 * H               8      0.00652              0.00000              0.00000         *
 * H               9     -0.00303              0.00798              0.00000         *
 * H              10      0.00303              0.00798              0.00000         *
 * H              11     -0.00303             -0.00798              0.00000         *
 * H              12      0.00303             -0.00798              0.00000         *
 * H              13     -0.00652              0.00000              0.00000         *
 * H              14      0.00652              0.00000             -0.00000         *
 * H              15     -0.00652              0.00000              0.00000         *
 * H              16      0.00652              0.00000              0.00000         *
 *                                                                                  *
 ************************************************************************************

 *********** Symmetrised Stress Tensor ***********
 *                                               *
 *          Cartesian components (GPa)           *
 * --------------------------------------------- *
 *             x             y             z     *
 *                                               *
 *  x   -165.951799     -0.000000      0.000000  *
 *  y     -0.000000   -166.138919      0.000000  *
 *  z      0.000000      0.000000   -165.804492  *
 *                                               *
 *  Pressure:  165.9651                          *
 *                                               *
 *************************************************
  
 +------------+-------------+-------------+-----------------+ <-- min LBFGS
 |    Step    |   lambda    |   F.delta'  |    enthalpy     | <-- min LBFGS
 +------------+-------------+-------------+-----------------+ <-- min LBFGS
 |  previous  |    0.000000 |    0.004541 |     -205.183070 | <-- min LBFGS
 | trial step |    1.000000 |    0.001639 |     -205.183203 | <-- min LBFGS
 |  line step |    1.564951 |   -0.000016 |     -205.183233 | <-- min LBFGS
 +------------+-------------+-------------+-----------------+ <-- min LBFGS
  
 LBFGS: finished iteration     4 with enthalpy= -2.05183233E+002 eV
  
 +-----------+-----------------+-----------------+------------+-----+ <-- LBFGS
 | Parameter |      value      |    tolerance    |    units   | OK? | <-- LBFGS
 +-----------+-----------------+-----------------+------------+-----+ <-- LBFGS
 |  dE/ion   |   1.019487E-005 |   1.000000E-009 |         eV | No  | <-- LBFGS
 |  |F|max   |   8.533518E-003 |   1.000000E-005 |       eV/A | No  | <-- LBFGS
 |  |dR|max  |   1.640012E-003 |   1.000000E-005 |          A | No  | <-- LBFGS
 |   Smax    |   1.955078E-001 |   1.000000E-005 |        GPa | No  | <-- LBFGS
 +-----------+-----------------+-----------------+------------+-----+ <-- LBFGS
  

================================================================================
 Starting LBFGS iteration          5 ...
================================================================================
  
 +------------+-------------+-------------+-----------------+ <-- min LBFGS
 |    Step    |   lambda    |   F.delta'  |    enthalpy     | <-- min LBFGS
 +------------+-------------+-------------+-----------------+ <-- min LBFGS
 |  previous  |    0.000000 |    0.002232 |     -205.183233 | <-- min LBFGS
 +------------+-------------+-------------+-----------------+ <-- min LBFGS
  

--------------------------------------------------------------------------------
 LBFGS: starting iteration         5 with trial guess (lambda=  1.000000)
--------------------------------------------------------------------------------

                           -------------------------------
                                      Unit Cell
                           -------------------------------
        Real Lattice(A)              Reciprocal Lattice(1/A)
     2.9429336    -0.0000000     0.0000000        2.135007469   0.000000000   0.000000000
    -0.0000000     1.7922501     0.0000000        0.000000000   3.505752470   0.000000000
     0.0000000     0.0000000     5.5749989        0.000000000   0.000000000   1.127028973

                       Lattice parameters(A)       Cell Angles
                    a =      2.942934          alpha =   90.000000
                    b =      1.792250          beta  =   90.000000
                    c =      5.574999          gamma =   90.000000

                Current cell volume =            29.405182 A**3

                           -------------------------------
                                     Cell Contents
                           -------------------------------

            xxxxxxxxxxxxxxxxxxxxxxxxxxxxxxxxxxxxxxxxxxxxxxxxxxxxxxxxxxxxxxxxx
            x  Element         Atom        Fractional coordinates of atoms  x
            x                 Number           u          v          w      x
            x---------------------------------------------------------------x
            x  H                 1         0.407304   0.364903   0.000000   x
            x  H                 2        -0.407304   0.364903   0.500000   x
            x  H                 3         0.407304  -0.364903   0.500000   x
            x  H                 4        -0.407304  -0.364903   0.000000   x
            x  H                 5         0.354851  -0.000000   0.250000   x
            x  H                 6        -0.354851   0.000000   0.750000   x
            x  H                 7         0.354851   0.000000   0.750000   x
            x  H                 8        -0.354851  -0.000000   0.250000   x
            x  H                 9         0.907304   0.864903   0.500000   x
            x  H                10        -0.907304   0.864903   0.000000   x
            x  H                11         0.907304  -0.864903   0.000000   x
            x  H                12        -0.907304  -0.864903   0.500000   x
            x  H                13         0.854851   0.500000   0.750000   x
            x  H                14        -0.854851   0.500000   0.250000   x
            x  H                15         0.854851   0.500000   0.250000   x
            x  H                16        -0.854851   0.500000   0.750000   x
            xxxxxxxxxxxxxxxxxxxxxxxxxxxxxxxxxxxxxxxxxxxxxxxxxxxxxxxxxxxxxxxxx


------------------------------------------------------------------------ <-- SCF
[...]
            x---------------------------------------------------------------x
            x  H                 1         0.406396   0.366598   0.000000   x
            x  H                 2        -0.406396   0.366598   0.500000   x
            x  H                 3         0.406396  -0.366598   0.500000   x
            x  H                 4        -0.406396  -0.366598   0.000000   x
            x  H                 5         0.354953  -0.000000   0.250000   x
            x  H                 6        -0.354953   0.000000   0.750000   x
            x  H                 7         0.354953  -0.000000   0.750000   x
            x  H                 8        -0.354953   0.000000   0.250000   x
            x  H                 9         0.906396   0.866598   0.500000   x
            x  H                10        -0.906396   0.866598   0.000000   x
            x  H                11         0.906396  -0.866598   0.000000   x
            x  H                12        -0.906396  -0.866598   0.500000   x
            x  H                13         0.854953   0.500000   0.750000   x
            x  H                14        -0.854953   0.500000   0.250000   x
            x  H                15         0.854953   0.500000   0.250000   x
            x  H                16        -0.854953   0.500000   0.750000   x
            xxxxxxxxxxxxxxxxxxxxxxxxxxxxxxxxxxxxxxxxxxxxxxxxxxxxxxxxxxxxxxxxx


------------------------------------------------------------------------ <-- SCF
SCF loop      Energy                           Energy gain       Timer   <-- SCF
                                               per atom          (sec)   <-- SCF
------------------------------------------------------------------------ <-- SCF
Initial  -2.35646792E+002                                        138.36  <-- SCF
      1  -2.35646792E+002                    2.35643517E-013     138.68  <-- SCF
      2  -2.35646792E+002                    1.20842829E-014     139.27  <-- SCF
      3  -2.35646792E+002                    3.20233497E-013     139.87  <-- SCF
      4  -2.35646792E+002                   -1.20842829E-013     140.46  <-- SCF
------------------------------------------------------------------------ <-- SCF
 
Final energy =  -235.6467924665     eV
(energy not corrected for finite basis set)
 

 ******************************** Symmetrised Forces ********************************
 *                                                                                  *
 *                           Cartesian components (eV/A)                            *
 * -------------------------------------------------------------------------------- *
 *                         x                    y                    z              *
 *                                                                                  *
 * H               1     -0.00000             -0.00000              0.00000         *
 * H               2      0.00000             -0.00000              0.00000         *
 * H               3     -0.00000              0.00000              0.00000         *
 * H               4      0.00000              0.00000              0.00000         *
 * H               5      0.00000              0.00000              0.00000         *
 * H               6     -0.00000              0.00000              0.00000         *
 * H               7      0.00000             -0.00000             -0.00000         *
 * H               8     -0.00000              0.00000              0.00000         *
 * H               9     -0.00000             -0.00000              0.00000         *
 * H              10      0.00000             -0.00000              0.00000         *
 * H              11     -0.00000              0.00000              0.00000         *
 * H              12      0.00000              0.00000              0.00000         *
 * H              13      0.00000              0.00000             -0.00000         *
 * H              14     -0.00000             -0.00000             -0.00000         *
 * H              15      0.00000              0.00000             -0.00000         *
 * H              16     -0.00000             -0.00000              0.00000         *
 *                                                                                  *
 ************************************************************************************

 *********** Symmetrised Stress Tensor ***********
 *                                               *
 *          Cartesian components (GPa)           *
 * --------------------------------------------- *
 *             x             y             z     *
 *                                               *
 *  x   -165.999999     -0.000000      0.000000  *
 *  y     -0.000000   -166.000006      0.000000  *
 *  z      0.000000      0.000000   -165.999993  *
 *                                               *
 *  Pressure:  166.0000                          *
 *                                               *
 *************************************************
  
 +------------+-------------+-------------+-----------------+ <-- min LBFGS
 |    Step    |   lambda    |   F.delta'  |    enthalpy     | <-- min LBFGS
 +------------+-------------+-------------+-----------------+ <-- min LBFGS
 |  previous  |    0.000000 |  8.614E-008 |     -205.183396 | <-- min LBFGS
 | trial step |    1.000000 | -2.891E-008 |     -205.183396 | <-- min LBFGS
 +------------+-------------+-------------+-----------------+ <-- min LBFGS
  
 LBFGS: finished iteration    13 with enthalpy= -2.05183396E+002 eV
  
 +-----------+-----------------+-----------------+------------+-----+ <-- LBFGS
 | Parameter |      value      |    tolerance    |    units   | OK? | <-- LBFGS
 +-----------+-----------------+-----------------+------------+-----+ <-- LBFGS
 |  dE/ion   |   6.797409E-014 |   1.000000E-009 |         eV | Yes | <-- LBFGS
 |  |F|max   |   1.467930E-007 |   1.000000E-005 |       eV/A | Yes | <-- LBFGS
 |  |dR|max  |   9.329729E-008 |   1.000000E-005 |          A | Yes | <-- LBFGS
 |   Smax    |   7.112786E-006 |   1.000000E-005 |        GPa | Yes | <-- LBFGS
 +-----------+-----------------+-----------------+------------+-----+ <-- LBFGS
  
 LBFGS: Geometry optimization completed successfully.

================================================================================
 LBFGS: Final Configuration:
================================================================================

                           -------------------------------
                                      Unit Cell
                           -------------------------------
        Real Lattice(A)              Reciprocal Lattice(1/A)
     2.9432984    -0.0000000     0.0000000        2.134742917   0.000000000   0.000000000
    -0.0000000     1.7924229     0.0000000        0.000000000   3.505414605   0.000000000
     0.0000000     0.0000000     5.5732223        0.000000000   0.000000000   1.127388238

                       Lattice parameters(A)       Cell Angles
                    a =      2.943298          alpha =   90.000000
                    b =      1.792423          beta  =   90.000000
                    c =      5.573222          gamma =   90.000000

                Current cell volume =            29.402288 A**3

                           -------------------------------
                                     Cell Contents
                           -------------------------------

            xxxxxxxxxxxxxxxxxxxxxxxxxxxxxxxxxxxxxxxxxxxxxxxxxxxxxxxxxxxxxxxxx
            x  Element         Atom        Fractional coordinates of atoms  x
            x                 Number           u          v          w      x
            x---------------------------------------------------------------x
            x  H                 1         0.406396   0.366598   0.000000   x
            x  H                 2        -0.406396   0.366598   0.500000   x
            x  H                 3         0.406396  -0.366598   0.500000   x
            x  H                 4        -0.406396  -0.366598   0.000000   x
            x  H                 5         0.354953  -0.000000   0.250000   x
            x  H                 6        -0.354953   0.000000   0.750000   x
            x  H                 7         0.354953  -0.000000   0.750000   x
            x  H                 8        -0.354953   0.000000   0.250000   x
            x  H                 9         0.906396   0.866598   0.500000   x
            x  H                10        -0.906396   0.866598   0.000000   x
            x  H                11         0.906396  -0.866598   0.000000   x
            x  H                12        -0.906396  -0.866598   0.500000   x
            x  H                13         0.854953   0.500000   0.750000   x
            x  H                14        -0.854953   0.500000   0.250000   x
            x  H                15         0.854953   0.500000   0.250000   x
            x  H                16        -0.854953   0.500000   0.750000   x
            xxxxxxxxxxxxxxxxxxxxxxxxxxxxxxxxxxxxxxxxxxxxxxxxxxxxxxxxxxxxxxxxx


 LBFGS: Final Enthalpy     = -2.05183396E+002 eV
 LBFGS: Final <frequency>  =     633.59997 cm-1
 LBFGS: Final bulk modulus =     433.30626 GPa

 ******************************** Symmetrised Forces ********************************
 *                                                                                  *
 *                           Cartesian components (eV/A)                            *
 * -------------------------------------------------------------------------------- *
 *                         x                    y                    z              *
 *                                                                                  *
 * H               1     -0.00000             -0.00000              0.00000         *
 * H               2      0.00000             -0.00000              0.00000         *
 * H               3     -0.00000              0.00000              0.00000         *
 * H               4      0.00000              0.00000              0.00000         *
 * H               5      0.00000              0.00000              0.00000         *
 * H               6     -0.00000              0.00000              0.00000         *
 * H               7      0.00000             -0.00000             -0.00000         *
 * H               8     -0.00000              0.00000              0.00000         *
 * H               9     -0.00000             -0.00000              0.00000         *
 * H              10      0.00000             -0.00000              0.00000         *
 * H              11     -0.00000              0.00000              0.00000         *
 * H              12      0.00000              0.00000              0.00000         *
 * H              13      0.00000              0.00000             -0.00000         *
 * H              14     -0.00000             -0.00000             -0.00000         *
 * H              15      0.00000              0.00000             -0.00000         *
 * H              16     -0.00000             -0.00000              0.00000         *
 *                                                                                  *
 ************************************************************************************

 *********** Symmetrised Stress Tensor ***********
 *                                               *
 *          Cartesian components (GPa)           *
 * --------------------------------------------- *
 *             x             y             z     *
 *                                               *
 *  x   -165.999999     -0.000000      0.000000  *
 *  y     -0.000000   -166.000006      0.000000  *
 *  z      0.000000      0.000000   -165.999993  *
 *                                               *
 *  Pressure:  166.0000                          *
 *                                               *
 *************************************************

 Pseudo atomic calculation performed for H 1s1

 Converged in 24 iterations to a total energy of -12.4843 eV

Charge spilling parameter for spin component 1 = 0.56%

            Orbital Populations       
     Ion    Atom   Orbital             Charge
  -------------------------------------------
      H     1      S                    1.006
      H     2      S                    1.005
      H     3      S                    1.005
      H     4      S                    1.006
      H     5      S                    0.995
      H     6      S                    0.995
      H     7      S                    0.995
      H     8      S                    0.995
      H     9      S                    1.006
      H    10      S                    1.005
      H    11      S                    1.005
      H    12      S                    1.006
      H    13      S                    0.995
      H    14      S                    0.995
      H    15      S                    0.995
      H    16      S                    0.995
  -------------------------------------------
                           Total:      16.000
  -------------------------------------------

     Atomic Populations (Mulliken)
     -----------------------------
Species          Ion     s      p      d      f     Total  Charge (e)
=====================================================================
  H               1     1.01   0.00   0.00   0.00   1.01    -0.01
  H               2     1.01   0.00   0.00   0.00   1.01    -0.01
  H               3     1.01   0.00   0.00   0.00   1.01    -0.01
  H               4     1.01   0.00   0.00   0.00   1.01    -0.01
  H               5     0.99   0.00   0.00   0.00   0.99     0.01
  H               6     0.99   0.00   0.00   0.00   0.99     0.01
  H               7     0.99   0.00   0.00   0.00   0.99     0.01
  H               8     0.99   0.00   0.00   0.00   0.99     0.01
  H               9     1.01   0.00   0.00   0.00   1.01    -0.01
  H              10     1.01   0.00   0.00   0.00   1.01    -0.01
  H              11     1.01   0.00   0.00   0.00   1.01    -0.01
  H              12     1.01   0.00   0.00   0.00   1.01    -0.01
  H              13     0.99   0.00   0.00   0.00   0.99     0.01
  H              14     0.99   0.00   0.00   0.00   0.99     0.01
  H              15     0.99   0.00   0.00   0.00   0.99     0.01
  H              16     0.99   0.00   0.00   0.00   0.99     0.01
=====================================================================

                 Bond                   Population      Length (A)
======================================================================
              H 10 -- H 11                   1.49        0.72960
              H 9  -- H 12                   1.49        0.72960
              H 2  -- H 3                    1.49        0.72960
              H 1  -- H 4                    1.49        0.72960
              H 6  -- H 7                    0.46        0.85384
              H 5  -- H 8                    0.46        0.85384
              H 14 -- H 15                   0.46        0.85384
              H 13 -- H 16                   0.46        0.85384
              H 8  -- H 15                   0.83        1.08853
              H 7  -- H 16                   0.83        1.08853
              H 6  -- H 13                   0.83        1.08853
              H 5  -- H 14                   0.83        1.08853
              H 4  -- H 11                  -0.27        1.28482
              H 3  -- H 12                  -0.27        1.28482
              H 2  -- H 9                   -0.27        1.28482
              H 1  -- H 10                  -0.27        1.28482
              H 4  -- H 10                  -0.59        1.52986
              H 3  -- H 9                   -0.59        1.52986
              H 2  -- H 12                  -0.59        1.52986
              H 1  -- H 11                  -0.59        1.52986
              H 12 -- H 16                  -0.11        1.54790
              H 11 -- H 15                  -0.11        1.54790
              H 4  -- H 8                   -0.11        1.54790
              H 3  -- H 7                   -0.11        1.54790
              H 2  -- H 6                   -0.11        1.54790
              H 1  -- H 5                   -0.11        1.54790
              H 10 -- H 14                  -0.11        1.54790
              H 9  -- H 13                  -0.11        1.54790
              H 4  -- H 6                   -0.11        1.54790
              H 3  -- H 5                   -0.11        1.54790
              H 2  -- H 8                   -0.11        1.54790
              H 1  -- H 7                   -0.11        1.54790
              H 12 -- H 14                  -0.11        1.54790
              H 11 -- H 13                  -0.11        1.54790
              H 10 -- H 16                  -0.11        1.54790
              H 9  -- H 15                  -0.11        1.54790
              H 8  -- H 9                   -0.09        1.60940
              H 7  -- H 10                  -0.09        1.60940
              H 6  -- H 11                  -0.09        1.60940
              H 5  -- H 12                  -0.09        1.60940
              H 4  -- H 15                  -0.09        1.60940
              H 3  -- H 16                  -0.09        1.60940
              H 2  -- H 13                  -0.09        1.60940
              H 1  -- H 14                  -0.09        1.60940
              H 8  -- H 11                  -0.09        1.60940
              H 7  -- H 12                  -0.09        1.60940
              H 6  -- H 9                   -0.09        1.60940
              H 5  -- H 10                  -0.09        1.60940
              H 4  -- H 13                  -0.09        1.60940
              H 3  -- H 14                  -0.09        1.60940
              H 2  -- H 15                  -0.09        1.60940
              H 1  -- H 16                  -0.09        1.60940
              H 12 -- H 13                  -0.21        1.69307
              H 11 -- H 14                  -0.21        1.69307
              H 4  -- H 5                   -0.21        1.69307
              H 3  -- H 6                   -0.21        1.69307
              H 2  -- H 7                   -0.21        1.69307
              H 1  -- H 8                   -0.21        1.69307
              H 12 -- H 15                  -0.21        1.69307
              H 11 -- H 16                  -0.21        1.69307
              H 10 -- H 15                  -0.21        1.69307
              H 10 -- H 13                  -0.21        1.69307
              H 9  -- H 16                  -0.21        1.69307
              H 9  -- H 14                  -0.21        1.69307
              H 4  -- H 7                   -0.21        1.69307
              H 3  -- H 8                   -0.21        1.69307
              H 2  -- H 5                   -0.21        1.69307
              H 1  -- H 6                   -0.21        1.69307
              H 8  -- H 14                  -0.69        1.72306
              H 7  -- H 13                  -0.69        1.72306
              H 6  -- H 16                  -0.69        1.72306
              H 5  -- H 15                  -0.69        1.72306
======================================================================


Writing analysis data to Hibam.castep_bin

Writing model to Hibam.check
 
 A BibTeX formatted list of references used in this run has been written to 
 Hibam.bib
 
Initialisation time =      2.45 s
Calculation time    =    140.67 s
Finalisation time   =      0.56 s
Total time          =    143.69 s
Peak Memory Use     = 489896 kB
  
Overall parallel efficiency rating: Excellent (94%)                             
  
Data was distributed by:-
k-point (16-way); efficiency rating: Excellent (95%)                            
  
Parallel notes:
1) Calculation only took 143.1 s, so efficiency estimates may be inaccurate.    
