 +-------------------------------------------------+
 |                                                 |
 |      CCC   AA    SSS  TTTTT  EEEEE  PPPP        |
 |     C     A  A  S       T    E      P   P       |
 |     C     AAAA   SS     T    EEE    PPPP        |
 |     C     A  A     S    T    E      P           |
 |      CCC  A  A  SSS     T    EEEEE  P           |
 |                                                 |
 +-------------------------------------------------+
 |                                                 |
 | Welcome to Academic Release CASTEP version 18.1 |          
 | Ab Initio Total Energy Program                  |
 |                                                 |
 | Authors:                                        |
 | M. Segall, M. Probert, C. Pickard, P. Hasnip,   |
 | S. Clark, K. Refson, J. R. Yates, M. Payne      |
 |                                                 |
 | Contributors:                                   |
 | P. Lindan, P. Haynes, J. White, V. Milman,      |
 | N. Govind, M. Gibson, P. Tulip, V. Cocula,      |
 | B. Montanari, D. Quigley, M. Glover,            |
 | L. Bernasconi, A. Perlov, M. Plummer,           |
 | E. McNellis, J. Meyer, J. Gale, D. Jochym       |
 | J. Aarons, B. Walker, R. Gillen, D. Jones       |
 | T. Green, I. J. Bush, C. J. Armstrong,          |
 | E. J. Higgins, E. L. Brown, M. S. McFly,        |
 | J. Wilkins, B-C. Shih, P. J. P. Byrne           |
 |                                                 |
 | Copyright (c) 2000 - 2017                       |
 |                                                 |
 |     Distributed under the terms of an           |
 |     Agreement between the United Kingdom        |
 |     Car-Parrinello (UKCP) Consortium,           |
 |     Daresbury Laboratory and Accelrys, Inc.     |
 |                                                 |
 | Please cite                                     |
 |                                                 |
 |     "First principles methods using CASTEP"     |
 |                                                 |
 |         Zeitschrift fuer Kristallographie       |
 |           220(5-6) pp. 567-570 (2005)           |
 |                                                 |
 | S. J. Clark, M. D. Segall, C. J. Pickard,       |
 | P. J. Hasnip, M. J. Probert, K. Refson,         |
 | M. C. Payne                                     |
 |                                                 |
 |       in all publications arising from          |
 |              your use of CASTEP                 |
 |                                                 |
 +-------------------------------------------------+


 Compiled for linux_x86_64_gfortran4.8 on Thu, 19 Jul 2018 15:42:32 +0100
 from code version 70483bd0ad64+  Sun, 10 Dec 2017 12:18:29 +0000
 Compiler: GNU Fortran 4.8.5; Optimisation: fast
 MATHLIBS: Intel MKL(2018.0.0) (LAPACK version 3.7.0)
 FFT Lib : mkl
 Fundamental constants values: CODATA 2014

 Run started: Fri, 21 Aug 2020 12:28:54 +0100

 Atomic calculation performed for H: 1s1

 Converged in 41 iterations to an ae energy of -12.488 eV

   ============================================================                
   | Pseudopotential Report - Date of generation 21-08-2020   |                
   ------------------------------------------------------------                
   | Element: H Ionic charge:  1.00 Level of theory: PBE      |                
   | Atomic Solver: Koelling-Harmon                           |                
   |                                                          |                
   |               Reference Electronic Structure             |                
   |         Orbital         Occupation         Energy        |                
   |            1s              1.000           -0.239        |                
   |                                                          |                
   |                 Pseudopotential Definition               |                
   |        Beta     l      e      Rc     scheme   norm       |                
   |         loc     0   -0.239   0.702     qc      1         |                
   |                                                          |                
   | No charge augmentation                                   |                
   | No partial core correction                               |                
   ------------------------------------------------------------                
   | "0|0.7|2|6|8|10L(qc=10)"                                 |                
   ------------------------------------------------------------                
   |      Author: Chris J. Pickard, Cambridge University      |                
   ============================================================                

 Pseudo atomic calculation performed for H 1s1

 Converged in 24 iterations to a total energy of -12.4843 eV

 Calculation parallelised over 16 processes.
 Data is distributed by k-point(16-way)

 ************************************ Title ************************************
 

 ***************************** General Parameters ******************************
  
 output verbosity                               : normal  (1)
 write checkpoint data to                       : Hibam.check
 type of calculation                            : geometry optimization
 stress calculation                             : on
 density difference calculation                 : off
 electron localisation func (ELF) calculation   : off
 Hirshfeld analysis                             : off
 unlimited duration calculation
 timing information                             : on
 memory usage estimate                          : on
 write extra output files                       : on
 write final potential to formatted file        : off
 write final density to formatted file          : off
 write structure in CELL formatted file         : on
 write BibTeX reference list                    : on
 write OTFG pseudopotential files               : on
 write electrostatic potential file             : on
 write bands file                               : on
 checkpoint writing                             : both castep_bin and check files
  
 output         length unit                     : A
 output           mass unit                     : amu
 output           time unit                     : ps
 output         charge unit                     : e
 output           spin unit                     : hbar/2
 output         energy unit                     : eV
 output          force unit                     : eV/A
 output       velocity unit                     : A/ps
 output       pressure unit                     : GPa
 output     inv_length unit                     : 1/A
 output      frequency unit                     : cm-1
 output force constant unit                     : eV/A**2
 output         volume unit                     : A**3
 output   IR intensity unit                     : (D/A)**2/amu
 output         dipole unit                     : D
 output         efield unit                     : eV/A/e
 output        entropy unit                     : J/mol/K
  
 wavefunctions paging                           : none
 random number generator seed                   : randomised (122855020)
 data distribution                              : optimal for this architecture
 optimization strategy                          : maximize speed(+++)

 *********************** Exchange-Correlation Parameters ***********************
  
 using functional                               : Perdew Burke Ernzerhof
 relativistic treatment                         : Koelling-Harmon
 DFT+D: Semi-empirical dispersion correction    : off

 ************************* Pseudopotential Parameters **************************
  
 pseudopotential representation                 : reciprocal space
 <beta|phi> representation                      : reciprocal space
 spin-orbit coupling                            : off

 **************************** Basis Set Parameters *****************************
  
 plane wave basis set cut-off                   :  1200.0000   eV
 size of standard grid                          :     2.0000
 size of   fine   gmax                          :    35.4943   1/A
 finite basis set correction                    : automatic
 number of sample energies                      :          3
           sample  spacing                      :     5.0000   eV

 **************************** Electronic Parameters ****************************
  
 number of  electrons                           :  16.00    
 net charge of system                           :  0.000    
 treating system as non-spin-polarized
 number of bands                                :          8

 ********************* Electronic Minimization Parameters **********************
  
 Method: Treating system as non-metallic,
         and number of  SD  steps               :          1
         and number of  CG  steps               :          4
  
 total energy / atom convergence tol.           : 0.1000E-10   eV
 eigen-energy convergence tolerance             : 0.2000E-10   eV
 max force / atom convergence tol.              : ignored
 convergence tolerance window                   :          3   cycles
 max. number of SCF cycles                      :        100
 periodic dipole correction                     : NONE

 ************************** Density Mixing Parameters **************************
  
 density-mixing scheme                          : Broyden
 max. length of mixing history                  :         20
 charge density mixing amplitude                : 0.8000    
 cut-off energy for mixing                      :  1200.       eV

 *********************** Population Analysis Parameters ************************
  
 Population analysis with cutoff                :  3.000       A
 Population analysis output                     : summary and pdos components

 ********************** Geometry Optimization Parameters ***********************
  
 optimization method                            : LBFGS
 max. no. of LBFGS updates                      : unbounded
 variable cell method                           : fixed basis quality
 max. number of steps                           :         60
 estimated bulk modulus                         :  500.0       GPa
 estimated <frequency>                          :  1668.       cm-1
 geom line minimiser                            : on
 with line minimiser tolerance                  :     0.4000
 total energy convergence tolerance             : 0.1000E-08   eV/atom
        max ionic |force| tolerance             : 0.1000E-04   eV/A
 max ionic |displacement| tolerance             : 0.1000E-04   A
   max |stress component| tolerance             : 0.1000E-04   GPa
 convergence tolerance window                   :          2   steps
 backup results every                           :      14400   seconds
 write geom trajectory file                     : on

 *******************************************************************************
  

                           -------------------------------
                                      Unit Cell
                           -------------------------------
        Real Lattice(A)                      Reciprocal Lattice(1/A)
     3.1241679    -0.0000000     0.0000000        2.011154790   0.000000000   0.000000000
    -0.0000000     1.9530003     0.0000000        0.000000000   3.217196333   0.000000000
     0.0000000     0.0000000     6.0126470        0.000000000   0.000000000   1.044994883

                       Lattice parameters(A)       Cell Angles
                    a =      3.124168          alpha =   90.000000
                    b =      1.953000          beta  =   90.000000
                    c =      6.012647          gamma =   90.000000

                       Current cell volume =            36.686170       A**3
                                   density =             0.439595   AMU/A**3
                                           =             0.729964     g/cm^3

                           -------------------------------
                                     Cell Contents
                           -------------------------------
                         Total number of ions in cell =   16
                      Total number of species in cell =    1
                        Max number of any one species =   16

            xxxxxxxxxxxxxxxxxxxxxxxxxxxxxxxxxxxxxxxxxxxxxxxxxxxxxxxxxxxx
            x  Element    Atom        Fractional coordinates of atoms  x
            x            Number           u          v          w      x
            x----------------------------------------------------------x
            x  H            1         0.403472   0.391835   0.000000   x 
            x  H            2        -0.403472   0.391835   0.500000   x 
            x  H            3         0.403472  -0.391835   0.500000   x 
            x  H            4        -0.403472  -0.391835   0.000000   x 
            x  H            5         0.376419  -0.000000   0.250000   x 
            x  H            6        -0.376419   0.000000   0.750000   x 
            x  H            7         0.376419   0.000000   0.750000   x 
            x  H            8        -0.376419  -0.000000   0.250000   x 
            x  H            9         0.903472   0.891835   0.500000   x 
            x  H           10        -0.903472   0.891835   0.000000   x 
            x  H           11         0.903472  -0.891835   0.000000   x 
            x  H           12        -0.903472  -0.891835   0.500000   x 
            x  H           13         0.876419   0.500000   0.750000   x 
            x  H           14        -0.876419   0.500000   0.250000   x 
            x  H           15         0.876419   0.500000   0.250000   x 
            x  H           16        -0.876419   0.500000   0.750000   x 
            xxxxxxxxxxxxxxxxxxxxxxxxxxxxxxxxxxxxxxxxxxxxxxxxxxxxxxxxxxxx


                         No user defined ionic velocities

                           -------------------------------
                                   Details of Species
                           -------------------------------

                               Mass of species in AMU
                                    H    1.0079400

                          Electric Quadrupole Moment (Barn)
                                    H    0.0028600 Isotope  2

                          Files used for pseudopotentials:
                                    H 0|0.7|2|6|8|10L(qc=10)

                           -------------------------------
                              k-Points For BZ Sampling
                           -------------------------------
                       MP grid size for SCF calculation is  8  8  8
                            with an offset of   0.000  0.000  0.000
                       Number of kpoints used =            64

                           -------------------------------
                               Symmetry and Constraints
                           -------------------------------

                      Cell is a supercell containing 2 primitive cells
                      Maximum deviation from symmetry = 0.346852E-14     ANG

                      Number of symmetry operations   =          16
                      Number of ionic constraints     =           3
                      Point group of crystal =     8: D2h, mmm, 2/m 2/m 2/m
                      Space group of crystal =    72: Ibam, -I 2 2c

             Set iprint > 1 for details on symmetry rotations/translations

                         Centre of mass is constrained
             Set iprint > 1 for details of linear ionic constraints

                         Number of cell constraints= 3
                         Cell constraints are:  1 2 3 0 0 0

                         External pressure/stress (GPa)
                         81.00000   0.00000   0.00000
                                   81.00000   0.00000
                                             81.00000
  
+---------------- MEMORY AND SCRATCH DISK ESTIMATES PER PROCESS --------------+
|                                                     Memory          Disk    |
| Baseline code, static data and system overhead      415.0 MB         0.0 MB |
| BLAS internal memory storage                          0.0 MB         0.0 MB |
| Model and support data                               39.9 MB         0.0 MB |
| Electronic energy minimisation requirements          17.6 MB         0.0 MB |
| Force calculation requirements                        7.1 MB         0.0 MB |
| Stress calculation requirements                       9.0 MB         0.0 MB |
|                                               ----------------------------- |
| Approx. total storage required per process          472.5 MB         0.0 MB |
|                                                                             |
| Requirements will fluctuate during execution and may exceed these estimates |
+-----------------------------------------------------------------------------+
Calculating finite basis set correction with  3 cut-off energies.
Calculating total energy with cut-off of 1190.000 eV.
------------------------------------------------------------------------ <-- SCF
SCF loop      Energy                           Energy gain       Timer   <-- SCF
                                               per atom          (sec)   <-- SCF
------------------------------------------------------------------------ <-- SCF
Initial   3.94689356E+002                                          3.40  <-- SCF
      1  -1.96417589E+002                    3.69441841E+001       4.19  <-- SCF
      2  -2.41442096E+002                    2.81403167E+000       4.72  <-- SCF
      3  -2.42351516E+002                    5.68387265E-002       5.17  <-- SCF
      4  -2.41459576E+002                   -5.57462561E-002       6.18  <-- SCF
      5  -2.41429535E+002                   -1.87754226E-003       7.13  <-- SCF
      6  -2.41430458E+002                    5.77018719E-005       8.07  <-- SCF
      7  -2.41430550E+002                    5.74751537E-006       9.07  <-- SCF
      8  -2.41430550E+002                    9.85342762E-009      10.09  <-- SCF
      9  -2.41430550E+002                    3.22928292E-010      11.04  <-- SCF
     10  -2.41430550E+002                    8.19012275E-012      11.81  <-- SCF
     11  -2.41430550E+002                    9.78826916E-013      12.53  <-- SCF
------------------------------------------------------------------------ <-- SCF
 
Final energy =  -241.4305503036     eV
(energy not corrected for finite basis set)
 
Calculating total energy with cut-off of 1195.000 eV.
------------------------------------------------------------------------ <-- SCF
SCF loop      Energy                           Energy gain       Timer   <-- SCF
                                               per atom          (sec)   <-- SCF
------------------------------------------------------------------------ <-- SCF
Initial  -2.41430550E+002                                         13.24  <-- SCF
      1  -2.41431740E+002                    7.43353216E-005      13.84  <-- SCF
      2  -2.41431740E+002                    1.41328710E-010      14.78  <-- SCF
      3  -2.41431740E+002                    3.13720280E-008      15.70  <-- SCF
      4  -2.41431740E+002                    1.45618630E-009      16.63  <-- SCF
      5  -2.41431740E+002                    1.04529047E-011      17.37  <-- SCF
      6  -2.41431740E+002                    5.25666307E-013      18.10  <-- SCF
      7  -2.41431740E+002                    4.44097397E-013      18.81  <-- SCF
------------------------------------------------------------------------ <-- SCF
 
Final energy =  -241.4317401965     eV
(energy not corrected for finite basis set)
 
Calculating total energy with cut-off of 1200.000 eV.
------------------------------------------------------------------------ <-- SCF
SCF loop      Energy                           Energy gain       Timer   <-- SCF
                                               per atom          (sec)   <-- SCF
------------------------------------------------------------------------ <-- SCF
Initial  -2.41431740E+002                                         19.46  <-- SCF
      1  -2.41432863E+002                    7.01624864E-005      20.05  <-- SCF
      2  -2.41432863E+002                    1.12130061E-010      20.99  <-- SCF
      3  -2.41432863E+002                    2.79858851E-008      21.90  <-- SCF
      4  -2.41432863E+002                    1.35852113E-009      22.82  <-- SCF
      5  -2.41432863E+002                    9.86077486E-012      23.55  <-- SCF
      6  -2.41432863E+002                   -1.32927112E-013      24.28  <-- SCF
------------------------------------------------------------------------ <-- SCF
 
Final energy =  -241.4328632677     eV
(energy not corrected for finite basis set)
 
 For future reference: finite basis dEtot/dlog(Ecut) =      -0.275192eV
 Total energy corrected for finite basis set =    -241.432861 eV
 
+---------------- MEMORY AND SCRATCH DISK ESTIMATES PER PROCESS --------------+
|                                                     Memory          Disk    |
| Model and support data                               48.0 MB         0.0 MB |
| Electronic energy minimisation requirements          17.6 MB         0.0 MB |
| Geometry minimisation requirements                   20.4 MB         0.0 MB |
|                                               ----------------------------- |
| Approx. total storage required per process           86.0 MB         0.0 MB |
|                                                                             |
| Requirements will fluctuate during execution and may exceed these estimates |
+-----------------------------------------------------------------------------+
 

 ******************************** Symmetrised Forces ********************************
 *                                                                                  *
 *                           Cartesian components (eV/A)                            *
 * -------------------------------------------------------------------------------- *
 *                         x                    y                    z              *
 *                                                                                  *
 * H               1      0.00000              0.00000              0.00000         *
 * H               2     -0.00000              0.00000              0.00000         *
 * H               3      0.00000             -0.00000              0.00000         *
 * H               4     -0.00000             -0.00000              0.00000         *
 * H               5      0.00000             -0.00000              0.00000         *
 * H               6     -0.00000             -0.00000             -0.00000         *
 * H               7      0.00000             -0.00000             -0.00000         *
 * H               8     -0.00000              0.00000              0.00000         *
 * H               9      0.00000              0.00000              0.00000         *
 * H              10     -0.00000              0.00000              0.00000         *
 * H              11      0.00000             -0.00000              0.00000         *
 * H              12     -0.00000             -0.00000              0.00000         *
 * H              13      0.00000              0.00000             -0.00000         *
 * H              14     -0.00000              0.00000              0.00000         *
 * H              15      0.00000              0.00000              0.00000         *
 * H              16     -0.00000              0.00000             -0.00000         *
 *                                                                                  *
 ************************************************************************************

 *********** Symmetrised Stress Tensor ***********
 *                                               *
 *          Cartesian components (GPa)           *
 * --------------------------------------------- *
 *             x             y             z     *
 *                                               *
 *  x    -97.976699      0.000000      0.000000  *
 *  y      0.000000    -97.976732      0.000000  *
 *  z      0.000000      0.000000    -97.976736  *
 *                                               *
 *  Pressure:   97.9767                          *
 *                                               *
 *************************************************
 LBFGS: finished iteration     0 with enthalpy= -2.22885718E+002 eV
  
 +-----------+-----------------+-----------------+------------+-----+ <-- LBFGS
 | Parameter |      value      |    tolerance    |    units   | OK? | <-- LBFGS
 +-----------+-----------------+-----------------+------------+-----+ <-- LBFGS
 |  dE/ion   |   0.000000E+000 |   1.000000E-009 |         eV | No  | <-- LBFGS
 |  |F|max   |   1.304959E-006 |   1.000000E-005 |       eV/A | Yes | <-- LBFGS
 |  |dR|max  |   0.000000E+000 |   1.000000E-005 |          A | No  | <-- LBFGS
 |   Smax    |   1.697674E+001 |   1.000000E-005 |        GPa | No  | <-- LBFGS
 +-----------+-----------------+-----------------+------------+-----+ <-- LBFGS
  

================================================================================
 Starting LBFGS iteration          1 ...
================================================================================
  
 +------------+-------------+-------------+-----------------+ <-- min LBFGS
 |    Step    |   lambda    |   F.delta'  |    enthalpy     | <-- min LBFGS
 +------------+-------------+-------------+-----------------+ <-- min LBFGS
 |  previous  |    0.000000 |    0.247432 |     -222.885718 | <-- min LBFGS
 +------------+-------------+-------------+-----------------+ <-- min LBFGS
  

--------------------------------------------------------------------------------
 LBFGS: starting iteration         1 with trial guess (lambda=  1.000000)
--------------------------------------------------------------------------------
 
+---------------- MEMORY AND SCRATCH DISK ESTIMATES PER PROCESS --------------+
|                                                     Memory          Disk    |
| Model and support data                               48.2 MB         0.0 MB |
| Electronic energy minimisation requirements          18.0 MB         0.0 MB |
| Geometry minimisation requirements                   20.8 MB         0.0 MB |
|                                               ----------------------------- |
| Approx. total storage required per process           87.0 MB         0.0 MB |
|                                                                             |
| Requirements will fluctuate during execution and may exceed these estimates |
+-----------------------------------------------------------------------------+
 

                           -------------------------------
                                      Unit Cell
                           -------------------------------
        Real Lattice(A)              Reciprocal Lattice(1/A)
     3.1595266    -0.0000000     0.0000000        1.988647675   0.000000000   0.000000000
    -0.0000000     1.9751040     0.0000000        0.000000000   3.181192170   0.000000000
     0.0000000     0.0000000     6.0806970        0.000000000   0.000000000   1.033300174

                       Lattice parameters(A)       Cell Angles
                    a =      3.159527          alpha =   90.000000
                    b =      1.975104          beta  =   90.000000
                    c =      6.080697          gamma =   90.000000

                Current cell volume =            37.945943 A**3

                           -------------------------------
                                     Cell Contents
                           -------------------------------

            xxxxxxxxxxxxxxxxxxxxxxxxxxxxxxxxxxxxxxxxxxxxxxxxxxxxxxxxxxxxxxxxx
            x  Element         Atom        Fractional coordinates of atoms  x
            x                 Number           u          v          w      x
            x---------------------------------------------------------------x
            x  H                 1         0.403472   0.391835   0.000000   x
            x  H                 2        -0.403472   0.391835   0.500000   x
            x  H                 3         0.403472  -0.391835   0.500000   x
            x  H                 4        -0.403472  -0.391835   0.000000   x
            x  H                 5         0.376419   0.000000   0.250000   x
            x  H                 6        -0.376419   0.000000   0.750000   x
            x  H                 7         0.376419   0.000000   0.750000   x
            x  H                 8        -0.376419   0.000000   0.250000   x
            x  H                 9         0.903472   0.891835   0.500000   x
            x  H                10        -0.903472   0.891835   0.000000   x
            x  H                11         0.903472  -0.891835   0.000000   x
            x  H                12        -0.903472  -0.891835   0.500000   x
            x  H                13         0.876419   0.500000   0.750000   x
            x  H                14        -0.876419   0.500000   0.250000   x
            x  H                15         0.876419   0.500000   0.250000   x
            x  H                16        -0.876419   0.500000   0.750000   x
            xxxxxxxxxxxxxxxxxxxxxxxxxxxxxxxxxxxxxxxxxxxxxxxxxxxxxxxxxxxxxxxxx


------------------------------------------------------------------------ <-- SCF
SCF loop      Energy                           Energy gain       Timer   <-- SCF
                                               per atom          (sec)   <-- SCF
------------------------------------------------------------------------ <-- SCF
Initial  -2.42140748E+002                                         26.60  <-- SCF
      1  -2.42162817E+002                    1.37932202E-003      27.19  <-- SCF
      2  -2.42162932E+002                    7.20179984E-006      28.14  <-- SCF
      3  -2.42162339E+002                   -3.71064105E-005      29.09  <-- SCF
      4  -2.42162323E+002                   -9.54812863E-007      30.15  <-- SCF
      5  -2.42162324E+002                    3.90124368E-008      31.11  <-- SCF
      6  -2.42162324E+002                    3.73014322E-009      32.05  <-- SCF
      7  -2.42162324E+002                    1.46038559E-011      32.79  <-- SCF
      8  -2.42162324E+002                    1.75222102E-013      33.50  <-- SCF
      9  -2.42162324E+002                    4.10865619E-013      34.22  <-- SCF
------------------------------------------------------------------------ <-- SCF
 
Final energy =  -242.1623239819     eV
(energy not corrected for finite basis set)
 

 ******************************** Symmetrised Forces ********************************
 *                                                                                  *
 *                           Cartesian components (eV/A)                            *
 * -------------------------------------------------------------------------------- *
 *                         x                    y                    z              *
 *                                                                                  *
 * H               1      0.20034              0.13949             -0.00000         *
 * H               2     -0.20034              0.13949             -0.00000         *
 * H               3      0.20034             -0.13949             -0.00000         *
 * H               4     -0.20034             -0.13949             -0.00000         *
 * H               5      0.21814              0.00000              0.00000         *
 * H               6     -0.21814              0.00000             -0.00000         *
 * H               7      0.21814              0.00000              0.00000         *
 * H               8     -0.21814              0.00000              0.00000         *
 * H               9      0.20034              0.13949             -0.00000         *
 * H              10     -0.20034              0.13949             -0.00000         *
 * H              11      0.20034             -0.13949             -0.00000         *
 * H              12     -0.20034             -0.13949             -0.00000         *
 * H              13      0.21814              0.00000              0.00000         *
 * H              14     -0.21814              0.00000              0.00000         *
 * H              15      0.21814              0.00000             -0.00000         *
 * H              16     -0.21814             -0.00000             -0.00000         *
 *                                                                                  *
 ************************************************************************************

 *********** Symmetrised Stress Tensor ***********
 *                                               *
 *          Cartesian components (GPa)           *
 * --------------------------------------------- *
 *             x             y             z     *
 *                                               *
 *  x    -84.133251     -0.000000      0.000000  *
 *  y     -0.000000    -88.916731      0.000000  *
 *  z      0.000000      0.000000    -90.391989  *
 *                                               *
 *  Pressure:   87.8140                          *
 *                                               *
 *************************************************
  
 +------------+-------------+-------------+-----------------+ <-- min LBFGS
 |    Step    |   lambda    |   F.delta'  |    enthalpy     | <-- min LBFGS
 +------------+-------------+-------------+-----------------+ <-- min LBFGS
 |  previous  |    0.000000 |    0.247432 |     -222.885718 | <-- min LBFGS
 | trial step |    1.000000 |    0.101574 |     -222.978316 | <-- min LBFGS
 +------------+-------------+-------------+-----------------+ <-- min LBFGS
  

--------------------------------------------------------------------------------
 LBFGS: improving iteration         1 with line minimization (lambda=  1.696387)
--------------------------------------------------------------------------------
 
+---------------- MEMORY AND SCRATCH DISK ESTIMATES PER PROCESS --------------+
|                                                     Memory          Disk    |
| Model and support data                               48.3 MB         0.0 MB |
| Electronic energy minimisation requirements          18.3 MB         0.0 MB |
| Geometry minimisation requirements                   21.2 MB         0.0 MB |
|                                               ----------------------------- |
| Approx. total storage required per process           87.7 MB         0.0 MB |
|                                                                             |
| Requirements will fluctuate during execution and may exceed these estimates |
+-----------------------------------------------------------------------------+
 

                           -------------------------------
                                      Unit Cell
                           -------------------------------
        Real Lattice(A)              Reciprocal Lattice(1/A)
     3.1841500    -0.0000000     0.0000000        1.973269266   0.000000000   0.000000000
    -0.0000000     1.9904967     0.0000000        0.000000000   3.156591649   0.000000000
     0.0000000     0.0000000     6.1280862        0.000000000   0.000000000   1.025309544

                       Lattice parameters(A)       Cell Angles
                    a =      3.184150          alpha =   90.000000
                    b =      1.990497          beta  =   90.000000
                    c =      6.128086          gamma =   90.000000

                Current cell volume =            38.840056 A**3

                           -------------------------------
                                     Cell Contents
                           -------------------------------

            xxxxxxxxxxxxxxxxxxxxxxxxxxxxxxxxxxxxxxxxxxxxxxxxxxxxxxxxxxxxxxxxx
            x  Element         Atom        Fractional coordinates of atoms  x
            x                 Number           u          v          w      x
            x---------------------------------------------------------------x
            x  H                 1         0.403472   0.391835   0.000000   x
            x  H                 2        -0.403472   0.391835   0.500000   x
            x  H                 3         0.403472  -0.391835   0.500000   x
            x  H                 4        -0.403472  -0.391835   0.000000   x
            x  H                 5         0.376419   0.000000   0.250000   x
            x  H                 6        -0.376419   0.000000   0.750000   x
            x  H                 7         0.376419   0.000000   0.750000   x
            x  H                 8        -0.376419   0.000000   0.250000   x
            x  H                 9         0.903472   0.891835   0.500000   x
            x  H                10        -0.903472   0.891835   0.000000   x
            x  H                11         0.903472  -0.891835   0.000000   x
            x  H                12        -0.903472  -0.891835   0.500000   x
            x  H                13         0.876419   0.500000   0.750000   x
            x  H                14        -0.876419   0.500000   0.250000   x
            x  H                15         0.876419   0.500000   0.250000   x
            x  H                16        -0.876419   0.500000   0.750000   x
            xxxxxxxxxxxxxxxxxxxxxxxxxxxxxxxxxxxxxxxxxxxxxxxxxxxxxxxxxxxxxxxxx


------------------------------------------------------------------------ <-- SCF
SCF loop      Energy                           Energy gain       Timer   <-- SCF
                                               per atom          (sec)   <-- SCF
------------------------------------------------------------------------ <-- SCF
Initial  -2.42622121E+002                                         36.47  <-- SCF
      1  -2.42634025E+002                    7.44034854E-004      37.07  <-- SCF
      2  -2.42634086E+002                    3.78385749E-006      38.01  <-- SCF
      3  -2.42633793E+002                   -1.82977337E-005      38.96  <-- SCF
      4  -2.42633786E+002                   -4.72828952E-007      39.90  <-- SCF
      5  -2.42633786E+002                    1.98096441E-008      40.83  <-- SCF
      6  -2.42633786E+002                    1.91792977E-009      41.77  <-- SCF
      7  -2.42633786E+002                    7.34120187E-012      42.50  <-- SCF
      8  -2.42633786E+002                    4.38055256E-013      43.21  <-- SCF
------------------------------------------------------------------------ <-- SCF
 
Final energy =  -242.6337859741     eV
(energy not corrected for finite basis set)
 

 ******************************** Symmetrised Forces ********************************
 *                                                                                  *
 *                           Cartesian components (eV/A)                            *
 * -------------------------------------------------------------------------------- *
 *                         x                    y                    z              *
 *                                                                                  *
 * H               1      0.33524              0.23317              0.00000         *
 * H               2     -0.33524              0.23317              0.00000         *
 * H               3      0.33524             -0.23317              0.00000         *
 * H               4     -0.33524             -0.23317              0.00000         *
 * H               5      0.36574              0.00000              0.00000         *
 * H               6     -0.36574             -0.00000              0.00000         *
 * H               7      0.36574             -0.00000              0.00000         *
 * H               8     -0.36574              0.00000              0.00000         *
 * H               9      0.33524              0.23317              0.00000         *
 * H              10     -0.33524              0.23317              0.00000         *
 * H              11      0.33524             -0.23317              0.00000         *
 * H              12     -0.33524             -0.23317              0.00000         *
 * H              13      0.36574              0.00000             -0.00000         *
 * H              14     -0.36574             -0.00000              0.00000         *
 * H              15      0.36574              0.00000             -0.00000         *
 * H              16     -0.36574              0.00000              0.00000         *
 *                                                                                  *
 ************************************************************************************

 *********** Symmetrised Stress Tensor ***********
 *                                               *
 *          Cartesian components (GPa)           *
 * --------------------------------------------- *
 *             x             y             z     *
 *                                               *
 *  x    -75.190210      0.000000      0.000000  *
 *  y      0.000000    -83.107968      0.000000  *
 *  z      0.000000      0.000000    -85.512301  *
 *                                               *
 *  Pressure:   81.2702                          *
 *                                               *
 *************************************************
  
 +------------+-------------+-------------+-----------------+ <-- min LBFGS
 |    Step    |   lambda    |   F.delta'  |    enthalpy     | <-- min LBFGS
 +------------+-------------+-------------+-----------------+ <-- min LBFGS
 |  previous  |    0.000000 |    0.247432 |     -222.885718 | <-- min LBFGS
 | trial step |    1.000000 |    0.101574 |     -222.978316 | <-- min LBFGS
 |  line step |    1.696387 |    0.004091 |     -222.997705 | <-- min LBFGS
 +------------+-------------+-------------+-----------------+ <-- min LBFGS
  
 LBFGS: finished iteration     1 with enthalpy= -2.22997705E+002 eV
  
 +-----------+-----------------+-----------------+------------+-----+ <-- LBFGS
 | Parameter |      value      |    tolerance    |    units   | OK? | <-- LBFGS
 +-----------+-----------------+-----------------+------------+-----+ <-- LBFGS
 |  dE/ion   |   6.999147E-003 |   1.000000E-009 |         eV | No  | <-- LBFGS
 |  |F|max   |   4.083581E-001 |   1.000000E-005 |       eV/A | No  | <-- LBFGS
 |  |dR|max  |   2.188306E-007 |   1.000000E-005 |          A | Yes | <-- LBFGS
 |   Smax    |   5.809790E+000 |   1.000000E-005 |        GPa | No  | <-- LBFGS
 +-----------+-----------------+-----------------+------------+-----+ <-- LBFGS
  

================================================================================
 Starting LBFGS iteration          2 ...
================================================================================
  
 +------------+-------------+-------------+-----------------+ <-- min LBFGS
 |    Step    |   lambda    |   F.delta'  |    enthalpy     | <-- min LBFGS
 +------------+-------------+-------------+-----------------+ <-- min LBFGS
 |  previous  |    0.000000 |    0.138744 |     -222.997705 | <-- min LBFGS
 +------------+-------------+-------------+-----------------+ <-- min LBFGS
  

--------------------------------------------------------------------------------
 LBFGS: starting iteration         2 with trial guess (lambda=  1.000000)
--------------------------------------------------------------------------------
 
+---------------- MEMORY AND SCRATCH DISK ESTIMATES PER PROCESS --------------+
|                                                     Memory          Disk    |
| Model and support data                               49.6 MB         0.0 MB |
| Electronic energy minimisation requirements          19.7 MB         0.0 MB |
| Geometry minimisation requirements                   22.9 MB         0.0 MB |
|                                               ----------------------------- |
| Approx. total storage required per process           92.2 MB         0.0 MB |
|                                                                             |
| Requirements will fluctuate during execution and may exceed these estimates |
+-----------------------------------------------------------------------------+
 

                           -------------------------------
                                      Unit Cell
                           -------------------------------
        Real Lattice(A)              Reciprocal Lattice(1/A)
     3.2415350    -0.0000000     0.0000000        1.938336396   0.000000000   0.000000000
    -0.0000000     2.0372583     0.0000000        0.000000000   3.084137754   0.000000000
     0.0000000     0.0000000     6.2822295        0.000000000   0.000000000   1.000152150

                       Lattice parameters(A)       Cell Angles
                    a =      3.241535          alpha =   90.000000
                    b =      2.037258          beta  =   90.000000
                    c =      6.282229          gamma =   90.000000

                Current cell volume =            41.486865 A**3

                           -------------------------------
                                     Cell Contents
                           -------------------------------

            xxxxxxxxxxxxxxxxxxxxxxxxxxxxxxxxxxxxxxxxxxxxxxxxxxxxxxxxxxxxxxxxx
            x  Element         Atom        Fractional coordinates of atoms  x
            x                 Number           u          v          w      x
            x---------------------------------------------------------------x
            x  H                 1         0.414258   0.403835   0.000000   x
            x  H                 2        -0.414258   0.403835   0.500000   x
            x  H                 3         0.414258  -0.403835   0.500000   x
            x  H                 4        -0.414258  -0.403835   0.000000   x
            x  H                 5         0.388186   0.000000   0.250000   x
            x  H                 6        -0.388186   0.000000   0.750000   x
            x  H                 7         0.388186   0.000000   0.750000   x
            x  H                 8        -0.388186   0.000000   0.250000   x
            x  H                 9         0.914258   0.903835   0.500000   x
            x  H                10        -0.914258   0.903835   0.000000   x
            x  H                11         0.914258  -0.903835   0.000000   x
            x  H                12        -0.914258  -0.903835   0.500000   x
            x  H                13         0.888186   0.500000   0.750000   x
            x  H                14        -0.888186   0.500000   0.250000   x
            x  H                15         0.888186   0.500000   0.250000   x
            x  H                16        -0.888186   0.500000   0.750000   x
            xxxxxxxxxxxxxxxxxxxxxxxxxxxxxxxxxxxxxxxxxxxxxxxxxxxxxxxxxxxxxxxxx


------------------------------------------------------------------------ <-- SCF
SCF loop      Energy                           Energy gain       Timer   <-- SCF
                                               per atom          (sec)   <-- SCF
------------------------------------------------------------------------ <-- SCF
Initial  -2.40990484E+002                                         45.75  <-- SCF
      1  -2.44018084E+002                    1.89224987E-001      46.43  <-- SCF
      2  -2.44029617E+002                    7.20819878E-004      47.46  <-- SCF
      3  -2.43786731E+002                   -1.51804033E-002      48.50  <-- SCF
      4  -2.43777497E+002                   -5.77124695E-004      49.57  <-- SCF
      5  -2.43777593E+002                    5.98972271E-006      50.61  <-- SCF
      6  -2.43777602E+002                    5.71475017E-007      51.66  <-- SCF
      7  -2.43777602E+002                    3.11247020E-009      52.72  <-- SCF
      8  -2.43777602E+002                    1.46410151E-010      53.54  <-- SCF
      9  -2.43777602E+002                    6.85178841E-012      54.34  <-- SCF
     10  -2.43777602E+002                    1.72201032E-013      55.14  <-- SCF
------------------------------------------------------------------------ <-- SCF
 
Final energy =  -243.7776019300     eV
(energy not corrected for finite basis set)
 

 ******************************** Symmetrised Forces ********************************
 *                                                                                  *
 *                           Cartesian components (eV/A)                            *
 * -------------------------------------------------------------------------------- *
 *                         x                    y                    z              *
 *                                                                                  *
 * H               1     -1.66365             -1.25982              0.00000         *
 * H               2      1.66365             -1.25982              0.00000         *
 * H               3     -1.66365              1.25982              0.00000         *
 * H               4      1.66365              1.25982              0.00000         *
 * H               5     -0.54576              0.00000              0.00000         *
 * H               6      0.54576              0.00000              0.00000         *
 * H               7     -0.54576             -0.00000             -0.00000         *
 * H               8      0.54576              0.00000              0.00000         *
 * H               9     -1.66365             -1.25982              0.00000         *
 * H              10      1.66365             -1.25982              0.00000         *
 * H              11     -1.66365              1.25982              0.00000         *
 * H              12      1.66365              1.25982              0.00000         *
 * H              13     -0.54576             -0.00000              0.00000         *
 * H              14      0.54576              0.00000              0.00000         *
 * H              15     -0.54576             -0.00000              0.00000         *
 * H              16      0.54576              0.00000              0.00000         *
 *                                                                                  *
 ************************************************************************************

 *********** Symmetrised Stress Tensor ***********
 *                                               *
 *          Cartesian components (GPa)           *
 * --------------------------------------------- *
 *             x             y             z     *
 *                                               *
 *  x    -91.688722     -0.000000      0.000000  *
 *  y     -0.000000    -86.300966      0.000000  *
 *  z      0.000000      0.000000    -75.603638  *
 *                                               *
 *  Pressure:   84.5311                          *
 *                                               *
 *************************************************
  
 +------------+-------------+-------------+-----------------+ <-- min LBFGS
 |    Step    |   lambda    |   F.delta'  |    enthalpy     | <-- min LBFGS
 +------------+-------------+-------------+-----------------+ <-- min LBFGS
 |  previous  |    0.000000 |    0.138744 |     -222.997705 | <-- min LBFGS
 | trial step |    1.000000 |   -0.443269 |     -222.803393 | <-- min LBFGS
 +------------+-------------+-------------+-----------------+ <-- min LBFGS
  

--------------------------------------------------------------------------------
 LBFGS: improving iteration         2 with line minimization (lambda=  0.238386)
--------------------------------------------------------------------------------

                           -------------------------------
                                      Unit Cell
                           -------------------------------
        Real Lattice(A)              Reciprocal Lattice(1/A)
     3.1978298    -0.0000000     0.0000000        1.964827940   0.000000000   0.000000000
    -0.0000000     2.0016440     0.0000000        0.000000000   3.139012331   0.000000000
     0.0000000     0.0000000     6.1648318        0.000000000   0.000000000   1.019198165

                       Lattice parameters(A)       Cell Angles
                    a =      3.197830          alpha =   90.000000
                    b =      2.001644          beta  =   90.000000
                    c =      6.164832          gamma =   90.000000

                Current cell volume =            39.460576 A**3

                           -------------------------------
                                     Cell Contents
                           -------------------------------

            xxxxxxxxxxxxxxxxxxxxxxxxxxxxxxxxxxxxxxxxxxxxxxxxxxxxxxxxxxxxxxxxx
            x  Element         Atom        Fractional coordinates of atoms  x
            x                 Number           u          v          w      x
            x---------------------------------------------------------------x
            x  H                 1         0.406043   0.394695   0.000000   x
            x  H                 2        -0.406043   0.394695   0.500000   x
            x  H                 3         0.406043  -0.394695   0.500000   x
            x  H                 4        -0.406043  -0.394695   0.000000   x
            x  H                 5         0.379224   0.000000   0.250000   x
            x  H                 6        -0.379224   0.000000   0.750000   x
            x  H                 7         0.379224   0.000000   0.750000   x
            x  H                 8        -0.379224   0.000000   0.250000   x
            x  H                 9         0.906043   0.894695   0.500000   x
            x  H                10        -0.906043   0.894695   0.000000   x
            x  H                11         0.906043  -0.894695   0.000000   x
            x  H                12        -0.906043  -0.894695   0.500000   x
            x  H                13         0.879224   0.500000   0.750000   x
            x  H                14        -0.879224   0.500000   0.250000   x
            x  H                15         0.879224   0.500000   0.250000   x
            x  H                16        -0.879224   0.500000   0.750000   x
            xxxxxxxxxxxxxxxxxxxxxxxxxxxxxxxxxxxxxxxxxxxxxxxxxxxxxxxxxxxxxxxxx


------------------------------------------------------------------------ <-- SCF
SCF loop      Energy                           Energy gain       Timer   <-- SCF
                                               per atom          (sec)   <-- SCF
------------------------------------------------------------------------ <-- SCF
Initial  -2.41281300E+002                                         57.64  <-- SCF
      1  -2.43111727E+002                    1.14401710E-001      58.30  <-- SCF
      2  -2.43145016E+002                    2.08056262E-003      59.36  <-- SCF
      3  -2.42995117E+002                   -9.36871286E-003      60.39  <-- SCF
      4  -2.42989656E+002                   -3.41301029E-004      61.45  <-- SCF
      5  -2.42989685E+002                    1.78722048E-006      62.48  <-- SCF
      6  -2.42989687E+002                    1.40283305E-007      63.54  <-- SCF
      7  -2.42989687E+002                    8.28903260E-010      64.58  <-- SCF
      8  -2.42989687E+002                    6.03066139E-011      65.41  <-- SCF
      9  -2.42989687E+002                    2.32320339E-012      66.21  <-- SCF
     10  -2.42989687E+002                    9.24447643E-013      67.00  <-- SCF
------------------------------------------------------------------------ <-- SCF
 
Final energy =  -242.9896868102     eV
(energy not corrected for finite basis set)
 

 ******************************** Symmetrised Forces ********************************
 *                                                                                  *
 *                           Cartesian components (eV/A)                            *
 * -------------------------------------------------------------------------------- *
 *                         x                    y                    z              *
 *                                                                                  *
 * H               1      0.00063             -0.02790              0.00000         *
 * H               2     -0.00063             -0.02790              0.00000         *
 * H               3      0.00063              0.02790              0.00000         *
 * H               4     -0.00063              0.02790              0.00000         *
 * H               5      0.26988             -0.00000              0.00000         *
 * H               6     -0.26988             -0.00000              0.00000         *
 * H               7      0.26988             -0.00000              0.00000         *
 * H               8     -0.26988             -0.00000              0.00000         *
 * H               9      0.00063             -0.02790              0.00000         *
 * H              10     -0.00063             -0.02790              0.00000         *
 * H              11      0.00063              0.02790              0.00000         *
 * H              12     -0.00063              0.02790              0.00000         *
 * H              13      0.26988             -0.00000              0.00000         *
 * H              14     -0.26988             -0.00000              0.00000         *
 * H              15      0.26988             -0.00000              0.00000         *
 * H              16     -0.26988             -0.00000              0.00000         *
 *                                                                                  *
 ************************************************************************************

 *********** Symmetrised Stress Tensor ***********
 *                                               *
 *          Cartesian components (GPa)           *
 * --------------------------------------------- *
 *             x             y             z     *
 *                                               *
 *  x    -76.754094      0.000000      0.000000  *
 *  y      0.000000    -84.595518      0.000000  *
 *  z      0.000000      0.000000    -83.458521  *
 *                                               *
 *  Pressure:   81.6027                          *
 *                                               *
 *************************************************
  
 +------------+-------------+-------------+-----------------+ <-- min LBFGS
 |    Step    |   lambda    |   F.delta'  |    enthalpy     | <-- min LBFGS
 +------------+-------------+-------------+-----------------+ <-- min LBFGS
 |  previous  |    0.000000 |    0.138744 |     -222.997705 | <-- min LBFGS
 | trial step |    1.000000 |   -0.443269 |     -222.803393 | <-- min LBFGS
 |  line step |    0.238386 |    0.049607 |     -223.039891 | <-- min LBFGS
 +------------+-------------+-------------+-----------------+ <-- min LBFGS
  

--------------------------------------------------------------------------------
 LBFGS: improving iteration         2 with quad minimization (lambda=  0.335553)
--------------------------------------------------------------------------------

                           -------------------------------
                                      Unit Cell
                           -------------------------------
        Real Lattice(A)              Reciprocal Lattice(1/A)
     3.2034057    -0.0000000     0.0000000        1.961407910   0.000000000   0.000000000
    -0.0000000     2.0061877     0.0000000        0.000000000   3.131902987   0.000000000
     0.0000000     0.0000000     6.1798095        0.000000000   0.000000000   1.016727996

                       Lattice parameters(A)       Cell Angles
                    a =      3.203406          alpha =   90.000000
                    b =      2.006188          beta  =   90.000000
                    c =      6.179809          gamma =   90.000000

                Current cell volume =            39.715369 A**3

                           -------------------------------
                                     Cell Contents
                           -------------------------------

            xxxxxxxxxxxxxxxxxxxxxxxxxxxxxxxxxxxxxxxxxxxxxxxxxxxxxxxxxxxxxxxxx
            x  Element         Atom        Fractional coordinates of atoms  x
            x                 Number           u          v          w      x
            x---------------------------------------------------------------x
            x  H                 1         0.407091   0.395861   0.000000   x
            x  H                 2        -0.407091   0.395861   0.500000   x
            x  H                 3         0.407091  -0.395861   0.500000   x
            x  H                 4        -0.407091  -0.395861   0.000000   x
            x  H                 5         0.380367   0.000000   0.250000   x
            x  H                 6        -0.380367   0.000000   0.750000   x
            x  H                 7         0.380367   0.000000   0.750000   x
            x  H                 8        -0.380367   0.000000   0.250000   x
            x  H                 9         0.907091   0.895861   0.500000   x
            x  H                10        -0.907091   0.895861   0.000000   x
            x  H                11         0.907091  -0.895861   0.000000   x
            x  H                12        -0.907091  -0.895861   0.500000   x
            x  H                13         0.880367   0.500000   0.750000   x
            x  H                14        -0.880367   0.500000   0.250000   x
            x  H                15         0.880367   0.500000   0.250000   x
            x  H                16        -0.880367   0.500000   0.750000   x
            xxxxxxxxxxxxxxxxxxxxxxxxxxxxxxxxxxxxxxxxxxxxxxxxxxxxxxxxxxxxxxxxx


------------------------------------------------------------------------ <-- SCF
SCF loop      Energy                           Energy gain       Timer   <-- SCF
                                               per atom          (sec)   <-- SCF
------------------------------------------------------------------------ <-- SCF
Initial  -2.43095763E+002                                         69.49  <-- SCF
      1  -2.43126320E+002                    1.90983662E-003      70.17  <-- SCF
      2  -2.43126465E+002                    9.02124622E-006      71.19  <-- SCF
      3  -2.43124082E+002                   -1.48923479E-004      72.24  <-- SCF
      4  -2.43123989E+002                   -5.80190872E-006      73.28  <-- SCF
      5  -2.43123990E+002                    4.19444252E-008      74.31  <-- SCF
      6  -2.43123990E+002                    3.56166113E-009      75.36  <-- SCF
      7  -2.43123990E+002                    2.03650378E-011      76.17  <-- SCF
      8  -2.43123990E+002                    7.85478390E-013      76.98  <-- SCF
      9  -2.43123990E+002                    6.52551278E-013      77.76  <-- SCF
------------------------------------------------------------------------ <-- SCF
 
Final energy =  -243.1239899120     eV
(energy not corrected for finite basis set)
 

 ******************************** Symmetrised Forces ********************************
 *                                                                                  *
 *                           Cartesian components (eV/A)                            *
 * -------------------------------------------------------------------------------- *
 *                         x                    y                    z              *
 *                                                                                  *
 * H               1     -0.15185             -0.14633             -0.00000         *
 * H               2      0.15185             -0.14633             -0.00000         *
 * H               3     -0.15185              0.14633             -0.00000         *
 * H               4      0.15185              0.14633             -0.00000         *
 * H               5      0.23027             -0.00000             -0.00000         *
 * H               6     -0.23027             -0.00000             -0.00000         *
 * H               7      0.23027             -0.00000             -0.00000         *
 * H               8     -0.23027              0.00000             -0.00000         *
 * H               9     -0.15185             -0.14633             -0.00000         *
 * H              10      0.15185             -0.14633             -0.00000         *
 * H              11     -0.15185              0.14633             -0.00000         *
 * H              12      0.15185              0.14633             -0.00000         *
 * H              13      0.23027              0.00000              0.00000         *
 * H              14     -0.23027             -0.00000              0.00000         *
 * H              15      0.23027             -0.00000              0.00000         *
 * H              16     -0.23027              0.00000              0.00000         *
 *                                                                                  *
 ************************************************************************************

 *********** Symmetrised Stress Tensor ***********
 *                                               *
 *          Cartesian components (GPa)           *
 * --------------------------------------------- *
 *             x             y             z     *
 *                                               *
 *  x    -77.394106      0.000000      0.000000  *
 *  y      0.000000    -85.464313      0.000000  *
 *  z      0.000000      0.000000    -82.792467  *
 *                                               *
 *  Pressure:   81.8836                          *
 *                                               *
 *************************************************
  
 +------------+-------------+-------------+-----------------+ <-- min LBFGS
 |    Step    |   lambda    |   F.delta'  |    enthalpy     | <-- min LBFGS
 +------------+-------------+-------------+-----------------+ <-- min LBFGS
 |  previous  |    0.000000 |    0.138744 |     -222.997705 | <-- min LBFGS
 | trial step |    1.000000 |   -0.443269 |     -222.803393 | <-- min LBFGS
 |  line step |    0.238386 |    0.049607 |     -223.039891 | <-- min LBFGS
 |  quad step |    0.335553 |    0.010733 |     -223.045406 | <-- min LBFGS
 +------------+-------------+-------------+-----------------+ <-- min LBFGS
  
 LBFGS: finished iteration     2 with enthalpy= -2.23045406E+002 eV
  
 +-----------+-----------------+-----------------+------------+-----+ <-- LBFGS
 | Parameter |      value      |    tolerance    |    units   | OK? | <-- LBFGS
 +-----------+-----------------+-----------------+------------+-----+ <-- LBFGS
 |  dE/ion   |   2.981312E-003 |   1.000000E-009 |         eV | No  | <-- LBFGS
 |  |F|max   |   2.302670E-001 |   1.000000E-005 |       eV/A | No  | <-- LBFGS
 |  |dR|max  |   1.413080E-002 |   1.000000E-005 |          A | No  | <-- LBFGS
 |   Smax    |   4.464313E+000 |   1.000000E-005 |        GPa | No  | <-- LBFGS
 +-----------+-----------------+-----------------+------------+-----+ <-- LBFGS
  

================================================================================
 Starting LBFGS iteration          3 ...
================================================================================
  
 +------------+-------------+-------------+-----------------+ <-- min LBFGS
 |    Step    |   lambda    |   F.delta'  |    enthalpy     | <-- min LBFGS
 +------------+-------------+-------------+-----------------+ <-- min LBFGS
 |  previous  |    0.000000 |    0.089577 |     -223.045406 | <-- min LBFGS
 +------------+-------------+-------------+-----------------+ <-- min LBFGS
  

--------------------------------------------------------------------------------
 LBFGS: starting iteration         3 with trial guess (lambda=  1.000000)
--------------------------------------------------------------------------------

                           -------------------------------
                                      Unit Cell
                           -------------------------------
        Real Lattice(A)              Reciprocal Lattice(1/A)
     3.2203564    -0.0000000     0.0000000        1.951083812   0.000000000   0.000000000
    -0.0000000     2.0330519     0.0000000        0.000000000   3.090518964   0.000000000
     0.0000000     0.0000000     6.2542566        0.000000000   0.000000000   1.004625441

                       Lattice parameters(A)       Cell Angles
                    a =      3.220356          alpha =   90.000000
                    b =      2.033052          beta  =   90.000000
                    c =      6.254257          gamma =   90.000000

                Current cell volume =            40.947566 A**3

                           -------------------------------
                                     Cell Contents
                           -------------------------------

            xxxxxxxxxxxxxxxxxxxxxxxxxxxxxxxxxxxxxxxxxxxxxxxxxxxxxxxxxxxxxxxxx
            x  Element         Atom        Fractional coordinates of atoms  x
            x                 Number           u          v          w      x
            x---------------------------------------------------------------x
            x  H                 1         0.406068   0.392461   0.000000   x
            x  H                 2        -0.406068   0.392461   0.500000   x
            x  H                 3         0.406068  -0.392461   0.500000   x
            x  H                 4        -0.406068  -0.392461   0.000000   x
            x  H                 5         0.392911   0.000000   0.250000   x
            x  H                 6        -0.392911   0.000000   0.750000   x
            x  H                 7         0.392911  -0.000000   0.750000   x
            x  H                 8        -0.392911   0.000000   0.250000   x
            x  H                 9         0.906068   0.892461   0.500000   x
            x  H                10        -0.906068   0.892461   0.000000   x
            x  H                11         0.906068  -0.892461   0.000000   x
            x  H                12        -0.906068  -0.892461   0.500000   x
            x  H                13         0.892911   0.500000   0.750000   x
            x  H                14        -0.892911   0.500000   0.250000   x
            x  H                15         0.892911   0.500000   0.250000   x
            x  H                16        -0.892911   0.500000   0.750000   x
            xxxxxxxxxxxxxxxxxxxxxxxxxxxxxxxxxxxxxxxxxxxxxxxxxxxxxxxxxxxxxxxxx


------------------------------------------------------------------------ <-- SCF
SCF loop      Energy                           Energy gain       Timer   <-- SCF
                                               per atom          (sec)   <-- SCF
------------------------------------------------------------------------ <-- SCF
Initial  -2.42151344E+002                                         80.23  <-- SCF
      1  -2.43678497E+002                    9.54470614E-002      80.92  <-- SCF
      2  -2.43693701E+002                    9.50252135E-004      81.97  <-- SCF
      3  -2.43552586E+002                   -8.81971943E-003      83.04  <-- SCF
      4  -2.43549504E+002                   -1.92609316E-004      84.11  <-- SCF
      5  -2.43549509E+002                    3.30304844E-007      85.17  <-- SCF
      6  -2.43549511E+002                    7.19606661E-008      86.23  <-- SCF
      7  -2.43549511E+002                    5.43887895E-009      87.25  <-- SCF
      8  -2.43549511E+002                    5.94084496E-010      88.27  <-- SCF
      9  -2.43549511E+002                    5.39563232E-012      89.06  <-- SCF
     10  -2.43549511E+002                    3.59507417E-013      89.91  <-- SCF
------------------------------------------------------------------------ <-- SCF
 
Final energy =  -243.5495106580     eV
(energy not corrected for finite basis set)
 

 ******************************** Symmetrised Forces ********************************
 *                                                                                  *
 *                           Cartesian components (eV/A)                            *
 * -------------------------------------------------------------------------------- *
 *                         x                    y                    z              *
 *                                                                                  *
 * H               1      0.36039              0.24519             -0.00000         *
 * H               2     -0.36039              0.24519             -0.00000         *
 * H               3      0.36039             -0.24519             -0.00000         *
 * H               4     -0.36039             -0.24519             -0.00000         *
 * H               5     -1.82783              0.00000             -0.00000         *
 * H               6      1.82783             -0.00000             -0.00000         *
 * H               7     -1.82783             -0.00000              0.00000         *
 * H               8      1.82783              0.00000              0.00000         *
 * H               9      0.36039              0.24519             -0.00000         *
 * H              10     -0.36039              0.24519             -0.00000         *
 * H              11      0.36039             -0.24519             -0.00000         *
 * H              12     -0.36039             -0.24519             -0.00000         *
 * H              13     -1.82783             -0.00000             -0.00000         *
 * H              14      1.82783             -0.00000             -0.00000         *
 * H              15     -1.82783             -0.00000             -0.00000         *
 * H              16      1.82783              0.00000             -0.00000         *
 *                                                                                  *
 ************************************************************************************

 *********** Symmetrised Stress Tensor ***********
 *                                               *
 *          Cartesian components (GPa)           *
 * --------------------------------------------- *
 *             x             y             z     *
 *                                               *
 *  x    -90.988113      0.000000      0.000000  *
 *  y      0.000000    -80.703382      0.000000  *
 *  z      0.000000      0.000000    -78.581562  *
 *                                               *
 *  Pressure:   83.4244                          *
 *                                               *
 *************************************************
  
 +------------+-------------+-------------+-----------------+ <-- min LBFGS
 |    Step    |   lambda    |   F.delta'  |    enthalpy     | <-- min LBFGS
 +------------+-------------+-------------+-----------------+ <-- min LBFGS
 |  previous  |    0.000000 |    0.089577 |     -223.045406 | <-- min LBFGS
 | trial step |    1.000000 |   -0.537539 |     -222.847976 | <-- min LBFGS
 +------------+-------------+-------------+-----------------+ <-- min LBFGS
  

--------------------------------------------------------------------------------
 LBFGS: improving iteration         3 with line minimization (lambda=  0.142840)
--------------------------------------------------------------------------------

                           -------------------------------
                                      Unit Cell
                           -------------------------------
        Real Lattice(A)              Reciprocal Lattice(1/A)
     3.2058270    -0.0000000     0.0000000        1.959926534   0.000000000   0.000000000
    -0.0000000     2.0100250     0.0000000        0.000000000   3.125923977   0.000000000
     0.0000000     0.0000000     6.1904435        0.000000000   0.000000000   1.014981448

                       Lattice parameters(A)       Cell Angles
                    a =      3.205827          alpha =   90.000000
                    b =      2.010025          beta  =   90.000000
                    c =      6.190444          gamma =   90.000000

                Current cell volume =            39.889932 A**3

                           -------------------------------
                                     Cell Contents
                           -------------------------------

            xxxxxxxxxxxxxxxxxxxxxxxxxxxxxxxxxxxxxxxxxxxxxxxxxxxxxxxxxxxxxxxxx
            x  Element         Atom        Fractional coordinates of atoms  x
            x                 Number           u          v          w      x
            x---------------------------------------------------------------x
            x  H                 1         0.406945   0.395376   0.000000   x
            x  H                 2        -0.406945   0.395376   0.500000   x
            x  H                 3         0.406945  -0.395376   0.500000   x
            x  H                 4        -0.406945  -0.395376   0.000000   x
            x  H                 5         0.382159   0.000000   0.250000   x
            x  H                 6        -0.382159   0.000000   0.750000   x
            x  H                 7         0.382159  -0.000000   0.750000   x
            x  H                 8        -0.382159   0.000000   0.250000   x
            x  H                 9         0.906945   0.895376   0.500000   x
            x  H                10        -0.906945   0.895376   0.000000   x
            x  H                11         0.906945  -0.895376   0.000000   x
            x  H                12        -0.906945  -0.895376   0.500000   x
            x  H                13         0.882159   0.500000   0.750000   x
            x  H                14        -0.882159   0.500000   0.250000   x
            x  H                15         0.882159   0.500000   0.250000   x
            x  H                16        -0.882159   0.500000   0.750000   x
            xxxxxxxxxxxxxxxxxxxxxxxxxxxxxxxxxxxxxxxxxxxxxxxxxxxxxxxxxxxxxxxxx


------------------------------------------------------------------------ <-- SCF
SCF loop      Energy                           Energy gain       Timer   <-- SCF
                                               per atom          (sec)   <-- SCF
------------------------------------------------------------------------ <-- SCF
Initial  -2.42166568E+002                                         92.42  <-- SCF
      1  -2.43323964E+002                    7.23372777E-002      93.11  <-- SCF
      2  -2.43333743E+002                    6.11148776E-004      94.14  <-- SCF
      3  -2.43224992E+002                   -6.79694682E-003      95.20  <-- SCF
      4  -2.43222897E+002                   -1.30894406E-004      96.30  <-- SCF
      5  -2.43222880E+002                   -1.06419029E-006      97.33  <-- SCF
      6  -2.43222880E+002                   -4.63543365E-008      98.40  <-- SCF
      7  -2.43222880E+002                    2.48340171E-009      99.45  <-- SCF
      8  -2.43222880E+002                    2.38583019E-010     100.50  <-- SCF
      9  -2.43222880E+002                    2.56488905E-012     101.30  <-- SCF
     10  -2.43222880E+002                    2.44706729E-013     102.10  <-- SCF
------------------------------------------------------------------------ <-- SCF
 
Final energy =  -243.2228795876     eV
(energy not corrected for finite basis set)
 

[...]
            x---------------------------------------------------------------x
            x  H                 1         0.416799   0.377830   0.000000   x
            x  H                 2        -0.416799   0.377830   0.500000   x
            x  H                 3         0.416799  -0.377830   0.500000   x
            x  H                 4        -0.416799  -0.377830   0.000000   x
            x  H                 5         0.380875   0.000000   0.250000   x
            x  H                 6        -0.380875   0.000000   0.750000   x
            x  H                 7         0.380875  -0.000000   0.750000   x
            x  H                 8        -0.380875  -0.000000   0.250000   x
            x  H                 9         0.916799   0.877830   0.500000   x
            x  H                10        -0.916799   0.877830   0.000000   x
            x  H                11         0.916799  -0.877830   0.000000   x
            x  H                12        -0.916799  -0.877830   0.500000   x
            x  H                13         0.880875   0.500000   0.750000   x
            x  H                14        -0.880875   0.500000   0.250000   x
            x  H                15         0.880875   0.500000   0.250000   x
            x  H                16        -0.880875   0.500000   0.750000   x
            xxxxxxxxxxxxxxxxxxxxxxxxxxxxxxxxxxxxxxxxxxxxxxxxxxxxxxxxxxxxxxxxx


------------------------------------------------------------------------ <-- SCF
SCF loop      Energy                           Energy gain       Timer   <-- SCF
                                               per atom          (sec)   <-- SCF
------------------------------------------------------------------------ <-- SCF
Initial  -2.43474932E+002                                        281.49  <-- SCF
      1  -2.43474932E+002                    2.77334293E-012     281.88  <-- SCF
      2  -2.43474932E+002                    9.06321219E-014     282.59  <-- SCF
      3  -2.43474932E+002                    3.86697053E-013     283.31  <-- SCF
      4  -2.43474932E+002                    1.08758546E-013     284.03  <-- SCF
------------------------------------------------------------------------ <-- SCF
 
Final energy =  -243.4749318098     eV
(energy not corrected for finite basis set)
 

 ******************************** Symmetrised Forces ********************************
 *                                                                                  *
 *                           Cartesian components (eV/A)                            *
 * -------------------------------------------------------------------------------- *
 *                         x                    y                    z              *
 *                                                                                  *
 * H               1      0.00000              0.00000             -0.00000         *
 * H               2     -0.00000              0.00000             -0.00000         *
 * H               3      0.00000             -0.00000             -0.00000         *
 * H               4     -0.00000             -0.00000             -0.00000         *
 * H               5      0.00000             -0.00000             -0.00000         *
 * H               6     -0.00000             -0.00000              0.00000         *
 * H               7      0.00000              0.00000             -0.00000         *
 * H               8     -0.00000              0.00000              0.00000         *
 * H               9      0.00000              0.00000             -0.00000         *
 * H              10     -0.00000              0.00000             -0.00000         *
 * H              11      0.00000             -0.00000             -0.00000         *
 * H              12     -0.00000             -0.00000             -0.00000         *
 * H              13      0.00000              0.00000              0.00000         *
 * H              14     -0.00000             -0.00000              0.00000         *
 * H              15      0.00000             -0.00000             -0.00000         *
 * H              16     -0.00000              0.00000              0.00000         *
 *                                                                                  *
 ************************************************************************************

 *********** Symmetrised Stress Tensor ***********
 *                                               *
 *          Cartesian components (GPa)           *
 * --------------------------------------------- *
 *             x             y             z     *
 *                                               *
 *  x    -80.999998     -0.000000      0.000000  *
 *  y     -0.000000    -81.000008      0.000000  *
 *  z      0.000000      0.000000    -80.999998  *
 *                                               *
 *  Pressure:   81.0000                          *
 *                                               *
 *************************************************
  
 +------------+-------------+-------------+-----------------+ <-- min LBFGS
 |    Step    |   lambda    |   F.delta'  |    enthalpy     | <-- min LBFGS
 +------------+-------------+-------------+-----------------+ <-- min LBFGS
 |  previous  |    0.000000 |  4.144E-007 |     -223.092014 | <-- min LBFGS
 | trial step |    1.000000 | -9.152E-008 |     -223.092014 | <-- min LBFGS
 +------------+-------------+-------------+-----------------+ <-- min LBFGS
  
 LBFGS: finished iteration    16 with enthalpy= -2.23092014E+002 eV
  
 +-----------+-----------------+-----------------+------------+-----+ <-- LBFGS
 | Parameter |      value      |    tolerance    |    units   | OK? | <-- LBFGS
 +-----------+-----------------+-----------------+------------+-----+ <-- LBFGS
 |  dE/ion   |   6.495302E-013 |   1.000000E-009 |         eV | Yes | <-- LBFGS
 |  |F|max   |   4.642654E-007 |   1.000000E-005 |       eV/A | Yes | <-- LBFGS
 |  |dR|max  |   3.099886E-007 |   1.000000E-005 |          A | Yes | <-- LBFGS
 |   Smax    |   8.085837E-006 |   1.000000E-005 |        GPa | Yes | <-- LBFGS
 +-----------+-----------------+-----------------+------------+-----+ <-- LBFGS
  
 LBFGS: Geometry optimization completed successfully.

================================================================================
 LBFGS: Final Configuration:
================================================================================

                           -------------------------------
                                      Unit Cell
                           -------------------------------
        Real Lattice(A)              Reciprocal Lattice(1/A)
     3.1337236    -0.0000000     0.0000000        2.005022177   0.000000000   0.000000000
    -0.0000000     2.0939649     0.0000000        0.000000000   3.000616276   0.000000000
     0.0000000     0.0000000     6.1441434        0.000000000   0.000000000   1.022629994

                       Lattice parameters(A)       Cell Angles
                    a =      3.133724          alpha =   90.000000
                    b =      2.093965          beta  =   90.000000
                    c =      6.144143          gamma =   90.000000

                Current cell volume =            40.317300 A**3

                           -------------------------------
                                     Cell Contents
                           -------------------------------

            xxxxxxxxxxxxxxxxxxxxxxxxxxxxxxxxxxxxxxxxxxxxxxxxxxxxxxxxxxxxxxxxx
            x  Element         Atom        Fractional coordinates of atoms  x
            x                 Number           u          v          w      x
            x---------------------------------------------------------------x
            x  H                 1         0.416799   0.377830   0.000000   x
            x  H                 2        -0.416799   0.377830   0.500000   x
            x  H                 3         0.416799  -0.377830   0.500000   x
            x  H                 4        -0.416799  -0.377830   0.000000   x
            x  H                 5         0.380875   0.000000   0.250000   x
            x  H                 6        -0.380875   0.000000   0.750000   x
            x  H                 7         0.380875  -0.000000   0.750000   x
            x  H                 8        -0.380875  -0.000000   0.250000   x
            x  H                 9         0.916799   0.877830   0.500000   x
            x  H                10        -0.916799   0.877830   0.000000   x
            x  H                11         0.916799  -0.877830   0.000000   x
            x  H                12        -0.916799  -0.877830   0.500000   x
            x  H                13         0.880875   0.500000   0.750000   x
            x  H                14        -0.880875   0.500000   0.250000   x
            x  H                15         0.880875   0.500000   0.250000   x
            x  H                16        -0.880875   0.500000   0.750000   x
            xxxxxxxxxxxxxxxxxxxxxxxxxxxxxxxxxxxxxxxxxxxxxxxxxxxxxxxxxxxxxxxxx


 LBFGS: Final Enthalpy     = -2.23092014E+002 eV
 LBFGS: Final <frequency>  =     434.92869 cm-1
 LBFGS: Final bulk modulus =     206.98851 GPa

 ******************************** Symmetrised Forces ********************************
 *                                                                                  *
 *                           Cartesian components (eV/A)                            *
 * -------------------------------------------------------------------------------- *
 *                         x                    y                    z              *
 *                                                                                  *
 * H               1      0.00000              0.00000             -0.00000         *
 * H               2     -0.00000              0.00000             -0.00000         *
 * H               3      0.00000             -0.00000             -0.00000         *
 * H               4     -0.00000             -0.00000             -0.00000         *
 * H               5      0.00000             -0.00000             -0.00000         *
 * H               6     -0.00000             -0.00000              0.00000         *
 * H               7      0.00000              0.00000             -0.00000         *
 * H               8     -0.00000              0.00000              0.00000         *
 * H               9      0.00000              0.00000             -0.00000         *
 * H              10     -0.00000              0.00000             -0.00000         *
 * H              11      0.00000             -0.00000             -0.00000         *
 * H              12     -0.00000             -0.00000             -0.00000         *
 * H              13      0.00000              0.00000              0.00000         *
 * H              14     -0.00000             -0.00000              0.00000         *
 * H              15      0.00000             -0.00000             -0.00000         *
 * H              16     -0.00000              0.00000              0.00000         *
 *                                                                                  *
 ************************************************************************************

 *********** Symmetrised Stress Tensor ***********
 *                                               *
 *          Cartesian components (GPa)           *
 * --------------------------------------------- *
 *             x             y             z     *
 *                                               *
 *  x    -80.999998     -0.000000      0.000000  *
 *  y     -0.000000    -81.000008      0.000000  *
 *  z      0.000000      0.000000    -80.999998  *
 *                                               *
 *  Pressure:   81.0000                          *
 *                                               *
 *************************************************

 Pseudo atomic calculation performed for H 1s1

 Converged in 24 iterations to a total energy of -12.4843 eV

Charge spilling parameter for spin component 1 = 0.57%

            Orbital Populations       
     Ion    Atom   Orbital             Charge
  -------------------------------------------
      H     1      S                    1.004
      H     2      S                    1.003
      H     3      S                    1.003
      H     4      S                    1.004
      H     5      S                    0.997
      H     6      S                    0.997
      H     7      S                    0.997
      H     8      S                    0.997
      H     9      S                    1.004
      H    10      S                    1.003
      H    11      S                    1.003
      H    12      S                    1.004
      H    13      S                    0.997
      H    14      S                    0.997
      H    15      S                    0.997
      H    16      S                    0.997
  -------------------------------------------
                           Total:      16.000
  -------------------------------------------

     Atomic Populations (Mulliken)
     -----------------------------
Species          Ion     s      p      d      f     Total  Charge (e)
=====================================================================
  H               1     1.00   0.00   0.00   0.00   1.00    -0.00
  H               2     1.00   0.00   0.00   0.00   1.00    -0.00
  H               3     1.00   0.00   0.00   0.00   1.00    -0.00
  H               4     1.00   0.00   0.00   0.00   1.00    -0.00
  H               5     1.00   0.00   0.00   0.00   1.00     0.00
  H               6     1.00   0.00   0.00   0.00   1.00     0.00
  H               7     1.00   0.00   0.00   0.00   1.00     0.00
  H               8     1.00   0.00   0.00   0.00   1.00     0.00
  H               9     1.00   0.00   0.00   0.00   1.00    -0.00
  H              10     1.00   0.00   0.00   0.00   1.00    -0.00
  H              11     1.00   0.00   0.00   0.00   1.00    -0.00
  H              12     1.00   0.00   0.00   0.00   1.00    -0.00
  H              13     1.00   0.00   0.00   0.00   1.00     0.00
  H              14     1.00   0.00   0.00   0.00   1.00     0.00
  H              15     1.00   0.00   0.00   0.00   1.00     0.00
  H              16     1.00   0.00   0.00   0.00   1.00     0.00
=====================================================================

                 Bond                   Population      Length (A)
======================================================================
              H 2  -- H 3                    1.43        0.73054
              H 1  -- H 4                    1.43        0.73054
              H 10 -- H 11                   1.43        0.73054
              H 9  -- H 12                   1.43        0.73054
              H 6  -- H 7                    1.27        0.74661
              H 5  -- H 8                    1.27        0.74661
              H 14 -- H 15                   1.27        0.74661
              H 13 -- H 16                   1.27        0.74661
              H 8  -- H 15                  -0.10        1.33003
              H 7  -- H 16                  -0.10        1.33003
              H 6  -- H 13                  -0.10        1.33003
              H 5  -- H 14                  -0.10        1.33003
              H 4  -- H 11                  -0.31        1.47954
              H 2  -- H 9                   -0.31        1.47954
              H 3  -- H 12                  -0.31        1.47954
              H 1  -- H 10                  -0.31        1.47954
              H 4  -- H 10                  -0.42        1.65579
              H 3  -- H 9                   -0.42        1.65579
              H 2  -- H 12                  -0.42        1.65579
              H 1  -- H 11                  -0.42        1.65579
              H 4  -- H 8                   -0.16        1.73148
              H 3  -- H 7                   -0.16        1.73148
              H 10 -- H 14                  -0.16        1.73148
              H 9  -- H 13                  -0.16        1.73148
              H 2  -- H 6                   -0.16        1.73148
              H 1  -- H 5                   -0.16        1.73148
              H 12 -- H 16                  -0.16        1.73148
              H 11 -- H 15                  -0.16        1.73148
              H 4  -- H 6                   -0.16        1.73148
              H 3  -- H 5                   -0.16        1.73148
              H 2  -- H 8                   -0.16        1.73148
              H 1  -- H 7                   -0.16        1.73148
              H 12 -- H 14                  -0.16        1.73148
              H 11 -- H 13                  -0.16        1.73148
              H 10 -- H 16                  -0.16        1.73148
              H 9  -- H 15                  -0.16        1.73148
              H 3  -- H 16                  -0.02        1.81522
              H 1  -- H 14                  -0.02        1.81522
              H 4  -- H 15                  -0.02        1.81522
              H 2  -- H 13                  -0.02        1.81522
              H 1  -- H 16                  -0.02        1.81522
              H 4  -- H 13                  -0.02        1.81522
              H 3  -- H 14                  -0.02        1.81522
              H 2  -- H 15                  -0.02        1.81522
              H 8  -- H 9                   -0.02        1.81522
              H 7  -- H 10                  -0.02        1.81522
              H 6  -- H 11                  -0.02        1.81522
              H 5  -- H 12                  -0.02        1.81522
              H 7  -- H 12                  -0.02        1.81522
              H 8  -- H 11                  -0.02        1.81522
              H 6  -- H 9                   -0.02        1.81522
              H 5  -- H 10                  -0.02        1.81522
              H 4  -- H 5                   -0.18        1.84047
              H 3  -- H 6                   -0.18        1.84047
              H 2  -- H 7                   -0.18        1.84047
              H 1  -- H 8                   -0.18        1.84047
              H 4  -- H 7                   -0.18        1.84047
              H 3  -- H 8                   -0.18        1.84047
              H 2  -- H 5                   -0.18        1.84047
              H 1  -- H 6                   -0.18        1.84047
              H 12 -- H 13                  -0.18        1.84047
              H 11 -- H 14                  -0.18        1.84047
              H 10 -- H 15                  -0.18        1.84047
              H 9  -- H 16                  -0.18        1.84047
              H 12 -- H 15                  -0.18        1.84047
              H 11 -- H 16                  -0.18        1.84047
              H 10 -- H 13                  -0.18        1.84047
              H 9  -- H 14                  -0.18        1.84047
              H 8  -- H 14                  -0.51        1.88447
              H 7  -- H 13                  -0.51        1.88447
              H 6  -- H 16                  -0.51        1.88447
              H 5  -- H 15                  -0.51        1.88447
======================================================================


Writing analysis data to Hibam.castep_bin

Writing model to Hibam.check
 
 A BibTeX formatted list of references used in this run has been written to 
 Hibam.bib
 
Initialisation time =      2.53 s
Calculation time    =    284.62 s
Finalisation time   =      1.70 s
Total time          =    288.85 s
Peak Memory Use     = 522920 kB
  
Overall parallel efficiency rating: Excellent (91%)                             
  
Data was distributed by:-
k-point (16-way); efficiency rating: Excellent (92%)                            
  
Parallel notes:
1) Calculation only took 287.2 s, so efficiency estimates may be inaccurate.    
