 +-------------------------------------------------+
 |                                                 |
 |      CCC   AA    SSS  TTTTT  EEEEE  PPPP        |
 |     C     A  A  S       T    E      P   P       |
 |     C     AAAA   SS     T    EEE    PPPP        |
 |     C     A  A     S    T    E      P           |
 |      CCC  A  A  SSS     T    EEEEE  P           |
 |                                                 |
 +-------------------------------------------------+
 |                                                 |
 | Welcome to Academic Release CASTEP version 18.1 |          
 | Ab Initio Total Energy Program                  |
 |                                                 |
 | Authors:                                        |
 | M. Segall, M. Probert, C. Pickard, P. Hasnip,   |
 | S. Clark, K. Refson, J. R. Yates, M. Payne      |
 |                                                 |
 | Contributors:                                   |
 | P. Lindan, P. Haynes, J. White, V. Milman,      |
 | N. Govind, M. Gibson, P. Tulip, V. Cocula,      |
 | B. Montanari, D. Quigley, M. Glover,            |
 | L. Bernasconi, A. Perlov, M. Plummer,           |
 | E. McNellis, J. Meyer, J. Gale, D. Jochym       |
 | J. Aarons, B. Walker, R. Gillen, D. Jones       |
 | T. Green, I. J. Bush, C. J. Armstrong,          |
 | E. J. Higgins, E. L. Brown, M. S. McFly,        |
 | J. Wilkins, B-C. Shih, P. J. P. Byrne           |
 |                                                 |
 | Copyright (c) 2000 - 2017                       |
 |                                                 |
 |     Distributed under the terms of an           |
 |     Agreement between the United Kingdom        |
 |     Car-Parrinello (UKCP) Consortium,           |
 |     Daresbury Laboratory and Accelrys, Inc.     |
 |                                                 |
 | Please cite                                     |
 |                                                 |
 |     "First principles methods using CASTEP"     |
 |                                                 |
 |         Zeitschrift fuer Kristallographie       |
 |           220(5-6) pp. 567-570 (2005)           |
 |                                                 |
 | S. J. Clark, M. D. Segall, C. J. Pickard,       |
 | P. J. Hasnip, M. J. Probert, K. Refson,         |
 | M. C. Payne                                     |
 |                                                 |
 |       in all publications arising from          |
 |              your use of CASTEP                 |
 |                                                 |
 +-------------------------------------------------+


 Compiled for linux_x86_64_gfortran4.8 on Thu, 19 Jul 2018 15:42:32 +0100
 from code version 70483bd0ad64+  Sun, 10 Dec 2017 12:18:29 +0000
 Compiler: GNU Fortran 4.8.5; Optimisation: fast
 MATHLIBS: Intel MKL(2018.0.0) (LAPACK version 3.7.0)
 FFT Lib : mkl
 Fundamental constants values: CODATA 2014

 Run started: Fri, 21 Aug 2020 12:25:16 +0100

 Atomic calculation performed for H: 1s1

 Converged in 41 iterations to an ae energy of -12.488 eV

   ============================================================                
   | Pseudopotential Report - Date of generation 21-08-2020   |                
   ------------------------------------------------------------                
   | Element: H Ionic charge:  1.00 Level of theory: PBE      |                
   | Atomic Solver: Koelling-Harmon                           |                
   |                                                          |                
   |               Reference Electronic Structure             |                
   |         Orbital         Occupation         Energy        |                
   |            1s              1.000           -0.239        |                
   |                                                          |                
   |                 Pseudopotential Definition               |                
   |        Beta     l      e      Rc     scheme   norm       |                
   |         loc     0   -0.239   0.702     qc      1         |                
   |                                                          |                
   | No charge augmentation                                   |                
   | No partial core correction                               |                
   ------------------------------------------------------------                
   | "0|0.7|2|6|8|10L(qc=10)"                                 |                
   ------------------------------------------------------------                
   |      Author: Chris J. Pickard, Cambridge University      |                
   ============================================================                

 Pseudo atomic calculation performed for H 1s1

 Converged in 24 iterations to a total energy of -12.4843 eV

 Calculation parallelised over 16 processes.
 Data is distributed by k-point(16-way)

 ************************************ Title ************************************
 

 ***************************** General Parameters ******************************
  
 output verbosity                               : normal  (1)
 write checkpoint data to                       : Hibam.check
 type of calculation                            : geometry optimization
 stress calculation                             : on
 density difference calculation                 : off
 electron localisation func (ELF) calculation   : off
 Hirshfeld analysis                             : off
 unlimited duration calculation
 timing information                             : on
 memory usage estimate                          : on
 write extra output files                       : on
 write final potential to formatted file        : off
 write final density to formatted file          : off
 write structure in CELL formatted file         : on
 write BibTeX reference list                    : on
 write OTFG pseudopotential files               : on
 write electrostatic potential file             : on
 write bands file                               : on
 checkpoint writing                             : both castep_bin and check files
  
 output         length unit                     : A
 output           mass unit                     : amu
 output           time unit                     : ps
 output         charge unit                     : e
 output           spin unit                     : hbar/2
 output         energy unit                     : eV
 output          force unit                     : eV/A
 output       velocity unit                     : A/ps
 output       pressure unit                     : GPa
 output     inv_length unit                     : 1/A
 output      frequency unit                     : cm-1
 output force constant unit                     : eV/A**2
 output         volume unit                     : A**3
 output   IR intensity unit                     : (D/A)**2/amu
 output         dipole unit                     : D
 output         efield unit                     : eV/A/e
 output        entropy unit                     : J/mol/K
  
 wavefunctions paging                           : none
 random number generator seed                   : randomised (122516986)
 data distribution                              : optimal for this architecture
 optimization strategy                          : maximize speed(+++)

 *********************** Exchange-Correlation Parameters ***********************
  
 using functional                               : Perdew Burke Ernzerhof
 relativistic treatment                         : Koelling-Harmon
 DFT+D: Semi-empirical dispersion correction    : off

 ************************* Pseudopotential Parameters **************************
  
 pseudopotential representation                 : reciprocal space
 <beta|phi> representation                      : reciprocal space
 spin-orbit coupling                            : off

 **************************** Basis Set Parameters *****************************
  
 plane wave basis set cut-off                   :  1200.0000   eV
 size of standard grid                          :     2.0000
 size of   fine   gmax                          :    35.4943   1/A
 finite basis set correction                    : automatic
 number of sample energies                      :          3
           sample  spacing                      :     5.0000   eV

 **************************** Electronic Parameters ****************************
  
 number of  electrons                           :  16.00    
 net charge of system                           :  0.000    
 treating system as non-spin-polarized
 number of bands                                :          8

 ********************* Electronic Minimization Parameters **********************
  
 Method: Treating system as non-metallic,
         and number of  SD  steps               :          1
         and number of  CG  steps               :          4
  
 total energy / atom convergence tol.           : 0.1000E-10   eV
 eigen-energy convergence tolerance             : 0.2000E-10   eV
 max force / atom convergence tol.              : ignored
 convergence tolerance window                   :          3   cycles
 max. number of SCF cycles                      :        100
 periodic dipole correction                     : NONE

 ************************** Density Mixing Parameters **************************
  
 density-mixing scheme                          : Broyden
 max. length of mixing history                  :         20
 charge density mixing amplitude                : 0.8000    
 cut-off energy for mixing                      :  1200.       eV

 *********************** Population Analysis Parameters ************************
  
 Population analysis with cutoff                :  3.000       A
 Population analysis output                     : summary and pdos components

 ********************** Geometry Optimization Parameters ***********************
  
 optimization method                            : LBFGS
 max. no. of LBFGS updates                      : unbounded
 variable cell method                           : fixed basis quality
 max. number of steps                           :         60
 estimated bulk modulus                         :  500.0       GPa
 estimated <frequency>                          :  1668.       cm-1
 geom line minimiser                            : on
 with line minimiser tolerance                  :     0.4000
 total energy convergence tolerance             : 0.1000E-08   eV/atom
        max ionic |force| tolerance             : 0.1000E-04   eV/A
 max ionic |displacement| tolerance             : 0.1000E-04   A
   max |stress component| tolerance             : 0.1000E-04   GPa
 convergence tolerance window                   :          2   steps
 backup results every                           :      14400   seconds
 write geom trajectory file                     : on

 *******************************************************************************
  

                           -------------------------------
                                      Unit Cell
                           -------------------------------
        Real Lattice(A)                      Reciprocal Lattice(1/A)
     3.0711753    -0.0000000     0.0000000        2.045856973   0.000000000   0.000000000
    -0.0000000     1.8972295     0.0000000        0.000000000   3.311768674   0.000000000
     0.0000000     0.0000000     5.8770491        0.000000000   0.000000000   1.069105464

                       Lattice parameters(A)       Cell Angles
                    a =      3.071175          alpha =   90.000000
                    b =      1.897230          beta  =   90.000000
                    c =      5.877049          gamma =   90.000000

                       Current cell volume =            34.243945       A**3
                                   density =             0.470946   AMU/A**3
                                           =             0.782024     g/cm^3

                           -------------------------------
                                     Cell Contents
                           -------------------------------
                         Total number of ions in cell =   16
                      Total number of species in cell =    1
                        Max number of any one species =   16

            xxxxxxxxxxxxxxxxxxxxxxxxxxxxxxxxxxxxxxxxxxxxxxxxxxxxxxxxxxxx
            x  Element    Atom        Fractional coordinates of atoms  x
            x            Number           u          v          w      x
            x----------------------------------------------------------x
            x  H            1         0.400649   0.391171   0.000000   x 
            x  H            2        -0.400649   0.391171   0.500000   x 
            x  H            3         0.400649  -0.391171   0.500000   x 
            x  H            4        -0.400649  -0.391171   0.000000   x 
            x  H            5         0.371473   0.000000   0.250000   x 
            x  H            6        -0.371473  -0.000000   0.750000   x 
            x  H            7         0.371473  -0.000000   0.750000   x 
            x  H            8        -0.371473   0.000000   0.250000   x 
            x  H            9         0.900649   0.891171   0.500000   x 
            x  H           10        -0.900649   0.891171   0.000000   x 
            x  H           11         0.900649  -0.891171   0.000000   x 
            x  H           12        -0.900649  -0.891171   0.500000   x 
            x  H           13         0.871473   0.500000   0.750000   x 
            x  H           14        -0.871473   0.500000   0.250000   x 
            x  H           15         0.871473   0.500000   0.250000   x 
            x  H           16        -0.871473   0.500000   0.750000   x 
            xxxxxxxxxxxxxxxxxxxxxxxxxxxxxxxxxxxxxxxxxxxxxxxxxxxxxxxxxxxx


                         No user defined ionic velocities

                           -------------------------------
                                   Details of Species
                           -------------------------------

                               Mass of species in AMU
                                    H    1.0079400

                          Electric Quadrupole Moment (Barn)
                                    H    0.0028600 Isotope  2

                          Files used for pseudopotentials:
                                    H 0|0.7|2|6|8|10L(qc=10)

                           -------------------------------
                              k-Points For BZ Sampling
                           -------------------------------
                       MP grid size for SCF calculation is  8  8  8
                            with an offset of   0.000  0.000  0.000
                       Number of kpoints used =            64

                           -------------------------------
                               Symmetry and Constraints
                           -------------------------------

                      Cell is a supercell containing 2 primitive cells
                      Maximum deviation from symmetry = 0.306872E-14     ANG

                      Number of symmetry operations   =          16
                      Number of ionic constraints     =           3
                      Point group of crystal =     8: D2h, mmm, 2/m 2/m 2/m
                      Space group of crystal =    72: Ibam, -I 2 2c

             Set iprint > 1 for details on symmetry rotations/translations

                         Centre of mass is constrained
             Set iprint > 1 for details of linear ionic constraints

                         Number of cell constraints= 3
                         Cell constraints are:  1 2 3 0 0 0

                         External pressure/stress (GPa)
                         98.00000   0.00000   0.00000
                                   98.00000   0.00000
                                             98.00000
  
+---------------- MEMORY AND SCRATCH DISK ESTIMATES PER PROCESS --------------+
|                                                     Memory          Disk    |
| Baseline code, static data and system overhead      415.0 MB         0.0 MB |
| BLAS internal memory storage                          0.0 MB         0.0 MB |
| Model and support data                               38.5 MB         0.0 MB |
| Electronic energy minimisation requirements          16.8 MB         0.0 MB |
| Force calculation requirements                        7.1 MB         0.0 MB |
| Stress calculation requirements                       9.0 MB         0.0 MB |
|                                               ----------------------------- |
| Approx. total storage required per process          470.3 MB         0.0 MB |
|                                                                             |
| Requirements will fluctuate during execution and may exceed these estimates |
+-----------------------------------------------------------------------------+
Calculating finite basis set correction with  3 cut-off energies.
Calculating total energy with cut-off of 1190.000 eV.
------------------------------------------------------------------------ <-- SCF
SCF loop      Energy                           Energy gain       Timer   <-- SCF
                                               per atom          (sec)   <-- SCF
------------------------------------------------------------------------ <-- SCF
Initial   3.87040173E+002                                          3.70  <-- SCF
      1  -1.98939987E+002                    3.66237600E+001       4.45  <-- SCF
      2  -2.39641699E+002                    2.54385698E+000       4.96  <-- SCF
      3  -2.39833125E+002                    1.19641560E-002       5.90  <-- SCF
      4  -2.39813727E+002                   -1.21242151E-003       6.84  <-- SCF
      5  -2.39814448E+002                    4.51104092E-005       7.79  <-- SCF
      6  -2.39814508E+002                    3.74293609E-006       8.72  <-- SCF
      7  -2.39814509E+002                    2.55257033E-008       9.66  <-- SCF
      8  -2.39814509E+002                    6.07063016E-010      10.60  <-- SCF
      9  -2.39814509E+002                    2.13529279E-011      11.34  <-- SCF
     10  -2.39814509E+002                    1.17821758E-012      12.05  <-- SCF
     11  -2.39814509E+002                    4.95455600E-013      12.76  <-- SCF
------------------------------------------------------------------------ <-- SCF
 
Final energy =  -239.8145087812     eV
(energy not corrected for finite basis set)
 
Calculating total energy with cut-off of 1195.000 eV.
------------------------------------------------------------------------ <-- SCF
SCF loop      Energy                           Energy gain       Timer   <-- SCF
                                               per atom          (sec)   <-- SCF
------------------------------------------------------------------------ <-- SCF
Initial  -2.39814509E+002                                         13.40  <-- SCF
      1  -2.39815743E+002                    7.71503998E-005      13.98  <-- SCF
      2  -2.39815743E+002                    1.29854683E-010      14.88  <-- SCF
      3  -2.39815744E+002                    3.11538131E-008      15.80  <-- SCF
      4  -2.39815744E+002                    1.65903912E-009      16.72  <-- SCF
      5  -2.39815744E+002                    1.02625773E-011      17.45  <-- SCF
      6  -2.39815744E+002                    1.23259686E-012      18.17  <-- SCF
      7  -2.39815744E+002                   -1.75222102E-013      18.88  <-- SCF
------------------------------------------------------------------------ <-- SCF
 
Final energy =  -239.8157437149     eV
(energy not corrected for finite basis set)
 
Calculating total energy with cut-off of 1200.000 eV.
------------------------------------------------------------------------ <-- SCF
SCF loop      Energy                           Energy gain       Timer   <-- SCF
                                               per atom          (sec)   <-- SCF
------------------------------------------------------------------------ <-- SCF
Initial  -2.39815744E+002                                         19.53  <-- SCF
      1  -2.39816905E+002                    7.25828525E-005      20.11  <-- SCF
      2  -2.39816905E+002                    1.25718837E-010      21.02  <-- SCF
      3  -2.39816905E+002                    2.84172758E-008      21.92  <-- SCF
      4  -2.39816906E+002                    1.49173826E-009      22.83  <-- SCF
      5  -2.39816906E+002                    8.95143257E-012      23.56  <-- SCF
      6  -2.39816906E+002                    2.47727800E-013      24.28  <-- SCF
------------------------------------------------------------------------ <-- SCF
 
Final energy =  -239.8169055212     eV
(energy not corrected for finite basis set)
 
 For future reference: finite basis dEtot/dlog(Ecut) =      -0.283188eV
 Total energy corrected for finite basis set =    -239.816897 eV
 
+---------------- MEMORY AND SCRATCH DISK ESTIMATES PER PROCESS --------------+
|                                                     Memory          Disk    |
| Model and support data                               46.7 MB         0.0 MB |
| Electronic energy minimisation requirements          16.8 MB         0.0 MB |
| Geometry minimisation requirements                   19.5 MB         0.0 MB |
|                                               ----------------------------- |
| Approx. total storage required per process           83.0 MB         0.0 MB |
|                                                                             |
| Requirements will fluctuate during execution and may exceed these estimates |
+-----------------------------------------------------------------------------+
 

 ******************************** Symmetrised Forces ********************************
 *                                                                                  *
 *                           Cartesian components (eV/A)                            *
 * -------------------------------------------------------------------------------- *
 *                         x                    y                    z              *
 *                                                                                  *
 * H               1      0.00000              0.00000              0.00000         *
 * H               2     -0.00000              0.00000              0.00000         *
 * H               3      0.00000             -0.00000              0.00000         *
 * H               4     -0.00000             -0.00000              0.00000         *
 * H               5      0.00000             -0.00000              0.00000         *
 * H               6     -0.00000             -0.00000              0.00000         *
 * H               7      0.00000             -0.00000              0.00000         *
 * H               8     -0.00000              0.00000              0.00000         *
 * H               9      0.00000              0.00000              0.00000         *
 * H              10     -0.00000              0.00000              0.00000         *
 * H              11      0.00000             -0.00000              0.00000         *
 * H              12     -0.00000             -0.00000              0.00000         *
 * H              13      0.00000              0.00000              0.00000         *
 * H              14     -0.00000             -0.00000              0.00000         *
 * H              15      0.00000              0.00000             -0.00000         *
 * H              16     -0.00000              0.00000              0.00000         *
 *                                                                                  *
 ************************************************************************************

 *********** Symmetrised Stress Tensor ***********
 *                                               *
 *          Cartesian components (GPa)           *
 * --------------------------------------------- *
 *             x             y             z     *
 *                                               *
 *  x   -114.987377      0.000000      0.000000  *
 *  y      0.000000   -114.987380      0.000000  *
 *  z      0.000000      0.000000   -114.987384  *
 *                                               *
 *  Pressure:  114.9874                          *
 *                                               *
 *************************************************
 LBFGS: finished iteration     0 with enthalpy= -2.18870975E+002 eV
  
 +-----------+-----------------+-----------------+------------+-----+ <-- LBFGS
 | Parameter |      value      |    tolerance    |    units   | OK? | <-- LBFGS
 +-----------+-----------------+-----------------+------------+-----+ <-- LBFGS
 |  dE/ion   |   0.000000E+000 |   1.000000E-009 |         eV | No  | <-- LBFGS
 |  |F|max   |   3.475535E-007 |   1.000000E-005 |       eV/A | Yes | <-- LBFGS
 |  |dR|max  |   0.000000E+000 |   1.000000E-005 |          A | No  | <-- LBFGS
 |   Smax    |   1.698738E+001 |   1.000000E-005 |        GPa | No  | <-- LBFGS
 +-----------+-----------------+-----------------+------------+-----+ <-- LBFGS
  

================================================================================
 Starting LBFGS iteration          1 ...
================================================================================
  
 +------------+-------------+-------------+-----------------+ <-- min LBFGS
 |    Step    |   lambda    |   F.delta'  |    enthalpy     | <-- min LBFGS
 +------------+-------------+-------------+-----------------+ <-- min LBFGS
 |  previous  |    0.000000 |    0.231105 |     -218.870975 | <-- min LBFGS
 +------------+-------------+-------------+-----------------+ <-- min LBFGS
  

--------------------------------------------------------------------------------
 LBFGS: starting iteration         1 with trial guess (lambda=  1.000000)
--------------------------------------------------------------------------------
 
+---------------- MEMORY AND SCRATCH DISK ESTIMATES PER PROCESS --------------+
|                                                     Memory          Disk    |
| Model and support data                               46.8 MB         0.0 MB |
| Electronic energy minimisation requirements          17.2 MB         0.0 MB |
| Geometry minimisation requirements                   19.9 MB         0.0 MB |
|                                               ----------------------------- |
| Approx. total storage required per process           83.9 MB         0.0 MB |
|                                                                             |
| Requirements will fluctuate during execution and may exceed these estimates |
+-----------------------------------------------------------------------------+
 

                           -------------------------------
                                      Unit Cell
                           -------------------------------
        Real Lattice(A)              Reciprocal Lattice(1/A)
     3.1059561    -0.0000000     0.0000000        2.022947261   0.000000000   0.000000000
    -0.0000000     1.9187155     0.0000000        0.000000000   3.274683149   0.000000000
     0.0000000     0.0000000     5.9436062        0.000000000   0.000000000   1.057133508

                       Lattice parameters(A)       Cell Angles
                    a =      3.105956          alpha =   90.000000
                    b =      1.918715          beta  =   90.000000
                    c =      5.943606          gamma =   90.000000

                Current cell volume =            35.420601 A**3

                           -------------------------------
                                     Cell Contents
                           -------------------------------

            xxxxxxxxxxxxxxxxxxxxxxxxxxxxxxxxxxxxxxxxxxxxxxxxxxxxxxxxxxxxxxxxx
            x  Element         Atom        Fractional coordinates of atoms  x
            x                 Number           u          v          w      x
            x---------------------------------------------------------------x
            x  H                 1         0.400649   0.391171   0.000000   x
            x  H                 2        -0.400649   0.391171   0.500000   x
            x  H                 3         0.400649  -0.391171   0.500000   x
            x  H                 4        -0.400649  -0.391171   0.000000   x
            x  H                 5         0.371473   0.000000   0.250000   x
            x  H                 6        -0.371473   0.000000   0.750000   x
            x  H                 7         0.371473   0.000000   0.750000   x
            x  H                 8        -0.371473   0.000000   0.250000   x
            x  H                 9         0.900649   0.891171   0.500000   x
            x  H                10        -0.900649   0.891171   0.000000   x
            x  H                11         0.900649  -0.891171   0.000000   x
            x  H                12        -0.900649  -0.891171   0.500000   x
            x  H                13         0.871473   0.500000   0.750000   x
            x  H                14        -0.871473   0.500000   0.250000   x
            x  H                15         0.871473   0.500000   0.250000   x
            x  H                16        -0.871473   0.500000   0.750000   x
            xxxxxxxxxxxxxxxxxxxxxxxxxxxxxxxxxxxxxxxxxxxxxxxxxxxxxxxxxxxxxxxxx


------------------------------------------------------------------------ <-- SCF
SCF loop      Energy                           Energy gain       Timer   <-- SCF
                                               per atom          (sec)   <-- SCF
------------------------------------------------------------------------ <-- SCF
Initial  -2.40596409E+002                                         26.54  <-- SCF
      1  -2.40617628E+002                    1.32619119E-003      27.13  <-- SCF
      2  -2.40617745E+002                    7.33662236E-006      28.08  <-- SCF
      3  -2.40617342E+002                   -2.51710896E-005      29.02  <-- SCF
      4  -2.40617332E+002                   -6.16986432E-007      29.95  <-- SCF
      5  -2.40617333E+002                    2.80578047E-008      30.88  <-- SCF
      6  -2.40617333E+002                    2.64300790E-009      31.82  <-- SCF
      7  -2.40617333E+002                    7.44996042E-012      32.54  <-- SCF
      8  -2.40617333E+002                    7.64330895E-013      33.26  <-- SCF
------------------------------------------------------------------------ <-- SCF
 
Final energy =  -240.6173328950     eV
(energy not corrected for finite basis set)
 

 ******************************** Symmetrised Forces ********************************
 *                                                                                  *
 *                           Cartesian components (eV/A)                            *
 * -------------------------------------------------------------------------------- *
 *                         x                    y                    z              *
 *                                                                                  *
 * H               1      0.18815              0.12985             -0.00000         *
 * H               2     -0.18815              0.12985             -0.00000         *
 * H               3      0.18815             -0.12985             -0.00000         *
 * H               4     -0.18815             -0.12985             -0.00000         *
 * H               5      0.18406              0.00000             -0.00000         *
 * H               6     -0.18406              0.00000             -0.00000         *
 * H               7      0.18406              0.00000              0.00000         *
 * H               8     -0.18406              0.00000             -0.00000         *
 * H               9      0.18815              0.12985             -0.00000         *
 * H              10     -0.18815              0.12985             -0.00000         *
 * H              11      0.18815             -0.12985             -0.00000         *
 * H              12     -0.18815             -0.12985             -0.00000         *
 * H              13      0.18406              0.00000             -0.00000         *
 * H              14     -0.18406              0.00000             -0.00000         *
 * H              15      0.18406              0.00000              0.00000         *
 * H              16     -0.18406              0.00000             -0.00000         *
 *                                                                                  *
 ************************************************************************************

 *********** Symmetrised Stress Tensor ***********
 *                                               *
 *          Cartesian components (GPa)           *
 * --------------------------------------------- *
 *             x             y             z     *
 *                                               *
 *  x    -99.782066     -0.000000      0.000000  *
 *  y     -0.000000   -104.150427      0.000000  *
 *  z      0.000000      0.000000   -105.922260  *
 *                                               *
 *  Pressure:  103.2849                          *
 *                                               *
 *************************************************
  
 +------------+-------------+-------------+-----------------+ <-- min LBFGS
 |    Step    |   lambda    |   F.delta'  |    enthalpy     | <-- min LBFGS
 +------------+-------------+-------------+-----------------+ <-- min LBFGS
 |  previous  |    0.000000 |    0.231105 |     -218.870975 | <-- min LBFGS
 | trial step |    1.000000 |    0.073537 |     -218.951704 | <-- min LBFGS
 +------------+-------------+-------------+-----------------+ <-- min LBFGS
  

--------------------------------------------------------------------------------
 LBFGS: improving iteration         1 with line minimization (lambda=  1.466696)
--------------------------------------------------------------------------------
 
+---------------- MEMORY AND SCRATCH DISK ESTIMATES PER PROCESS --------------+
|                                                     Memory          Disk    |
| Model and support data                               46.8 MB         0.0 MB |
| Electronic energy minimisation requirements          17.4 MB         0.0 MB |
| Geometry minimisation requirements                   20.1 MB         0.0 MB |
|                                               ----------------------------- |
| Approx. total storage required per process           84.3 MB         0.0 MB |
|                                                                             |
| Requirements will fluctuate during execution and may exceed these estimates |
+-----------------------------------------------------------------------------+
 

                           -------------------------------
                                      Unit Cell
                           -------------------------------
        Real Lattice(A)              Reciprocal Lattice(1/A)
     3.1221881    -0.0000000     0.0000000        2.012430081   0.000000000   0.000000000
    -0.0000000     1.9287429     0.0000000        0.000000000   3.257658267   0.000000000
     0.0000000     0.0000000     5.9746682        0.000000000   0.000000000   1.051637533

                       Lattice parameters(A)       Cell Angles
                    a =      3.122188          alpha =   90.000000
                    b =      1.928743          beta  =   90.000000
                    c =      5.974668          gamma =   90.000000

                Current cell volume =            35.978844 A**3

                           -------------------------------
                                     Cell Contents
                           -------------------------------

            xxxxxxxxxxxxxxxxxxxxxxxxxxxxxxxxxxxxxxxxxxxxxxxxxxxxxxxxxxxxxxxxx
            x  Element         Atom        Fractional coordinates of atoms  x
            x                 Number           u          v          w      x
            x---------------------------------------------------------------x
            x  H                 1         0.400649   0.391171   0.000000   x
            x  H                 2        -0.400649   0.391171   0.500000   x
            x  H                 3         0.400649  -0.391171   0.500000   x
            x  H                 4        -0.400649  -0.391171   0.000000   x
            x  H                 5         0.371473   0.000000   0.250000   x
            x  H                 6        -0.371473   0.000000   0.750000   x
            x  H                 7         0.371473   0.000000   0.750000   x
            x  H                 8        -0.371473   0.000000   0.250000   x
            x  H                 9         0.900649   0.891171   0.500000   x
            x  H                10        -0.900649   0.891171   0.000000   x
            x  H                11         0.900649  -0.891171   0.000000   x
            x  H                12        -0.900649  -0.891171   0.500000   x
            x  H                13         0.871473   0.500000   0.750000   x
            x  H                14        -0.871473   0.500000   0.250000   x
            x  H                15         0.871473   0.500000   0.250000   x
            x  H                16        -0.871473   0.500000   0.750000   x
            xxxxxxxxxxxxxxxxxxxxxxxxxxxxxxxxxxxxxxxxxxxxxxxxxxxxxxxxxxxxxxxxx


------------------------------------------------------------------------ <-- SCF
SCF loop      Energy                           Energy gain       Timer   <-- SCF
                                               per atom          (sec)   <-- SCF
------------------------------------------------------------------------ <-- SCF
Initial  -2.40962070E+002                                         35.51  <-- SCF
      1  -2.40968116E+002                    3.77873618E-004      36.09  <-- SCF
      2  -2.40968149E+002                    2.06164701E-006      37.04  <-- SCF
      3  -2.40968060E+002                   -5.56680542E-006      37.99  <-- SCF
      4  -2.40968057E+002                   -1.33376805E-007      38.92  <-- SCF
      5  -2.40968058E+002                    6.31998631E-009      39.86  <-- SCF
      6  -2.40968058E+002                    5.94679647E-010      40.79  <-- SCF
      7  -2.40968058E+002                    2.19027628E-012      41.50  <-- SCF
      8  -2.40968058E+002                   -7.09951621E-013      42.21  <-- SCF
------------------------------------------------------------------------ <-- SCF
 
Final energy =  -240.9680575791     eV
(energy not corrected for finite basis set)
 

 ******************************** Symmetrised Forces ********************************
 *                                                                                  *
 *                           Cartesian components (eV/A)                            *
 * -------------------------------------------------------------------------------- *
 *                         x                    y                    z              *
 *                                                                                  *
 * H               1      0.27327              0.18842             -0.00000         *
 * H               2     -0.27327              0.18842             -0.00000         *
 * H               3      0.27327             -0.18842             -0.00000         *
 * H               4     -0.27327             -0.18842             -0.00000         *
 * H               5      0.26730             -0.00000             -0.00000         *
 * H               6     -0.26730             -0.00000             -0.00000         *
 * H               7      0.26730             -0.00000              0.00000         *
 * H               8     -0.26730              0.00000              0.00000         *
 * H               9      0.27327              0.18842             -0.00000         *
 * H              10     -0.27327              0.18842             -0.00000         *
 * H              11      0.27327             -0.18842             -0.00000         *
 * H              12     -0.27327             -0.18842             -0.00000         *
 * H              13      0.26730             -0.00000              0.00000         *
 * H              14     -0.26730              0.00000             -0.00000         *
 * H              15      0.26730             -0.00000              0.00000         *
 * H              16     -0.26730             -0.00000             -0.00000         *
 *                                                                                  *
 ************************************************************************************

 *********** Symmetrised Stress Tensor ***********
 *                                               *
 *          Cartesian components (GPa)           *
 * --------------------------------------------- *
 *             x             y             z     *
 *                                               *
 *  x    -93.144214     -0.000000      0.000000  *
 *  y     -0.000000    -99.423930      0.000000  *
 *  z      0.000000      0.000000   -101.959330  *
 *                                               *
 *  Pressure:   98.1758                          *
 *                                               *
 *************************************************
  
 +------------+-------------+-------------+-----------------+ <-- min LBFGS
 |    Step    |   lambda    |   F.delta'  |    enthalpy     | <-- min LBFGS
 +------------+-------------+-------------+-----------------+ <-- min LBFGS
 |  previous  |    0.000000 |    0.231105 |     -218.870975 | <-- min LBFGS
 | trial step |    1.000000 |    0.073537 |     -218.951704 | <-- min LBFGS
 |  line step |    1.466696 |    0.002472 |     -218.960977 | <-- min LBFGS
 +------------+-------------+-------------+-----------------+ <-- min LBFGS
  
 LBFGS: finished iteration     1 with enthalpy= -2.18960977E+002 eV
  
 +-----------+-----------------+-----------------+------------+-----+ <-- LBFGS
 | Parameter |      value      |    tolerance    |    units   | OK? | <-- LBFGS
 +-----------+-----------------+-----------------+------------+-----+ <-- LBFGS
 |  dE/ion   |   5.625107E-003 |   1.000000E-009 |         eV | No  | <-- LBFGS
 |  |F|max   |   3.319318E-001 |   1.000000E-005 |       eV/A | No  | <-- LBFGS
 |  |dR|max  |   5.026240E-008 |   1.000000E-005 |          A | Yes | <-- LBFGS
 |   Smax    |   4.855786E+000 |   1.000000E-005 |        GPa | No  | <-- LBFGS
 +-----------+-----------------+-----------------+------------+-----+ <-- LBFGS
  

================================================================================
 Starting LBFGS iteration          2 ...
================================================================================
  
 +------------+-------------+-------------+-----------------+ <-- min LBFGS
 |    Step    |   lambda    |   F.delta'  |    enthalpy     | <-- min LBFGS
 +------------+-------------+-------------+-----------------+ <-- min LBFGS
 |  previous  |    0.000000 |    0.110624 |     -218.960977 | <-- min LBFGS
 +------------+-------------+-------------+-----------------+ <-- min LBFGS
  

--------------------------------------------------------------------------------
 LBFGS: starting iteration         2 with trial guess (lambda=  1.000000)
--------------------------------------------------------------------------------
 
+---------------- MEMORY AND SCRATCH DISK ESTIMATES PER PROCESS --------------+
|                                                     Memory          Disk    |
| Model and support data                               47.0 MB         0.0 MB |
| Electronic energy minimisation requirements          17.9 MB         0.0 MB |
| Geometry minimisation requirements                   20.7 MB         0.0 MB |
|                                               ----------------------------- |
| Approx. total storage required per process           85.5 MB         0.0 MB |
|                                                                             |
| Requirements will fluctuate during execution and may exceed these estimates |
+-----------------------------------------------------------------------------+
 

                           -------------------------------
                                      Unit Cell
                           -------------------------------
        Real Lattice(A)              Reciprocal Lattice(1/A)
     3.1557432    -0.0000000     0.0000000        1.991031850   0.000000000   0.000000000
    -0.0000000     1.9577692     0.0000000        0.000000000   3.209359500   0.000000000
     0.0000000     0.0000000     6.0749606        0.000000000   0.000000000   1.034275893

                       Lattice parameters(A)       Cell Angles
                    a =      3.155743          alpha =   90.000000
                    b =      1.957769          beta  =   90.000000
                    c =      6.074961          gamma =   90.000000

                Current cell volume =            37.532425 A**3

                           -------------------------------
                                     Cell Contents
                           -------------------------------

            xxxxxxxxxxxxxxxxxxxxxxxxxxxxxxxxxxxxxxxxxxxxxxxxxxxxxxxxxxxxxxxxx
            x  Element         Atom        Fractional coordinates of atoms  x
            x                 Number           u          v          w      x
            x---------------------------------------------------------------x
            x  H                 1         0.409517   0.401069   0.000000   x
            x  H                 2        -0.409517   0.401069   0.500000   x
            x  H                 3         0.409517  -0.401069   0.500000   x
            x  H                 4        -0.409517  -0.401069   0.000000   x
            x  H                 5         0.380148  -0.000000   0.250000   x
            x  H                 6        -0.380148   0.000000   0.750000   x
            x  H                 7         0.380148   0.000000   0.750000   x
            x  H                 8        -0.380148   0.000000   0.250000   x
            x  H                 9         0.909517   0.901069   0.500000   x
            x  H                10        -0.909517   0.901069   0.000000   x
            x  H                11         0.909517  -0.901069   0.000000   x
            x  H                12        -0.909517  -0.901069   0.500000   x
            x  H                13         0.880148   0.500000   0.750000   x
            x  H                14        -0.880148   0.500000   0.250000   x
            x  H                15         0.880148   0.500000   0.250000   x
            x  H                16        -0.880148   0.500000   0.750000   x
            xxxxxxxxxxxxxxxxxxxxxxxxxxxxxxxxxxxxxxxxxxxxxxxxxxxxxxxxxxxxxxxxx


------------------------------------------------------------------------ <-- SCF
SCF loop      Energy                           Energy gain       Timer   <-- SCF
                                               per atom          (sec)   <-- SCF
------------------------------------------------------------------------ <-- SCF
Initial  -2.40211134E+002                                         44.45  <-- SCF
      1  -2.41913786E+002                    1.06415749E-001      45.05  <-- SCF
      2  -2.41920788E+002                    4.37681956E-004      45.98  <-- SCF
      3  -2.41794712E+002                   -7.87979383E-003      46.91  <-- SCF
      4  -2.41789728E+002                   -3.11514311E-004      47.85  <-- SCF
      5  -2.41789759E+002                    1.93955871E-006      48.79  <-- SCF
      6  -2.41789761E+002                    1.67383155E-007      49.74  <-- SCF
      7  -2.41789761E+002                    1.52677664E-009      50.68  <-- SCF
      8  -2.41789761E+002                    7.37896526E-011      51.41  <-- SCF
      9  -2.41789761E+002                    1.95765383E-012      52.12  <-- SCF
     10  -2.41789761E+002                    1.81264244E-014      52.83  <-- SCF
------------------------------------------------------------------------ <-- SCF
 
Final energy =  -241.7897612952     eV
(energy not corrected for finite basis set)
 

 ******************************** Symmetrised Forces ********************************
 *                                                                                  *
 *                           Cartesian components (eV/A)                            *
 * -------------------------------------------------------------------------------- *
 *                         x                    y                    z              *
 *                                                                                  *
 * H               1     -1.32543             -0.95863             -0.00000         *
 * H               2      1.32543             -0.95863             -0.00000         *
 * H               3     -1.32543              0.95863             -0.00000         *
 * H               4      1.32543              0.95863             -0.00000         *
 * H               5     -0.12172              0.00000             -0.00000         *
 * H               6      0.12172              0.00000             -0.00000         *
 * H               7     -0.12172              0.00000             -0.00000         *
 * H               8      0.12172              0.00000              0.00000         *
 * H               9     -1.32543             -0.95863             -0.00000         *
 * H              10      1.32543             -0.95863             -0.00000         *
 * H              11     -1.32543              0.95863             -0.00000         *
 * H              12      1.32543              0.95863             -0.00000         *
 * H              13     -0.12172              0.00000             -0.00000         *
 * H              14      0.12172             -0.00000              0.00000         *
 * H              15     -0.12172              0.00000              0.00000         *
 * H              16      0.12172              0.00000              0.00000         *
 *                                                                                  *
 ************************************************************************************

 *********** Symmetrised Stress Tensor ***********
 *                                               *
 *          Cartesian components (GPa)           *
 * --------------------------------------------- *
 *             x             y             z     *
 *                                               *
 *  x   -105.593653     -0.000000      0.000000  *
 *  y     -0.000000   -103.270958      0.000000  *
 *  z      0.000000      0.000000    -93.842972  *
 *                                               *
 *  Pressure:  100.9025                          *
 *                                               *
 *************************************************
  
 +------------+-------------+-------------+-----------------+ <-- min LBFGS
 |    Step    |   lambda    |   F.delta'  |    enthalpy     | <-- min LBFGS
 +------------+-------------+-------------+-----------------+ <-- min LBFGS
 |  previous  |    0.000000 |    0.110624 |     -218.960977 | <-- min LBFGS
 | trial step |    1.000000 |   -0.321291 |     -218.832374 | <-- min LBFGS
 +------------+-------------+-------------+-----------------+ <-- min LBFGS
  

--------------------------------------------------------------------------------
 LBFGS: improving iteration         2 with line minimization (lambda=  0.256125)
--------------------------------------------------------------------------------
 
+---------------- MEMORY AND SCRATCH DISK ESTIMATES PER PROCESS --------------+
|                                                     Memory          Disk    |
| Model and support data                               48.4 MB         0.0 MB |
| Electronic energy minimisation requirements          17.5 MB         0.0 MB |
| Geometry minimisation requirements                   20.3 MB         0.0 MB |
|                                               ----------------------------- |
| Approx. total storage required per process           86.2 MB         0.0 MB |
|                                                                             |
| Requirements will fluctuate during execution and may exceed these estimates |
+-----------------------------------------------------------------------------+
 

                           -------------------------------
                                      Unit Cell
                           -------------------------------
        Real Lattice(A)              Reciprocal Lattice(1/A)
     3.1307824    -0.0000000     0.0000000        2.006905765   0.000000000   0.000000000
    -0.0000000     1.9361773     0.0000000        0.000000000   3.245149794   0.000000000
     0.0000000     0.0000000     6.0003556        0.000000000   0.000000000   1.047135496

                       Lattice parameters(A)       Cell Angles
                    a =      3.130782          alpha =   90.000000
                    b =      1.936177          beta  =   90.000000
                    c =      6.000356          gamma =   90.000000

                Current cell volume =            36.372654 A**3

                           -------------------------------
                                     Cell Contents
                           -------------------------------

            xxxxxxxxxxxxxxxxxxxxxxxxxxxxxxxxxxxxxxxxxxxxxxxxxxxxxxxxxxxxxxxxx
            x  Element         Atom        Fractional coordinates of atoms  x
            x                 Number           u          v          w      x
            x---------------------------------------------------------------x
            x  H                 1         0.402920   0.393706   0.000000   x
            x  H                 2        -0.402920   0.393706   0.500000   x
            x  H                 3         0.402920  -0.393706   0.500000   x
            x  H                 4        -0.402920  -0.393706   0.000000   x
            x  H                 5         0.373695  -0.000000   0.250000   x
            x  H                 6        -0.373695   0.000000   0.750000   x
            x  H                 7         0.373695   0.000000   0.750000   x
            x  H                 8        -0.373695   0.000000   0.250000   x
            x  H                 9         0.902920   0.893706   0.500000   x
            x  H                10        -0.902920   0.893706   0.000000   x
            x  H                11         0.902920  -0.893706   0.000000   x
            x  H                12        -0.902920  -0.893706   0.500000   x
            x  H                13         0.873695   0.500000   0.750000   x
            x  H                14        -0.873695   0.500000   0.250000   x
            x  H                15         0.873695   0.500000   0.250000   x
            x  H                16        -0.873695   0.500000   0.750000   x
            xxxxxxxxxxxxxxxxxxxxxxxxxxxxxxxxxxxxxxxxxxxxxxxxxxxxxxxxxxxxxxxxx


------------------------------------------------------------------------ <-- SCF
SCF loop      Energy                           Energy gain       Timer   <-- SCF
                                               per atom          (sec)   <-- SCF
------------------------------------------------------------------------ <-- SCF
Initial  -2.40295522E+002                                         55.08  <-- SCF
      1  -2.41304057E+002                    6.30334347E-002      55.67  <-- SCF
      2  -2.41309291E+002                    3.27111736E-004      56.60  <-- SCF
      3  -2.41234859E+002                   -4.65198998E-003      57.53  <-- SCF
      4  -2.41231877E+002                   -1.86375360E-004      58.47  <-- SCF
      5  -2.41231890E+002                    7.77675598E-007      59.40  <-- SCF
      6  -2.41231891E+002                    6.02069004E-008      60.33  <-- SCF
      7  -2.41231891E+002                    4.36982776E-010      61.26  <-- SCF
      8  -2.41231891E+002                    4.74912319E-011      62.01  <-- SCF
      9  -2.41231891E+002                    2.98481788E-012      62.72  <-- SCF
     10  -2.41231891E+002                   -1.66158890E-013      63.43  <-- SCF
------------------------------------------------------------------------ <-- SCF
 
Final energy =  -241.2318905885     eV
(energy not corrected for finite basis set)
 

 ******************************** Symmetrised Forces ********************************
 *                                                                                  *
 *                           Cartesian components (eV/A)                            *
 * -------------------------------------------------------------------------------- *
 *                         x                    y                    z              *
 *                                                                                  *
 * H               1     -0.06833             -0.05619              0.00000         *
 * H               2      0.06833             -0.05619              0.00000         *
 * H               3     -0.06833              0.05619              0.00000         *
 * H               4      0.06833              0.05619              0.00000         *
 * H               5      0.18377              0.00000             -0.00000         *
 * H               6     -0.18377              0.00000              0.00000         *
 * H               7      0.18377             -0.00000             -0.00000         *
 * H               8     -0.18377              0.00000              0.00000         *
 * H               9     -0.06833             -0.05619              0.00000         *
 * H              10      0.06833             -0.05619              0.00000         *
 * H              11     -0.06833              0.05619              0.00000         *
 * H              12      0.06833              0.05619              0.00000         *
 * H              13      0.18377              0.00000              0.00000         *
 * H              14     -0.18377              0.00000             -0.00000         *
 * H              15      0.18377              0.00000             -0.00000         *
 * H              16     -0.18377              0.00000              0.00000         *
 *                                                                                  *
 ************************************************************************************

 *********** Symmetrised Stress Tensor ***********
 *                                               *
 *          Cartesian components (GPa)           *
 * --------------------------------------------- *
 *             x             y             z     *
 *                                               *
 *  x    -96.054327      0.000000      0.000000  *
 *  y      0.000000    -99.668863      0.000000  *
 *  z      0.000000      0.000000    -99.359268  *
 *                                               *
 *  Pressure:   98.3608                          *
 *                                               *
 *************************************************
  
 +------------+-------------+-------------+-----------------+ <-- min LBFGS
 |    Step    |   lambda    |   F.delta'  |    enthalpy     | <-- min LBFGS
 +------------+-------------+-------------+-----------------+ <-- min LBFGS
 |  previous  |    0.000000 |    0.110624 |     -218.960977 | <-- min LBFGS
 | trial step |    1.000000 |   -0.321291 |     -218.832374 | <-- min LBFGS
 |  line step |    0.256125 |    0.015845 |     -218.983909 | <-- min LBFGS
 +------------+-------------+-------------+-----------------+ <-- min LBFGS
  
 LBFGS: finished iteration     2 with enthalpy= -2.18983909E+002 eV
  
 +-----------+-----------------+-----------------+------------+-----+ <-- LBFGS
 | Parameter |      value      |    tolerance    |    units   | OK? | <-- LBFGS
 +-----------+-----------------+-----------------+------------+-----+ <-- LBFGS
 |  dE/ion   |   1.433298E-003 |   1.000000E-009 |         eV | No  | <-- LBFGS
 |  |F|max   |   1.837664E-001 |   1.000000E-005 |       eV/A | No  | <-- LBFGS
 |  |dR|max  |   8.640836E-003 |   1.000000E-005 |          A | No  | <-- LBFGS
 |   Smax    |   1.945673E+000 |   1.000000E-005 |        GPa | No  | <-- LBFGS
 +-----------+-----------------+-----------------+------------+-----+ <-- LBFGS
  

================================================================================
 Starting LBFGS iteration          3 ...
================================================================================
  
 +------------+-------------+-------------+-----------------+ <-- min LBFGS
 |    Step    |   lambda    |   F.delta'  |    enthalpy     | <-- min LBFGS
 +------------+-------------+-------------+-----------------+ <-- min LBFGS
 |  previous  |    0.000000 |    0.063119 |     -218.983909 | <-- min LBFGS
 +------------+-------------+-------------+-----------------+ <-- min LBFGS
  

--------------------------------------------------------------------------------
 LBFGS: starting iteration         3 with trial guess (lambda=  1.000000)
--------------------------------------------------------------------------------

                           -------------------------------
                                      Unit Cell
                           -------------------------------
        Real Lattice(A)              Reciprocal Lattice(1/A)
     3.1388210    -0.0000000     0.0000000        2.001766027   0.000000000   0.000000000
    -0.0000000     1.9482551     0.0000000        0.000000000   3.225032057   0.000000000
     0.0000000     0.0000000     6.0382375        0.000000000   0.000000000   1.040566107

                       Lattice parameters(A)       Cell Angles
                    a =      3.138821          alpha =   90.000000
                    b =      1.948255          beta  =   90.000000
                    c =      6.038238          gamma =   90.000000

                Current cell volume =            36.925176 A**3

                           -------------------------------
                                     Cell Contents
                           -------------------------------

            xxxxxxxxxxxxxxxxxxxxxxxxxxxxxxxxxxxxxxxxxxxxxxxxxxxxxxxxxxxxxxxxx
            x  Element         Atom        Fractional coordinates of atoms  x
            x                 Number           u          v          w      x
            x---------------------------------------------------------------x
            x  H                 1         0.402015   0.392139   0.000000   x
            x  H                 2        -0.402015   0.392139   0.500000   x
            x  H                 3         0.402015  -0.392139   0.500000   x
            x  H                 4        -0.402015  -0.392139   0.000000   x
            x  H                 5         0.382226  -0.000000   0.250000   x
            x  H                 6        -0.382226   0.000000   0.750000   x
            x  H                 7         0.382226   0.000000   0.750000   x
            x  H                 8        -0.382226  -0.000000   0.250000   x
            x  H                 9         0.902015   0.892139   0.500000   x
            x  H                10        -0.902015   0.892139   0.000000   x
            x  H                11         0.902015  -0.892139   0.000000   x
            x  H                12        -0.902015  -0.892139   0.500000   x
            x  H                13         0.882226   0.500000   0.750000   x
            x  H                14        -0.882226   0.500000   0.250000   x
            x  H                15         0.882226   0.500000   0.250000   x
            x  H                16        -0.882226   0.500000   0.750000   x
            xxxxxxxxxxxxxxxxxxxxxxxxxxxxxxxxxxxxxxxxxxxxxxxxxxxxxxxxxxxxxxxxx


------------------------------------------------------------------------ <-- SCF
SCF loop      Energy                           Energy gain       Timer   <-- SCF
                                               per atom          (sec)   <-- SCF
------------------------------------------------------------------------ <-- SCF
Initial  -2.40941023E+002                                         65.69  <-- SCF
      1  -2.41586285E+002                    4.03288661E-002      66.31  <-- SCF
      2  -2.41592803E+002                    4.07391286E-004      67.27  <-- SCF
      3  -2.41539683E+002                   -3.32003350E-003      68.24  <-- SCF
      4  -2.41538468E+002                   -7.59398727E-005      69.23  <-- SCF
      5  -2.41538456E+002                   -7.24219483E-007      70.16  <-- SCF
      6  -2.41538456E+002                   -6.55866903E-009      71.11  <-- SCF
      7  -2.41538456E+002                    1.16412731E-009      72.04  <-- SCF
      8  -2.41538456E+002                    1.50150236E-010      72.81  <-- SCF
      9  -2.41538456E+002                    2.24465555E-012      73.52  <-- SCF
     10  -2.41538456E+002                    3.20233497E-013      74.23  <-- SCF
------------------------------------------------------------------------ <-- SCF
 
Final energy =  -241.5384560819     eV
(energy not corrected for finite basis set)
 

 ******************************** Symmetrised Forces ********************************
 *                                                                                  *
 *                           Cartesian components (eV/A)                            *
 * -------------------------------------------------------------------------------- *
 *                         x                    y                    z              *
 *                                                                                  *
 * H               1      0.18188              0.15015              0.00000         *
 * H               2     -0.18188              0.15015              0.00000         *
 * H               3      0.18188             -0.15015              0.00000         *
 * H               4     -0.18188             -0.15015              0.00000         *
 * H               5     -0.56616             -0.00000              0.00000         *
 * H               6      0.56616              0.00000              0.00000         *
 * H               7     -0.56616             -0.00000              0.00000         *
 * H               8      0.56616             -0.00000              0.00000         *
 * H               9      0.18188              0.15015              0.00000         *
 * H              10     -0.18188              0.15015              0.00000         *
 * H              11      0.18188             -0.15015              0.00000         *
 * H              12     -0.18188             -0.15015              0.00000         *
 * H              13     -0.56616              0.00000              0.00000         *
 * H              14      0.56616             -0.00000              0.00000         *
 * H              15     -0.56616             -0.00000              0.00000         *
 * H              16      0.56616             -0.00000              0.00000         *
 *                                                                                  *
 ************************************************************************************

 *********** Symmetrised Stress Tensor ***********
 *                                               *
 *          Cartesian components (GPa)           *
 * --------------------------------------------- *
 *             x             y             z     *
 *                                               *
 *  x   -101.616410      0.000000      0.000000  *
 *  y      0.000000    -99.217723      0.000000  *
 *  z      0.000000      0.000000    -97.188655  *
 *                                               *
 *  Pressure:   99.3409                          *
 *                                               *
 *************************************************
  
 +------------+-------------+-------------+-----------------+ <-- min LBFGS
 |    Step    |   lambda    |   F.delta'  |    enthalpy     | <-- min LBFGS
 +------------+-------------+-------------+-----------------+ <-- min LBFGS
 |  previous  |    0.000000 |    0.063119 |     -218.983909 | <-- min LBFGS
 | trial step |    1.000000 |   -0.175880 |     -218.952493 | <-- min LBFGS
 +------------+-------------+-------------+-----------------+ <-- min LBFGS
  

--------------------------------------------------------------------------------
 LBFGS: improving iteration         3 with line minimization (lambda=  0.264099)
--------------------------------------------------------------------------------
 
+---------------- MEMORY AND SCRATCH DISK ESTIMATES PER PROCESS --------------+
|                                                     Memory          Disk    |
| Model and support data                               48.4 MB         0.0 MB |
| Electronic energy minimisation requirements          17.5 MB         0.0 MB |
| Geometry minimisation requirements                   20.3 MB         0.0 MB |
|                                               ----------------------------- |
| Approx. total storage required per process           86.2 MB         0.0 MB |
|                                                                             |
| Requirements will fluctuate during execution and may exceed these estimates |
+-----------------------------------------------------------------------------+
 

                           -------------------------------
                                      Unit Cell
                           -------------------------------
        Real Lattice(A)              Reciprocal Lattice(1/A)
     3.1329054    -0.0000000     0.0000000        2.005545801   0.000000000   0.000000000
    -0.0000000     1.9393670     0.0000000        0.000000000   3.239812368   0.000000000
     0.0000000     0.0000000     6.0103602        0.000000000   0.000000000   1.045392479

                       Lattice parameters(A)       Cell Angles
                    a =      3.132905          alpha =   90.000000
                    b =      1.939367          beta  =   90.000000
                    c =      6.010360          gamma =   90.000000

                Current cell volume =            36.518068 A**3

                           -------------------------------
                                     Cell Contents
                           -------------------------------

            xxxxxxxxxxxxxxxxxxxxxxxxxxxxxxxxxxxxxxxxxxxxxxxxxxxxxxxxxxxxxxxxx
            x  Element         Atom        Fractional coordinates of atoms  x
            x                 Number           u          v          w      x
            x---------------------------------------------------------------x
            x  H                 1         0.402681   0.393292   0.000000   x
            x  H                 2        -0.402681   0.393292   0.500000   x
            x  H                 3         0.402681  -0.393292   0.500000   x
            x  H                 4        -0.402681  -0.393292   0.000000   x
            x  H                 5         0.375948  -0.000000   0.250000   x
            x  H                 6        -0.375948   0.000000   0.750000   x
            x  H                 7         0.375948   0.000000   0.750000   x
            x  H                 8        -0.375948  -0.000000   0.250000   x
            x  H                 9         0.902681   0.893292   0.500000   x
            x  H                10        -0.902681   0.893292   0.000000   x
            x  H                11         0.902681  -0.893292   0.000000   x
            x  H                12        -0.902681  -0.893292   0.500000   x
            x  H                13         0.875948   0.500000   0.750000   x
            x  H                14        -0.875948   0.500000   0.250000   x
            x  H                15         0.875948   0.500000   0.250000   x
            x  H                16        -0.875948   0.500000   0.750000   x
            xxxxxxxxxxxxxxxxxxxxxxxxxxxxxxxxxxxxxxxxxxxxxxxxxxxxxxxxxxxxxxxxx


------------------------------------------------------------------------ <-- SCF
SCF loop      Energy                           Energy gain       Timer   <-- SCF
                                               per atom          (sec)   <-- SCF
------------------------------------------------------------------------ <-- SCF
Initial  -2.40995387E+002                                         76.46  <-- SCF
      1  -2.41357216E+002                    2.26143346E-002      77.07  <-- SCF
      2  -2.41359022E+002                    1.12837454E-004      78.00  <-- SCF
      3  -2.41329115E+002                   -1.86914839E-003      78.94  <-- SCF
      4  -2.41328393E+002                   -4.51101623E-005      79.90  <-- SCF
      5  -2.41328385E+002                   -5.21513881E-007      80.82  <-- SCF
      6  -2.41328385E+002                   -3.43612657E-009      81.79  <-- SCF
      7  -2.41328385E+002                    5.95181144E-010      82.73  <-- SCF
      8  -2.41328385E+002                    6.93184679E-011      83.45  <-- SCF
      9  -2.41328385E+002                    7.64330895E-013      84.15  <-- SCF
     10  -2.41328385E+002                   -1.17821758E-013      84.85  <-- SCF
------------------------------------------------------------------------ <-- SCF
 
Final energy =  -241.3283851103     eV
(energy not corrected for finite basis set)
 

 ******************************** Symmetrised Forces ********************************
 *                                                                                  *
 *                           Cartesian components (eV/A)                            *
 * -------------------------------------------------------------------------------- *
 *                         x                    y                    z              *
 *                                                                                  *
 * H               1     -0.00225             -0.00170             -0.00000         *
 * H               2      0.00225             -0.00170             -0.00000         *
 * H               3     -0.00225              0.00170             -0.00000         *
 * H               4      0.00225              0.00170             -0.00000         *
 * H               5      0.03821              0.00000             -0.00000         *
 * H               6     -0.03821              0.00000             -0.00000         *
 * H               7      0.03821              0.00000             -0.00000         *
 * H               8     -0.03821              0.00000             -0.00000         *
 * H               9     -0.00225             -0.00170             -0.00000         *
 * H              10      0.00225             -0.00170             -0.00000         *
 * H              11     -0.00225              0.00170             -0.00000         *
 * H              12      0.00225              0.00170             -0.00000         *
 * H              13      0.03821              0.00000             -0.00000         *
 * H              14     -0.03821              0.00000              0.00000         *
 * H              15      0.03821              0.00000              0.00000         *
 * H              16     -0.03821              0.00000             -0.00000         *
 *                                                                                  *
 ************************************************************************************

 *********** Symmetrised Stress Tensor ***********
 *                                               *
 *          Cartesian components (GPa)           *
 * --------------------------------------------- *
 *             x             y             z     *
 *                                               *
 *  x    -97.068109      0.000000      0.000000  *
 *  y      0.000000    -99.542318      0.000000  *
 *  z      0.000000      0.000000    -98.711629  *
 *                                               *
 *  Pressure:   98.4407                          *
 *                                               *
 *************************************************
  
 +------------+-------------+-------------+-----------------+ <-- min LBFGS
 |    Step    |   lambda    |   F.delta'  |    enthalpy     | <-- min LBFGS
 +------------+-------------+-------------+-----------------+ <-- min LBFGS
 |  previous  |    0.000000 |    0.063119 |     -218.983909 | <-- min LBFGS
 | trial step |    1.000000 |   -0.175880 |     -218.952493 | <-- min LBFGS
 |  line step |    0.264099 |    0.015210 |     -218.991443 | <-- min LBFGS
 +------------+-------------+-------------+-----------------+ <-- min LBFGS
  
 LBFGS: finished iteration     3 with enthalpy= -2.18991443E+002 eV
  
 +-----------+-----------------+-----------------+------------+-----+ <-- LBFGS
 | Parameter |      value      |    tolerance    |    units   | OK? | <-- LBFGS
 +-----------+-----------------+-----------------+------------+-----+ <-- LBFGS
 |  dE/ion   |   4.708699E-004 |   1.000000E-009 |         eV | No  | <-- LBFGS
 |  |F|max   |   3.821371E-002 |   1.000000E-005 |       eV/A | No  | <-- LBFGS
 |  |dR|max  |   7.058358E-003 |   1.000000E-005 |          A | No  | <-- LBFGS
 |   Smax    |   1.542318E+000 |   1.000000E-005 |        GPa | No  | <-- LBFGS
 +-----------+-----------------+-----------------+------------+-----+ <-- LBFGS
  

================================================================================
 Starting LBFGS iteration          4 ...
================================================================================
  
 +------------+-------------+-------------+-----------------+ <-- min LBFGS
 |    Step    |   lambda    |   F.delta'  |    enthalpy     | <-- min LBFGS
 +------------+-------------+-------------+-----------------+ <-- min LBFGS
 |  previous  |    0.000000 |    0.017801 |     -218.991443 | <-- min LBFGS
 +------------+-------------+-------------+-----------------+ <-- min LBFGS
  

--------------------------------------------------------------------------------
 LBFGS: starting iteration         4 with trial guess (lambda=  1.000000)
--------------------------------------------------------------------------------

                           -------------------------------
                                      Unit Cell
                           -------------------------------
        Real Lattice(A)              Reciprocal Lattice(1/A)
     3.1336158    -0.0000000     0.0000000        2.005091168   0.000000000   0.000000000
    -0.0000000     1.9434299     0.0000000        0.000000000   3.233039384   0.000000000
     0.0000000     0.0000000     6.0185025        0.000000000   0.000000000   1.043978175

                       Lattice parameters(A)       Cell Angles
                    a =      3.133616          alpha =   90.000000
                    b =      1.943430          beta  =   90.000000
                    c =      6.018503          gamma =   90.000000

                Current cell volume =            36.652455 A**3

                           -------------------------------
                                     Cell Contents
                           -------------------------------

            xxxxxxxxxxxxxxxxxxxxxxxxxxxxxxxxxxxxxxxxxxxxxxxxxxxxxxxxxxxxxxxxx
            x  Element         Atom        Fractional coordinates of atoms  x
[...]
            x---------------------------------------------------------------x
            x  H                 1         0.403472   0.391835   0.000000   x
            x  H                 2        -0.403472   0.391835   0.500000   x
            x  H                 3         0.403472  -0.391835   0.500000   x
            x  H                 4        -0.403472  -0.391835   0.000000   x
            x  H                 5         0.376419  -0.000000   0.250000   x
            x  H                 6        -0.376419   0.000000   0.750000   x
            x  H                 7         0.376419   0.000000   0.750000   x
            x  H                 8        -0.376419  -0.000000   0.250000   x
            x  H                 9         0.903472   0.891835   0.500000   x
            x  H                10        -0.903472   0.891835   0.000000   x
            x  H                11         0.903472  -0.891835   0.000000   x
            x  H                12        -0.903472  -0.891835   0.500000   x
            x  H                13         0.876419   0.500000   0.750000   x
            x  H                14        -0.876419   0.500000   0.250000   x
            x  H                15         0.876419   0.500000   0.250000   x
            x  H                16        -0.876419   0.500000   0.750000   x
            xxxxxxxxxxxxxxxxxxxxxxxxxxxxxxxxxxxxxxxxxxxxxxxxxxxxxxxxxxxxxxxxx


------------------------------------------------------------------------ <-- SCF
SCF loop      Energy                           Energy gain       Timer   <-- SCF
                                               per atom          (sec)   <-- SCF
------------------------------------------------------------------------ <-- SCF
Initial  -2.41432863E+002                                        210.46  <-- SCF
      1  -2.41432863E+002                    1.17821758E-013     210.84  <-- SCF
      2  -2.41432863E+002                   -3.02107073E-015     211.54  <-- SCF
      3  -2.41432863E+002                    3.53465275E-013     212.24  <-- SCF
      4  -2.41432863E+002                   -2.68875295E-013     212.95  <-- SCF
------------------------------------------------------------------------ <-- SCF
 
Final energy =  -241.4328632677     eV
(energy not corrected for finite basis set)
 

 ******************************** Symmetrised Forces ********************************
 *                                                                                  *
 *                           Cartesian components (eV/A)                            *
 * -------------------------------------------------------------------------------- *
 *                         x                    y                    z              *
 *                                                                                  *
 * H               1     -0.00000             -0.00000             -0.00000         *
 * H               2      0.00000             -0.00000             -0.00000         *
 * H               3     -0.00000              0.00000             -0.00000         *
 * H               4      0.00000              0.00000             -0.00000         *
 * H               5     -0.00000              0.00000             -0.00000         *
 * H               6      0.00000             -0.00000              0.00000         *
 * H               7     -0.00000              0.00000              0.00000         *
 * H               8      0.00000              0.00000              0.00000         *
 * H               9     -0.00000             -0.00000             -0.00000         *
 * H              10      0.00000             -0.00000             -0.00000         *
 * H              11     -0.00000              0.00000             -0.00000         *
 * H              12      0.00000              0.00000             -0.00000         *
 * H              13     -0.00000              0.00000             -0.00000         *
 * H              14      0.00000             -0.00000              0.00000         *
 * H              15     -0.00000              0.00000             -0.00000         *
 * H              16      0.00000              0.00000              0.00000         *
 *                                                                                  *
 ************************************************************************************

 *********** Symmetrised Stress Tensor ***********
 *                                               *
 *          Cartesian components (GPa)           *
 * --------------------------------------------- *
 *             x             y             z     *
 *                                               *
 *  x    -98.000008      0.000000      0.000000  *
 *  y      0.000000    -97.999993      0.000000  *
 *  z      0.000000      0.000000    -97.999999  *
 *                                               *
 *  Pressure:   98.0000                          *
 *                                               *
 *************************************************
  
 +------------+-------------+-------------+-----------------+ <-- min LBFGS
 |    Step    |   lambda    |   F.delta'  |    enthalpy     | <-- min LBFGS
 +------------+-------------+-------------+-----------------+ <-- min LBFGS
 |  previous  |    0.000000 |  2.540E-007 |     -218.993108 | <-- min LBFGS
 | trial step |    1.000000 | -4.257E-008 |     -218.993108 | <-- min LBFGS
 +------------+-------------+-------------+-----------------+ <-- min LBFGS
  
 LBFGS: finished iteration    14 with enthalpy= -2.18993108E+002 eV
  
 +-----------+-----------------+-----------------+------------+-----+ <-- LBFGS
 | Parameter |      value      |    tolerance    |    units   | OK? | <-- LBFGS
 +-----------+-----------------+-----------------+------------+-----+ <-- LBFGS
 |  dE/ion   |   1.691800E-013 |   1.000000E-009 |         eV | Yes | <-- LBFGS
 |  |F|max   |   1.954443E-007 |   1.000000E-005 |       eV/A | Yes | <-- LBFGS
 |  |dR|max  |   4.015118E-008 |   1.000000E-005 |          A | Yes | <-- LBFGS
 |   Smax    |   7.549715E-006 |   1.000000E-005 |        GPa | Yes | <-- LBFGS
 +-----------+-----------------+-----------------+------------+-----+ <-- LBFGS
  
 LBFGS: Geometry optimization completed successfully.

================================================================================
 LBFGS: Final Configuration:
================================================================================

                           -------------------------------
                                      Unit Cell
                           -------------------------------
        Real Lattice(A)              Reciprocal Lattice(1/A)
     3.1241679    -0.0000000     0.0000000        2.011154790   0.000000000   0.000000000
    -0.0000000     1.9530003     0.0000000        0.000000000   3.217196333   0.000000000
     0.0000000     0.0000000     6.0126470        0.000000000   0.000000000   1.044994883

                       Lattice parameters(A)       Cell Angles
                    a =      3.124168          alpha =   90.000000
                    b =      1.953000          beta  =   90.000000
                    c =      6.012647          gamma =   90.000000

                Current cell volume =            36.686170 A**3

                           -------------------------------
                                     Cell Contents
                           -------------------------------

            xxxxxxxxxxxxxxxxxxxxxxxxxxxxxxxxxxxxxxxxxxxxxxxxxxxxxxxxxxxxxxxxx
            x  Element         Atom        Fractional coordinates of atoms  x
            x                 Number           u          v          w      x
            x---------------------------------------------------------------x
            x  H                 1         0.403472   0.391835   0.000000   x
            x  H                 2        -0.403472   0.391835   0.500000   x
            x  H                 3         0.403472  -0.391835   0.500000   x
            x  H                 4        -0.403472  -0.391835   0.000000   x
            x  H                 5         0.376419  -0.000000   0.250000   x
            x  H                 6        -0.376419   0.000000   0.750000   x
            x  H                 7         0.376419   0.000000   0.750000   x
            x  H                 8        -0.376419  -0.000000   0.250000   x
            x  H                 9         0.903472   0.891835   0.500000   x
            x  H                10        -0.903472   0.891835   0.000000   x
            x  H                11         0.903472  -0.891835   0.000000   x
            x  H                12        -0.903472  -0.891835   0.500000   x
            x  H                13         0.876419   0.500000   0.750000   x
            x  H                14        -0.876419   0.500000   0.250000   x
            x  H                15         0.876419   0.500000   0.250000   x
            x  H                16        -0.876419   0.500000   0.750000   x
            xxxxxxxxxxxxxxxxxxxxxxxxxxxxxxxxxxxxxxxxxxxxxxxxxxxxxxxxxxxxxxxxx


 LBFGS: Final Enthalpy     = -2.18993108E+002 eV
 LBFGS: Final <frequency>  =     458.93467 cm-1
 LBFGS: Final bulk modulus =     236.92952 GPa

 ******************************** Symmetrised Forces ********************************
 *                                                                                  *
 *                           Cartesian components (eV/A)                            *
 * -------------------------------------------------------------------------------- *
 *                         x                    y                    z              *
 *                                                                                  *
 * H               1     -0.00000             -0.00000             -0.00000         *
 * H               2      0.00000             -0.00000             -0.00000         *
 * H               3     -0.00000              0.00000             -0.00000         *
 * H               4      0.00000              0.00000             -0.00000         *
 * H               5     -0.00000              0.00000             -0.00000         *
 * H               6      0.00000             -0.00000              0.00000         *
 * H               7     -0.00000              0.00000              0.00000         *
 * H               8      0.00000              0.00000              0.00000         *
 * H               9     -0.00000             -0.00000             -0.00000         *
 * H              10      0.00000             -0.00000             -0.00000         *
 * H              11     -0.00000              0.00000             -0.00000         *
 * H              12      0.00000              0.00000             -0.00000         *
 * H              13     -0.00000              0.00000             -0.00000         *
 * H              14      0.00000             -0.00000              0.00000         *
 * H              15     -0.00000              0.00000             -0.00000         *
 * H              16      0.00000              0.00000              0.00000         *
 *                                                                                  *
 ************************************************************************************

 *********** Symmetrised Stress Tensor ***********
 *                                               *
 *          Cartesian components (GPa)           *
 * --------------------------------------------- *
 *             x             y             z     *
 *                                               *
 *  x    -98.000008      0.000000      0.000000  *
 *  y      0.000000    -97.999993      0.000000  *
 *  z      0.000000      0.000000    -97.999999  *
 *                                               *
 *  Pressure:   98.0000                          *
 *                                               *
 *************************************************

 Pseudo atomic calculation performed for H 1s1

 Converged in 24 iterations to a total energy of -12.4843 eV

Charge spilling parameter for spin component 1 = 0.55%

            Orbital Populations       
     Ion    Atom   Orbital             Charge
  -------------------------------------------
      H     1      S                    1.004
      H     2      S                    1.003
      H     3      S                    1.003
      H     4      S                    1.004
      H     5      S                    0.997
      H     6      S                    0.997
      H     7      S                    0.997
      H     8      S                    0.997
      H     9      S                    1.004
      H    10      S                    1.003
      H    11      S                    1.003
      H    12      S                    1.004
      H    13      S                    0.997
      H    14      S                    0.997
      H    15      S                    0.997
      H    16      S                    0.997
  -------------------------------------------
                           Total:      16.000
  -------------------------------------------

     Atomic Populations (Mulliken)
     -----------------------------
Species          Ion     s      p      d      f     Total  Charge (e)
=====================================================================
  H               1     1.00   0.00   0.00   0.00   1.00    -0.00
  H               2     1.00   0.00   0.00   0.00   1.00    -0.00
  H               3     1.00   0.00   0.00   0.00   1.00    -0.00
  H               4     1.00   0.00   0.00   0.00   1.00    -0.00
  H               5     1.00   0.00   0.00   0.00   1.00     0.00
  H               6     1.00   0.00   0.00   0.00   1.00     0.00
  H               7     1.00   0.00   0.00   0.00   1.00     0.00
  H               8     1.00   0.00   0.00   0.00   1.00     0.00
  H               9     1.00   0.00   0.00   0.00   1.00    -0.00
  H              10     1.00   0.00   0.00   0.00   1.00    -0.00
  H              11     1.00   0.00   0.00   0.00   1.00    -0.00
  H              12     1.00   0.00   0.00   0.00   1.00    -0.00
  H              13     1.00   0.00   0.00   0.00   1.00     0.00
  H              14     1.00   0.00   0.00   0.00   1.00     0.00
  H              15     1.00   0.00   0.00   0.00   1.00     0.00
  H              16     1.00   0.00   0.00   0.00   1.00     0.00
=====================================================================

                 Bond                   Population      Length (A)
======================================================================
              H 2  -- H 3                    1.36        0.73640
              H 1  -- H 4                    1.36        0.73640
              H 10 -- H 11                   1.36        0.73640
              H 9  -- H 12                   1.36        0.73640
              H 6  -- H 7                    1.04        0.77218
              H 5  -- H 8                    1.04        0.77218
              H 14 -- H 15                   1.04        0.77218
              H 13 -- H 16                   1.04        0.77218
              H 8  -- H 15                   0.15        1.25599
              H 7  -- H 16                   0.15        1.25599
              H 6  -- H 13                   0.15        1.25599
              H 5  -- H 14                   0.15        1.25599
              H 3  -- H 12                  -0.21        1.36862
              H 1  -- H 10                  -0.21        1.36862
              H 4  -- H 11                  -0.21        1.36862
              H 2  -- H 9                   -0.21        1.36862
              H 4  -- H 10                  -0.49        1.65742
              H 3  -- H 9                   -0.49        1.65742
              H 2  -- H 12                  -0.49        1.65742
              H 1  -- H 11                  -0.49        1.65742
              H 10 -- H 16                  -0.13        1.68886
              H 9  -- H 15                  -0.13        1.68886
              H 4  -- H 8                   -0.13        1.68886
              H 4  -- H 6                   -0.13        1.68886
              H 3  -- H 7                   -0.13        1.68886
              H 3  -- H 5                   -0.13        1.68886
              H 2  -- H 8                   -0.13        1.68886
              H 1  -- H 7                   -0.13        1.68886
              H 12 -- H 14                  -0.13        1.68886
              H 11 -- H 13                  -0.13        1.68886
              H 10 -- H 14                  -0.13        1.68886
              H 9  -- H 13                  -0.13        1.68886
              H 2  -- H 6                   -0.13        1.68886
              H 1  -- H 5                   -0.13        1.68886
              H 12 -- H 16                  -0.13        1.68886
              H 11 -- H 15                  -0.13        1.68886
              H 7  -- H 12                  -0.03        1.75178
              H 5  -- H 10                  -0.03        1.75178
              H 8  -- H 11                  -0.03        1.75178
              H 8  -- H 9                   -0.03        1.75178
              H 7  -- H 10                  -0.03        1.75178
              H 6  -- H 11                  -0.03        1.75178
              H 6  -- H 9                   -0.03        1.75178
              H 5  -- H 12                  -0.03        1.75178
              H 4  -- H 13                  -0.03        1.75178
              H 3  -- H 14                  -0.03        1.75178
              H 2  -- H 15                  -0.03        1.75178
              H 1  -- H 16                  -0.03        1.75178
              H 4  -- H 15                  -0.03        1.75178
              H 3  -- H 16                  -0.03        1.75178
              H 2  -- H 13                  -0.03        1.75178
              H 1  -- H 14                  -0.03        1.75178
              H 4  -- H 7                   -0.19        1.82153
              H 4  -- H 5                   -0.19        1.82153
              H 3  -- H 8                   -0.19        1.82153
              H 3  -- H 6                   -0.19        1.82153
              H 2  -- H 7                   -0.19        1.82153
              H 2  -- H 5                   -0.19        1.82153
              H 1  -- H 8                   -0.19        1.82153
              H 1  -- H 6                   -0.19        1.82153
              H 10 -- H 13                  -0.19        1.82153
              H 9  -- H 14                  -0.19        1.82153
              H 12 -- H 15                  -0.19        1.82153
              H 12 -- H 13                  -0.19        1.82153
              H 11 -- H 16                  -0.19        1.82153
              H 11 -- H 14                  -0.19        1.82153
              H 10 -- H 15                  -0.19        1.82153
              H 9  -- H 16                  -0.19        1.82153
              H 8  -- H 14                  -0.55        1.84219
              H 7  -- H 13                  -0.55        1.84219
              H 6  -- H 16                  -0.55        1.84219
              H 5  -- H 15                  -0.55        1.84219
======================================================================


Writing analysis data to Hibam.castep_bin

Writing model to Hibam.check
 
 A BibTeX formatted list of references used in this run has been written to 
 Hibam.bib
 
Initialisation time =      2.85 s
Calculation time    =    213.05 s
Finalisation time   =      1.36 s
Total time          =    217.26 s
Peak Memory Use     = 515576 kB
  
Overall parallel efficiency rating: Excellent (95%)                             
  
Data was distributed by:-
k-point (16-way); efficiency rating: Excellent (96%)                            
  
Parallel notes:
1) Calculation only took 215.9 s, so efficiency estimates may be inaccurate.    
