 +-------------------------------------------------+
 |                                                 |
 |      CCC   AA    SSS  TTTTT  EEEEE  PPPP        |
 |     C     A  A  S       T    E      P   P       |
 |     C     AAAA   SS     T    EEE    PPPP        |
 |     C     A  A     S    T    E      P           |
 |      CCC  A  A  SSS     T    EEEEE  P           |
 |                                                 |
 +-------------------------------------------------+
 |                                                 |
 | Welcome to Academic Release CASTEP version 18.1 |          
 | Ab Initio Total Energy Program                  |
 |                                                 |
 | Authors:                                        |
 | M. Segall, M. Probert, C. Pickard, P. Hasnip,   |
 | S. Clark, K. Refson, J. R. Yates, M. Payne      |
 |                                                 |
 | Contributors:                                   |
 | P. Lindan, P. Haynes, J. White, V. Milman,      |
 | N. Govind, M. Gibson, P. Tulip, V. Cocula,      |
 | B. Montanari, D. Quigley, M. Glover,            |
 | L. Bernasconi, A. Perlov, M. Plummer,           |
 | E. McNellis, J. Meyer, J. Gale, D. Jochym       |
 | J. Aarons, B. Walker, R. Gillen, D. Jones       |
 | T. Green, I. J. Bush, C. J. Armstrong,          |
 | E. J. Higgins, E. L. Brown, M. S. McFly,        |
 | J. Wilkins, B-C. Shih, P. J. P. Byrne           |
 |                                                 |
 | Copyright (c) 2000 - 2017                       |
 |                                                 |
 |     Distributed under the terms of an           |
 |     Agreement between the United Kingdom        |
 |     Car-Parrinello (UKCP) Consortium,           |
 |     Daresbury Laboratory and Accelrys, Inc.     |
 |                                                 |
 | Please cite                                     |
 |                                                 |
 |     "First principles methods using CASTEP"     |
 |                                                 |
 |         Zeitschrift fuer Kristallographie       |
 |           220(5-6) pp. 567-570 (2005)           |
 |                                                 |
 | S. J. Clark, M. D. Segall, C. J. Pickard,       |
 | P. J. Hasnip, M. J. Probert, K. Refson,         |
 | M. C. Payne                                     |
 |                                                 |
 |       in all publications arising from          |
 |              your use of CASTEP                 |
 |                                                 |
 +-------------------------------------------------+


 Compiled for linux_x86_64_gfortran4.8 on Thu, 19 Jul 2018 15:42:32 +0100
 from code version 70483bd0ad64+  Sun, 10 Dec 2017 12:18:29 +0000
 Compiler: GNU Fortran 4.8.5; Optimisation: fast
 MATHLIBS: Intel MKL(2018.0.0) (LAPACK version 3.7.0)
 FFT Lib : mkl
 Fundamental constants values: CODATA 2014

 Run started: Fri, 21 Aug 2020 12:52:06 +0100

 Atomic calculation performed for H: 1s1

 Converged in 41 iterations to an ae energy of -12.488 eV

   ============================================================                
   | Pseudopotential Report - Date of generation 21-08-2020   |                
   ------------------------------------------------------------                
   | Element: H Ionic charge:  1.00 Level of theory: PBE      |                
   | Atomic Solver: Koelling-Harmon                           |                
   |                                                          |                
   |               Reference Electronic Structure             |                
   |         Orbital         Occupation         Energy        |                
   |            1s              1.000           -0.239        |                
   |                                                          |                
   |                 Pseudopotential Definition               |                
   |        Beta     l      e      Rc     scheme   norm       |                
   |         loc     0   -0.239   0.702     qc      1         |                
   |                                                          |                
   | No charge augmentation                                   |                
   | No partial core correction                               |                
   ------------------------------------------------------------                
   | "0|0.7|2|6|8|10L(qc=10)"                                 |                
   ------------------------------------------------------------                
   |      Author: Chris J. Pickard, Cambridge University      |                
   ============================================================                

 Pseudo atomic calculation performed for H 1s1

 Converged in 24 iterations to a total energy of -12.4843 eV

 Calculation parallelised over 16 processes.
 Data is distributed by k-point(16-way)

 ************************************ Title ************************************
 

 ***************************** General Parameters ******************************
  
 output verbosity                               : normal  (1)
 write checkpoint data to                       : Hibam.check
 type of calculation                            : geometry optimization
 stress calculation                             : on
 density difference calculation                 : off
 electron localisation func (ELF) calculation   : off
 Hirshfeld analysis                             : off
 unlimited duration calculation
 timing information                             : on
 memory usage estimate                          : on
 write extra output files                       : on
 write final potential to formatted file        : off
 write final density to formatted file          : off
 write structure in CELL formatted file         : on
 write BibTeX reference list                    : on
 write OTFG pseudopotential files               : on
 write electrostatic potential file             : on
 write bands file                               : on
 checkpoint writing                             : both castep_bin and check files
  
 output         length unit                     : A
 output           mass unit                     : amu
 output           time unit                     : ps
 output         charge unit                     : e
 output           spin unit                     : hbar/2
 output         energy unit                     : eV
 output          force unit                     : eV/A
 output       velocity unit                     : A/ps
 output       pressure unit                     : GPa
 output     inv_length unit                     : 1/A
 output      frequency unit                     : cm-1
 output force constant unit                     : eV/A**2
 output         volume unit                     : A**3
 output   IR intensity unit                     : (D/A)**2/amu
 output         dipole unit                     : D
 output         efield unit                     : eV/A/e
 output        entropy unit                     : J/mol/K
  
 wavefunctions paging                           : none
 random number generator seed                   : randomised (125206466)
 data distribution                              : optimal for this architecture
 optimization strategy                          : maximize speed(+++)

 *********************** Exchange-Correlation Parameters ***********************
  
 using functional                               : Perdew Burke Ernzerhof
 relativistic treatment                         : Koelling-Harmon
 DFT+D: Semi-empirical dispersion correction    : off

 ************************* Pseudopotential Parameters **************************
  
 pseudopotential representation                 : reciprocal space
 <beta|phi> representation                      : reciprocal space
 spin-orbit coupling                            : off

 **************************** Basis Set Parameters *****************************
  
 plane wave basis set cut-off                   :  1200.0000   eV
 size of standard grid                          :     2.0000
 size of   fine   gmax                          :    35.4943   1/A
 finite basis set correction                    : automatic
 number of sample energies                      :          3
           sample  spacing                      :     5.0000   eV

 **************************** Electronic Parameters ****************************
  
 number of  electrons                           :  16.00    
 net charge of system                           :  0.000    
 treating system as non-spin-polarized
 number of bands                                :          8

 ********************* Electronic Minimization Parameters **********************
  
 Method: Treating system as non-metallic,
         and number of  SD  steps               :          1
         and number of  CG  steps               :          4
  
 total energy / atom convergence tol.           : 0.1000E-10   eV
 eigen-energy convergence tolerance             : 0.2000E-10   eV
 max force / atom convergence tol.              : ignored
 convergence tolerance window                   :          3   cycles
 max. number of SCF cycles                      :        100
 periodic dipole correction                     : NONE

 ************************** Density Mixing Parameters **************************
  
 density-mixing scheme                          : Broyden
 max. length of mixing history                  :         20
 charge density mixing amplitude                : 0.8000    
 cut-off energy for mixing                      :  1200.       eV

 *********************** Population Analysis Parameters ************************
  
 Population analysis with cutoff                :  3.000       A
 Population analysis output                     : summary and pdos components

 ********************** Geometry Optimization Parameters ***********************
  
 optimization method                            : LBFGS
 max. no. of LBFGS updates                      : unbounded
 variable cell method                           : fixed basis quality
 max. number of steps                           :         60
 estimated bulk modulus                         :  500.0       GPa
 estimated <frequency>                          :  1668.       cm-1
 geom line minimiser                            : on
 with line minimiser tolerance                  :     0.4000
 total energy convergence tolerance             : 0.1000E-08   eV/atom
        max ionic |force| tolerance             : 0.1000E-04   eV/A
 max ionic |displacement| tolerance             : 0.1000E-04   A
   max |stress component| tolerance             : 0.1000E-04   GPa
 convergence tolerance window                   :          2   steps
 backup results every                           :      14400   seconds
 write geom trajectory file                     : on

 *******************************************************************************
  

                           -------------------------------
                                      Unit Cell
                           -------------------------------
        Real Lattice(A)                      Reciprocal Lattice(1/A)
     2.9328859    -0.0000000     0.0000000        2.142321775   0.000000000   0.000000000
    -0.0000000     2.9232155     0.0000000        0.000000000   2.149408832   0.000000000
     0.0000000     0.0000000     5.7922383        0.000000000   0.000000000   1.084759462

                       Lattice parameters(A)       Cell Angles
                    a =      2.932886          alpha =   90.000000
                    b =      2.923216          beta  =   90.000000
                    c =      5.792238          gamma =   90.000000

                       Current cell volume =            49.659510       A**3
                                   density =             0.324752   AMU/A**3
                                           =             0.539264     g/cm^3

                           -------------------------------
                                     Cell Contents
                           -------------------------------
                         Total number of ions in cell =   16
                      Total number of species in cell =    1
                        Max number of any one species =   16

            xxxxxxxxxxxxxxxxxxxxxxxxxxxxxxxxxxxxxxxxxxxxxxxxxxxxxxxxxxxx
            x  Element    Atom        Fractional coordinates of atoms  x
            x            Number           u          v          w      x
            x----------------------------------------------------------x
            x  H            1         0.430175   0.395466   0.000000   x 
            x  H            2        -0.430175   0.395466   0.500000   x 
            x  H            3         0.430175  -0.395466   0.500000   x 
            x  H            4        -0.430175  -0.395466   0.000000   x 
            x  H            5         0.374894   0.000000   0.250000   x 
            x  H            6        -0.374894  -0.000000   0.750000   x 
            x  H            7         0.374894  -0.000000   0.750000   x 
            x  H            8        -0.374894  -0.000000   0.250000   x 
            x  H            9         0.930175   0.895466   0.500000   x 
            x  H           10        -0.930175   0.895466   0.000000   x 
            x  H           11         0.930175  -0.895466   0.000000   x 
            x  H           12        -0.930175  -0.895466   0.500000   x 
            x  H           13         0.874894   0.500000   0.750000   x 
            x  H           14        -0.874894   0.500000   0.250000   x 
            x  H           15         0.874894   0.500000   0.250000   x 
            x  H           16        -0.874894   0.500000   0.750000   x 
            xxxxxxxxxxxxxxxxxxxxxxxxxxxxxxxxxxxxxxxxxxxxxxxxxxxxxxxxxxxx


                         No user defined ionic velocities

                           -------------------------------
                                   Details of Species
                           -------------------------------

                               Mass of species in AMU
                                    H    1.0079400

                          Electric Quadrupole Moment (Barn)
                                    H    0.0028600 Isotope  2

                          Files used for pseudopotentials:
                                    H 0|0.7|2|6|8|10L(qc=10)

                           -------------------------------
                              k-Points For BZ Sampling
                           -------------------------------
                       MP grid size for SCF calculation is  8  8  8
                            with an offset of   0.000  0.000  0.000
                       Number of kpoints used =            64

                           -------------------------------
                               Symmetry and Constraints
                           -------------------------------

                      Cell is a supercell containing 2 primitive cells
                      Maximum deviation from symmetry = 0.293054E-14     ANG

                      Number of symmetry operations   =          16
                      Number of ionic constraints     =           3
                      Point group of crystal =     8: D2h, mmm, 2/m 2/m 2/m
                      Space group of crystal =    72: Ibam, -I 2 2c

             Set iprint > 1 for details on symmetry rotations/translations

                         Centre of mass is constrained
             Set iprint > 1 for details of linear ionic constraints

                         Number of cell constraints= 3
                         Cell constraints are:  1 2 3 0 0 0

                         External pressure/stress (GPa)
                         30.00000   0.00000   0.00000
                                   30.00000   0.00000
                                             30.00000
  
+---------------- MEMORY AND SCRATCH DISK ESTIMATES PER PROCESS --------------+
|                                                     Memory          Disk    |
| Baseline code, static data and system overhead      415.0 MB         0.0 MB |
| BLAS internal memory storage                          0.0 MB         0.0 MB |
| Model and support data                               39.3 MB         0.0 MB |
| Electronic energy minimisation requirements          24.6 MB         0.0 MB |
| Force calculation requirements                       10.7 MB         0.0 MB |
| Stress calculation requirements                      13.5 MB         0.0 MB |
|                                               ----------------------------- |
| Approx. total storage required per process          478.9 MB         0.0 MB |
|                                                                             |
| Requirements will fluctuate during execution and may exceed these estimates |
+-----------------------------------------------------------------------------+
Calculating finite basis set correction with  3 cut-off energies.
Calculating total energy with cut-off of 1190.000 eV.
------------------------------------------------------------------------ <-- SCF
SCF loop      Energy                           Energy gain       Timer   <-- SCF
                                               per atom          (sec)   <-- SCF
------------------------------------------------------------------------ <-- SCF
Initial   4.19580730E+002                                          4.15  <-- SCF
      1  -1.95911155E+002                    3.84682428E+001       5.45  <-- SCF
      2  -2.48266500E+002                    3.27220907E+000       6.35  <-- SCF
      3  -2.49210653E+002                    5.90095544E-002       7.05  <-- SCF
      4  -2.47490663E+002                   -1.07499362E-001       8.61  <-- SCF
      5  -2.47437074E+002                   -3.34931631E-003      10.13  <-- SCF
      6  -2.47439936E+002                    1.78890133E-004      11.68  <-- SCF
      7  -2.47440276E+002                    2.12338533E-005      13.31  <-- SCF
      8  -2.47440277E+002                    7.94608277E-008      14.79  <-- SCF
      9  -2.47440277E+002                    7.09476105E-009      16.22  <-- SCF
     10  -2.47440277E+002                    1.24045164E-011      17.32  <-- SCF
     11  -2.47440277E+002                    2.14193915E-012      18.44  <-- SCF
     12  -2.47440277E+002                   -1.08758546E-013      19.56  <-- SCF
------------------------------------------------------------------------ <-- SCF
 
Final energy =  -247.4402774299     eV
(energy not corrected for finite basis set)
 
Calculating total energy with cut-off of 1195.000 eV.
------------------------------------------------------------------------ <-- SCF
SCF loop      Energy                           Energy gain       Timer   <-- SCF
                                               per atom          (sec)   <-- SCF
------------------------------------------------------------------------ <-- SCF
Initial  -2.47440277E+002                                         20.65  <-- SCF
      1  -2.47441410E+002                    7.08103001E-005      21.57  <-- SCF
      2  -2.47441410E+002                    7.80040462E-011      22.96  <-- SCF
      3  -2.47441411E+002                    3.58314396E-008      24.37  <-- SCF
      4  -2.47441411E+002                    2.26129863E-009      25.79  <-- SCF
      5  -2.47441411E+002                    3.12288081E-011      26.98  <-- SCF
      6  -2.47441411E+002                    1.84889529E-012      28.08  <-- SCF
      7  -2.47441411E+002                    3.08149214E-013      29.17  <-- SCF
------------------------------------------------------------------------ <-- SCF
 
Final energy =  -247.4414110060     eV
(energy not corrected for finite basis set)
 
Calculating total energy with cut-off of 1200.000 eV.
------------------------------------------------------------------------ <-- SCF
SCF loop      Energy                           Energy gain       Timer   <-- SCF
                                               per atom          (sec)   <-- SCF
------------------------------------------------------------------------ <-- SCF
Initial  -2.47441411E+002                                         30.15  <-- SCF
      1  -2.47442511E+002                    6.87222776E-005      31.04  <-- SCF
      2  -2.47442511E+002                    7.49890177E-011      32.42  <-- SCF
      3  -2.47442511E+002                    3.40802457E-008      33.82  <-- SCF
      4  -2.47442511E+002                    2.16494762E-009      35.25  <-- SCF
      5  -2.47442511E+002                    2.99750638E-011      36.38  <-- SCF
      6  -2.47442511E+002                    8.24752309E-013      37.53  <-- SCF
      7  -2.47442511E+002                    4.13886690E-013      38.64  <-- SCF
------------------------------------------------------------------------ <-- SCF
 
Final energy =  -247.4425111441     eV
(energy not corrected for finite basis set)
 
 For future reference: finite basis dEtot/dlog(Ecut) =      -0.265032eV
 Total energy corrected for finite basis set =    -247.442496 eV
 
+---------------- MEMORY AND SCRATCH DISK ESTIMATES PER PROCESS --------------+
|                                                     Memory          Disk    |
| Model and support data                               46.0 MB         0.0 MB |
| Electronic energy minimisation requirements          24.6 MB         0.0 MB |
| Geometry minimisation requirements                   28.5 MB         0.0 MB |
|                                               ----------------------------- |
| Approx. total storage required per process           99.1 MB         0.0 MB |
|                                                                             |
| Requirements will fluctuate during execution and may exceed these estimates |
+-----------------------------------------------------------------------------+
 

 ******************************** Symmetrised Forces ********************************
 *                                                                                  *
 *                           Cartesian components (eV/A)                            *
 * -------------------------------------------------------------------------------- *
 *                         x                    y                    z              *
 *                                                                                  *
 * H               1      0.00000             -0.00000             -0.00000         *
 * H               2     -0.00000             -0.00000             -0.00000         *
 * H               3      0.00000              0.00000             -0.00000         *
 * H               4     -0.00000              0.00000             -0.00000         *
 * H               5      0.00000              0.00000              0.00000         *
 * H               6     -0.00000              0.00000             -0.00000         *
 * H               7      0.00000              0.00000              0.00000         *
 * H               8     -0.00000              0.00000              0.00000         *
 * H               9      0.00000             -0.00000             -0.00000         *
 * H              10     -0.00000             -0.00000             -0.00000         *
 * H              11      0.00000              0.00000             -0.00000         *
 * H              12     -0.00000              0.00000             -0.00000         *
 * H              13      0.00000              0.00000              0.00000         *
 * H              14     -0.00000              0.00000              0.00000         *
 * H              15      0.00000              0.00000             -0.00000         *
 * H              16     -0.00000              0.00000             -0.00000         *
 *                                                                                  *
 ************************************************************************************

 *********** Symmetrised Stress Tensor ***********
 *                                               *
 *          Cartesian components (GPa)           *
 * --------------------------------------------- *
 *             x             y             z     *
 *                                               *
 *  x    -46.982090      0.000000      0.000000  *
 *  y      0.000000    -46.982078      0.000000  *
 *  z      0.000000      0.000000    -46.982097  *
 *                                               *
 *  Pressure:   46.9821                          *
 *                                               *
 *************************************************
 LBFGS: finished iteration     0 with enthalpy= -2.38143988E+002 eV
  
 +-----------+-----------------+-----------------+------------+-----+ <-- LBFGS
 | Parameter |      value      |    tolerance    |    units   | OK? | <-- LBFGS
 +-----------+-----------------+-----------------+------------+-----+ <-- LBFGS
 |  dE/ion   |   0.000000E+000 |   1.000000E-009 |         eV | No  | <-- LBFGS
 |  |F|max   |   1.568600E-007 |   1.000000E-005 |       eV/A | Yes | <-- LBFGS
 |  |dR|max  |   0.000000E+000 |   1.000000E-005 |          A | No  | <-- LBFGS
 |   Smax    |   1.698210E+001 |   1.000000E-005 |        GPa | No  | <-- LBFGS
 +-----------+-----------------+-----------------+------------+-----+ <-- LBFGS
  

================================================================================
 Starting LBFGS iteration          1 ...
================================================================================
  
 +------------+-------------+-------------+-----------------+ <-- min LBFGS
 |    Step    |   lambda    |   F.delta'  |    enthalpy     | <-- min LBFGS
 +------------+-------------+-------------+-----------------+ <-- min LBFGS
 |  previous  |    0.000000 |    0.335037 |     -238.143988 | <-- min LBFGS
 +------------+-------------+-------------+-----------------+ <-- min LBFGS
  

--------------------------------------------------------------------------------
 LBFGS: starting iteration         1 with trial guess (lambda=  1.000000)
--------------------------------------------------------------------------------
 
+---------------- MEMORY AND SCRATCH DISK ESTIMATES PER PROCESS --------------+
|                                                     Memory          Disk    |
| Model and support data                               46.2 MB         0.0 MB |
| Electronic energy minimisation requirements          25.1 MB         0.0 MB |
| Geometry minimisation requirements                   29.1 MB         0.0 MB |
|                                               ----------------------------- |
| Approx. total storage required per process          100.4 MB         0.0 MB |
|                                                                             |
| Requirements will fluctuate during execution and may exceed these estimates |
+-----------------------------------------------------------------------------+
 

                           -------------------------------
                                      Unit Cell
                           -------------------------------
        Real Lattice(A)              Reciprocal Lattice(1/A)
     2.9660902    -0.0000000     0.0000000        2.118339223   0.000000000   0.000000000
    -0.0000000     2.9563104     0.0000000        0.000000000   2.125346961   0.000000000
     0.0000000     0.0000000     5.8578145        0.000000000   0.000000000   1.072615950

                       Lattice parameters(A)       Cell Angles
                    a =      2.966090          alpha =   90.000000
                    b =      2.956310          beta  =   90.000000
                    c =      5.857815          gamma =   90.000000

                Current cell volume =            51.365321 A**3

                           -------------------------------
                                     Cell Contents
                           -------------------------------

            xxxxxxxxxxxxxxxxxxxxxxxxxxxxxxxxxxxxxxxxxxxxxxxxxxxxxxxxxxxxxxxxx
            x  Element         Atom        Fractional coordinates of atoms  x
            x                 Number           u          v          w      x
            x---------------------------------------------------------------x
            x  H                 1         0.430175   0.395466   0.000000   x
            x  H                 2        -0.430175   0.395466   0.500000   x
            x  H                 3         0.430175  -0.395466   0.500000   x
            x  H                 4        -0.430175  -0.395466   0.000000   x
            x  H                 5         0.374894   0.000000   0.250000   x
            x  H                 6        -0.374894   0.000000   0.750000   x
            x  H                 7         0.374894   0.000000   0.750000   x
            x  H                 8        -0.374894   0.000000   0.250000   x
            x  H                 9         0.930175   0.895466   0.500000   x
            x  H                10        -0.930175   0.895466   0.000000   x
            x  H                11         0.930175  -0.895466   0.000000   x
            x  H                12        -0.930175  -0.895466   0.500000   x
            x  H                13         0.874894   0.500000   0.750000   x
            x  H                14        -0.874894   0.500000   0.250000   x
            x  H                15         0.874894   0.500000   0.250000   x
            x  H                16        -0.874894   0.500000   0.750000   x
            xxxxxxxxxxxxxxxxxxxxxxxxxxxxxxxxxxxxxxxxxxxxxxxxxxxxxxxxxxxxxxxxx


------------------------------------------------------------------------ <-- SCF
SCF loop      Energy                           Energy gain       Timer   <-- SCF
                                               per atom          (sec)   <-- SCF
------------------------------------------------------------------------ <-- SCF
Initial  -2.47888589E+002                                         41.79  <-- SCF
      1  -2.47913001E+002                    1.52575169E-003      42.70  <-- SCF
      2  -2.47913051E+002                    3.13020590E-006      44.15  <-- SCF
      3  -2.47911843E+002                   -7.55006979E-005      45.73  <-- SCF
      4  -2.47911813E+002                   -1.86065053E-006      47.15  <-- SCF
      5  -2.47911815E+002                    1.10881296E-007      48.56  <-- SCF
      6  -2.47911815E+002                    1.24346214E-008      49.98  <-- SCF
      7  -2.47911815E+002                    5.38687122E-011      51.09  <-- SCF
      8  -2.47911815E+002                    5.83368758E-012      52.20  <-- SCF
      9  -2.47911815E+002                    1.63137819E-013      53.31  <-- SCF
------------------------------------------------------------------------ <-- SCF
 
Final energy =  -247.9118152829     eV
(energy not corrected for finite basis set)
 

 ******************************** Symmetrised Forces ********************************
 *                                                                                  *
 *                           Cartesian components (eV/A)                            *
 * -------------------------------------------------------------------------------- *
 *                         x                    y                    z              *
 *                                                                                  *
 * H               1      0.14080              0.21039              0.00000         *
 * H               2     -0.14080              0.21039              0.00000         *
 * H               3      0.14080             -0.21039              0.00000         *
 * H               4     -0.14080             -0.21039              0.00000         *
 * H               5      0.25322              0.00000              0.00000         *
 * H               6     -0.25322              0.00000              0.00000         *
 * H               7      0.25322              0.00000              0.00000         *
 * H               8     -0.25322              0.00000              0.00000         *
 * H               9      0.14080              0.21039              0.00000         *
 * H              10     -0.14080              0.21039              0.00000         *
 * H              11      0.14080             -0.21039              0.00000         *
 * H              12     -0.14080             -0.21039              0.00000         *
 * H              13      0.25322              0.00000             -0.00000         *
 * H              14     -0.25322              0.00000             -0.00000         *
 * H              15      0.25322              0.00000             -0.00000         *
 * H              16     -0.25322              0.00000             -0.00000         *
 *                                                                                  *
 ************************************************************************************

 *********** Symmetrised Stress Tensor ***********
 *                                               *
 *          Cartesian components (GPa)           *
 * --------------------------------------------- *
 *             x             y             z     *
 *                                               *
 *  x    -39.790960      0.000000      0.000000  *
 *  y      0.000000    -41.261223      0.000000  *
 *  z      0.000000      0.000000    -42.911027  *
 *                                               *
 *  Pressure:   41.3211                          *
 *                                               *
 *************************************************
  
 +------------+-------------+-------------+-----------------+ <-- min LBFGS
 |    Step    |   lambda    |   F.delta'  |    enthalpy     | <-- min LBFGS
 +------------+-------------+-------------+-----------------+ <-- min LBFGS
 |  previous  |    0.000000 |    0.335037 |     -238.143988 | <-- min LBFGS
 | trial step |    1.000000 |    0.228438 |     -238.293880 | <-- min LBFGS
 +------------+-------------+-------------+-----------------+ <-- min LBFGS
  

--------------------------------------------------------------------------------
 LBFGS: improving iteration         1 with line minimization (lambda=  3.142954)
--------------------------------------------------------------------------------
 
+---------------- MEMORY AND SCRATCH DISK ESTIMATES PER PROCESS --------------+
|                                                     Memory          Disk    |
| Model and support data                               46.6 MB         0.0 MB |
| Electronic energy minimisation requirements          26.3 MB         0.0 MB |
| Geometry minimisation requirements                   30.4 MB         0.0 MB |
|                                               ----------------------------- |
| Approx. total storage required per process          103.3 MB         0.0 MB |
|                                                                             |
| Requirements will fluctuate during execution and may exceed these estimates |
+-----------------------------------------------------------------------------+
 

                           -------------------------------
                                      Unit Cell
                           -------------------------------
        Real Lattice(A)              Reciprocal Lattice(1/A)
     3.0372456    -0.0000000     0.0000000        2.068711605   0.000000000   0.000000000
    -0.0000000     3.0272311     0.0000000        0.000000000   2.075555204   0.000000000
     0.0000000     0.0000000     5.9983414        0.000000000   0.000000000   1.047487116

                       Lattice parameters(A)       Cell Angles
                    a =      3.037246          alpha =   90.000000
                    b =      3.027231          beta  =   90.000000
                    c =      5.998341          gamma =   90.000000

                Current cell volume =            55.151417 A**3

                           -------------------------------
                                     Cell Contents
                           -------------------------------

            xxxxxxxxxxxxxxxxxxxxxxxxxxxxxxxxxxxxxxxxxxxxxxxxxxxxxxxxxxxxxxxxx
            x  Element         Atom        Fractional coordinates of atoms  x
            x                 Number           u          v          w      x
            x---------------------------------------------------------------x
            x  H                 1         0.430175   0.395466   0.000000   x
            x  H                 2        -0.430175   0.395466   0.500000   x
            x  H                 3         0.430175  -0.395466   0.500000   x
            x  H                 4        -0.430175  -0.395466   0.000000   x
            x  H                 5         0.374894   0.000000   0.250000   x
            x  H                 6        -0.374894   0.000000   0.750000   x
            x  H                 7         0.374894   0.000000   0.750000   x
            x  H                 8        -0.374894   0.000000   0.250000   x
            x  H                 9         0.930175   0.895466   0.500000   x
            x  H                10        -0.930175   0.895466   0.000000   x
            x  H                11         0.930175  -0.895466   0.000000   x
            x  H                12        -0.930175  -0.895466   0.500000   x
            x  H                13         0.874894   0.500000   0.750000   x
            x  H                14        -0.874894   0.500000   0.250000   x
            x  H                15         0.874894   0.500000   0.250000   x
            x  H                16        -0.874894   0.500000   0.750000   x
            xxxxxxxxxxxxxxxxxxxxxxxxxxxxxxxxxxxxxxxxxxxxxxxxxxxxxxxxxxxxxxxxx


------------------------------------------------------------------------ <-- SCF
SCF loop      Energy                           Energy gain       Timer   <-- SCF
                                               per atom          (sec)   <-- SCF
------------------------------------------------------------------------ <-- SCF
Initial  -2.48670316E+002                                         56.42  <-- SCF
      1  -2.48764183E+002                    5.86665748E-003      57.35  <-- SCF
      2  -2.48764405E+002                    1.39057450E-005      58.83  <-- SCF
      3  -2.48758941E+002                   -3.41507166E-004      60.26  <-- SCF
      4  -2.48758808E+002                   -8.35331647E-006      61.71  <-- SCF
      5  -2.48758817E+002                    5.75546055E-007      63.15  <-- SCF
      6  -2.48758818E+002                    6.72546415E-008      64.59  <-- SCF
      7  -2.48758818E+002                    3.04998238E-010      65.90  <-- SCF
      8  -2.48758818E+002                    3.57755196E-011      67.01  <-- SCF
      9  -2.48758818E+002                    4.56181680E-013      68.12  <-- SCF
     10  -2.48758818E+002                   -2.62833153E-013      69.24  <-- SCF
------------------------------------------------------------------------ <-- SCF
 
Final energy =  -248.7588180113     eV
(energy not corrected for finite basis set)
 

 ******************************** Symmetrised Forces ********************************
 *                                                                                  *
 *                           Cartesian components (eV/A)                            *
 * -------------------------------------------------------------------------------- *
 *                         x                    y                    z              *
 *                                                                                  *
 * H               1      0.42031              0.62768              0.00000         *
 * H               2     -0.42031              0.62768              0.00000         *
 * H               3      0.42031             -0.62768              0.00000         *
 * H               4     -0.42031             -0.62768              0.00000         *
 * H               5      0.75556              0.00000             -0.00000         *
 * H               6     -0.75556              0.00000              0.00000         *
 * H               7      0.75556              0.00000              0.00000         *
 * H               8     -0.75556              0.00000             -0.00000         *
 * H               9      0.42031              0.62768              0.00000         *
 * H              10     -0.42031              0.62768              0.00000         *
 * H              11      0.42031             -0.62768              0.00000         *
 * H              12     -0.42031             -0.62768              0.00000         *
 * H              13      0.75556             -0.00000             -0.00000         *
 * H              14     -0.75556              0.00000              0.00000         *
 * H              15      0.75556              0.00000              0.00000         *
 * H              16     -0.75556             -0.00000              0.00000         *
 *                                                                                  *
 ************************************************************************************

 *********** Symmetrised Stress Tensor ***********
 *                                               *
 *          Cartesian components (GPa)           *
 * --------------------------------------------- *
 *             x             y             z     *
 *                                               *
 *  x    -26.490144      0.000000      0.000000  *
 *  y      0.000000    -30.674868      0.000000  *
 *  z      0.000000      0.000000    -35.366328  *
 *                                               *
 *  Pressure:   30.8438                          *
 *                                               *
 *************************************************
  
 +------------+-------------+-------------+-----------------+ <-- min LBFGS
 |    Step    |   lambda    |   F.delta'  |    enthalpy     | <-- min LBFGS
 +------------+-------------+-------------+-----------------+ <-- min LBFGS
 |  previous  |    0.000000 |    0.335037 |     -238.143988 | <-- min LBFGS
 | trial step |    1.000000 |    0.228438 |     -238.293880 | <-- min LBFGS
 |  line step |    3.142954 |    0.017853 |     -238.432003 | <-- min LBFGS
 +------------+-------------+-------------+-----------------+ <-- min LBFGS
  
 LBFGS: finished iteration     1 with enthalpy= -2.38432003E+002 eV
  
 +-----------+-----------------+-----------------+------------+-----+ <-- LBFGS
 | Parameter |      value      |    tolerance    |    units   | OK? | <-- LBFGS
 +-----------+-----------------+-----------------+------------+-----+ <-- LBFGS
 |  dE/ion   |   1.800096E-002 |   1.000000E-009 |         eV | No  | <-- LBFGS
 |  |F|max   |   7.555593E-001 |   1.000000E-005 |       eV/A | No  | <-- LBFGS
 |  |dR|max  |   4.951785E-008 |   1.000000E-005 |          A | Yes | <-- LBFGS
 |   Smax    |   5.366328E+000 |   1.000000E-005 |        GPa | No  | <-- LBFGS
 +-----------+-----------------+-----------------+------------+-----+ <-- LBFGS
  

================================================================================
 Starting LBFGS iteration          2 ...
================================================================================
  
 +------------+-------------+-------------+-----------------+ <-- min LBFGS
 |    Step    |   lambda    |   F.delta'  |    enthalpy     | <-- min LBFGS
 +------------+-------------+-------------+-----------------+ <-- min LBFGS
 |  previous  |    0.000000 |    0.241502 |     -238.432003 | <-- min LBFGS
 +------------+-------------+-------------+-----------------+ <-- min LBFGS
  

--------------------------------------------------------------------------------
 LBFGS: starting iteration         2 with trial guess (lambda=  0.624073)
--------------------------------------------------------------------------------
 
+---------------- MEMORY AND SCRATCH DISK ESTIMATES PER PROCESS --------------+
|                                                     Memory          Disk    |
| Model and support data                               47.3 MB         0.0 MB |
| Electronic energy minimisation requirements          28.7 MB         0.0 MB |
| Geometry minimisation requirements                   33.1 MB         0.0 MB |
|                                               ----------------------------- |
| Approx. total storage required per process          109.1 MB         0.0 MB |
|                                                                             |
| Requirements will fluctuate during execution and may exceed these estimates |
+-----------------------------------------------------------------------------+
 

                           -------------------------------
                                      Unit Cell
                           -------------------------------
        Real Lattice(A)              Reciprocal Lattice(1/A)
     3.1589502    -0.0000000     0.0000000        1.989010560   0.000000000   0.000000000
    -0.0000000     3.1542996     0.0000000        0.000000000   1.991943092   0.000000000
     0.0000000     0.0000000     6.2629300        0.000000000   0.000000000   1.003234161

                       Lattice parameters(A)       Cell Angles
                    a =      3.158950          alpha =   90.000000
                    b =      3.154300          beta  =   90.000000
                    c =      6.262930          gamma =   90.000000

                Current cell volume =            62.405559 A**3

                           -------------------------------
                                     Cell Contents
                           -------------------------------

            xxxxxxxxxxxxxxxxxxxxxxxxxxxxxxxxxxxxxxxxxxxxxxxxxxxxxxxxxxxxxxxxx
            x  Element         Atom        Fractional coordinates of atoms  x
            x                 Number           u          v          w      x
            x---------------------------------------------------------------x
            x  H                 1         0.439663   0.409683   0.000000   x
            x  H                 2        -0.439663   0.409683   0.500000   x
            x  H                 3         0.439663  -0.409683   0.500000   x
            x  H                 4        -0.439663  -0.409683   0.000000   x
            x  H                 5         0.391951  -0.000000   0.250000   x
            x  H                 6        -0.391951   0.000000   0.750000   x
            x  H                 7         0.391951   0.000000   0.750000   x
            x  H                 8        -0.391951   0.000000   0.250000   x
            x  H                 9         0.939663   0.909683   0.500000   x
            x  H                10        -0.939663   0.909683   0.000000   x
            x  H                11         0.939663  -0.909683   0.000000   x
            x  H                12        -0.939663  -0.909683   0.500000   x
            x  H                13         0.891951   0.500000   0.750000   x
            x  H                14        -0.891951   0.500000   0.250000   x
            x  H                15         0.891951   0.500000   0.250000   x
            x  H                16        -0.891951   0.500000   0.750000   x
            xxxxxxxxxxxxxxxxxxxxxxxxxxxxxxxxxxxxxxxxxxxxxxxxxxxxxxxxxxxxxxxxx


------------------------------------------------------------------------ <-- SCF
SCF loop      Energy                           Energy gain       Timer   <-- SCF
                                               per atom          (sec)   <-- SCF
------------------------------------------------------------------------ <-- SCF
Initial  -2.45118640E+002                                         72.40  <-- SCF
      1  -2.50157120E+002                    3.14905014E-001      73.34  <-- SCF
      2  -2.50171493E+002                    8.98307467E-004      74.96  <-- SCF
      3  -2.49682119E+002                   -3.05858504E-002      76.42  <-- SCF
      4  -2.49666679E+002                   -9.65000155E-004      77.88  <-- SCF
      5  -2.49667197E+002                    3.23559089E-005      79.36  <-- SCF
      6  -2.49667266E+002                    4.32697170E-006      80.82  <-- SCF
      7  -2.49667267E+002                    4.08730085E-008      82.29  <-- SCF
      8  -2.49667267E+002                    3.25622483E-009      83.77  <-- SCF
      9  -2.49667267E+002                    7.49950598E-011      84.89  <-- SCF
     10  -2.49667267E+002                    3.32015673E-012      86.01  <-- SCF
     11  -2.49667267E+002                    9.03300148E-013      87.13  <-- SCF
------------------------------------------------------------------------ <-- SCF
 
Final energy =  -249.6672670596     eV
(energy not corrected for finite basis set)
 

 ******************************** Symmetrised Forces ********************************
 *                                                                                  *
 *                           Cartesian components (eV/A)                            *
 * -------------------------------------------------------------------------------- *
 *                         x                    y                    z              *
 *                                                                                  *
 * H               1     -1.27016             -1.90662              0.00000         *
 * H               2      1.27016             -1.90662              0.00000         *
 * H               3     -1.27016              1.90662              0.00000         *
 * H               4      1.27016              1.90662              0.00000         *
 * H               5     -2.40202             -0.00000             -0.00000         *
 * H               6      2.40202             -0.00000              0.00000         *
 * H               7     -2.40202              0.00000             -0.00000         *
 * H               8      2.40202              0.00000              0.00000         *
 * H               9     -1.27016             -1.90662              0.00000         *
 * H              10      1.27016             -1.90662              0.00000         *
 * H              11     -1.27016              1.90662              0.00000         *
 * H              12      1.27016              1.90662              0.00000         *
 * H              13     -2.40202              0.00000              0.00000         *
 * H              14      2.40202              0.00000             -0.00000         *
 * H              15     -2.40202              0.00000             -0.00000         *
 * H              16      2.40202             -0.00000             -0.00000         *
 *                                                                                  *
 ************************************************************************************

 *********** Symmetrised Stress Tensor ***********
 *                                               *
 *          Cartesian components (GPa)           *
 * --------------------------------------------- *
 *             x             y             z     *
 *                                               *
 *  x    -45.342548     -0.000000      0.000000  *
 *  y     -0.000000    -34.698571      0.000000  *
 *  z      0.000000      0.000000    -23.391561  *
 *                                               *
 *  Pressure:   34.4776                          *
 *                                               *
 *************************************************
  
 +------------+-------------+-------------+-----------------+ <-- min LBFGS
 |    Step    |   lambda    |   F.delta'  |    enthalpy     | <-- min LBFGS
 +------------+-------------+-------------+-----------------+ <-- min LBFGS
 |  previous  |    0.000000 |    0.241502 |     -238.432003 | <-- min LBFGS
 | trial step |    0.624073 |   -0.660190 |     -237.982106 | <-- min LBFGS
 +------------+-------------+-------------+-----------------+ <-- min LBFGS
  

--------------------------------------------------------------------------------
 LBFGS: improving iteration         2 with line minimization (lambda=  0.167147)
--------------------------------------------------------------------------------

                           -------------------------------
                                      Unit Cell
                           -------------------------------
        Real Lattice(A)              Reciprocal Lattice(1/A)
     3.0698420    -0.0000000     0.0000000        2.046745476   0.000000000   0.000000000
    -0.0000000     3.0612642     0.0000000        0.000000000   2.052480608   0.000000000
     0.0000000     0.0000000     6.0692067        0.000000000   0.000000000   1.035256434

                       Lattice parameters(A)       Cell Angles
                    a =      3.069842          alpha =   90.000000
                    b =      3.061264          beta  =   90.000000
                    c =      6.069207          gamma =   90.000000

                Current cell volume =            57.035961 A**3

                           -------------------------------
                                     Cell Contents
                           -------------------------------

            xxxxxxxxxxxxxxxxxxxxxxxxxxxxxxxxxxxxxxxxxxxxxxxxxxxxxxxxxxxxxxxxx
            x  Element         Atom        Fractional coordinates of atoms  x
            x                 Number           u          v          w      x
            x---------------------------------------------------------------x
            x  H                 1         0.432716   0.399273   0.000000   x
            x  H                 2        -0.432716   0.399273   0.500000   x
            x  H                 3         0.432716  -0.399273   0.500000   x
            x  H                 4        -0.432716  -0.399273   0.000000   x
            x  H                 5         0.379463  -0.000000   0.250000   x
            x  H                 6        -0.379463   0.000000   0.750000   x
            x  H                 7         0.379463   0.000000   0.750000   x
            x  H                 8        -0.379463   0.000000   0.250000   x
            x  H                 9         0.932716   0.899273   0.500000   x
            x  H                10        -0.932716   0.899273   0.000000   x
            x  H                11         0.932716  -0.899273   0.000000   x
            x  H                12        -0.932716  -0.899273   0.500000   x
            x  H                13         0.879463   0.500000   0.750000   x
            x  H                14        -0.879463   0.500000   0.250000   x
            x  H                15         0.879463   0.500000   0.250000   x
            x  H                16        -0.879463   0.500000   0.750000   x
            xxxxxxxxxxxxxxxxxxxxxxxxxxxxxxxxxxxxxxxxxxxxxxxxxxxxxxxxxxxxxxxxx


------------------------------------------------------------------------ <-- SCF
SCF loop      Energy                           Energy gain       Timer   <-- SCF
                                               per atom          (sec)   <-- SCF
------------------------------------------------------------------------ <-- SCF
Initial  -2.46439268E+002                                         90.25  <-- SCF
      1  -2.49516172E+002                    1.92306480E-001      91.19  <-- SCF
      2  -2.49523299E+002                    4.45482562E-004      92.63  <-- SCF
      3  -2.49230711E+002                   -1.82867447E-002      94.08  <-- SCF
      4  -2.49222171E+002                   -5.33790452E-004      95.52  <-- SCF
      5  -2.49222329E+002                    9.89521090E-006      96.96  <-- SCF
      6  -2.49222346E+002                    1.07572316E-006      98.41  <-- SCF
      7  -2.49222346E+002                    7.06823605E-009      99.88  <-- SCF
      8  -2.49222346E+002                    9.12680573E-010     101.30  <-- SCF
      9  -2.49222346E+002                    1.96158122E-011     102.42  <-- SCF
     10  -2.49222346E+002                    7.91520531E-013     103.56  <-- SCF
     11  -2.49222346E+002                    2.87001719E-013     104.69  <-- SCF
------------------------------------------------------------------------ <-- SCF
 
Final energy =  -249.2223463436     eV
(energy not corrected for finite basis set)
 

 ******************************** Symmetrised Forces ********************************
 *                                                                                  *
 *                           Cartesian components (eV/A)                            *
 * -------------------------------------------------------------------------------- *
 *                         x                    y                    z              *
 *                                                                                  *
 * H               1      0.07079              0.10250              0.00000         *
 * H               2     -0.07079              0.10250              0.00000         *
 * H               3      0.07079             -0.10250              0.00000         *
 * H               4     -0.07079             -0.10250              0.00000         *
 * H               5      0.09986              0.00000             -0.00000         *
 * H               6     -0.09986              0.00000             -0.00000         *
 * H               7      0.09986              0.00000              0.00000         *
 * H               8     -0.09986              0.00000             -0.00000         *
 * H               9      0.07079              0.10250              0.00000         *
 * H              10     -0.07079              0.10250              0.00000         *
 * H              11      0.07079             -0.10250              0.00000         *
 * H              12     -0.07079             -0.10250              0.00000         *
 * H              13      0.09986              0.00000              0.00000         *
 * H              14     -0.09986              0.00000              0.00000         *
 * H              15      0.09986              0.00000             -0.00000         *
 * H              16     -0.09986              0.00000             -0.00000         *
 *                                                                                  *
 ************************************************************************************

 *********** Symmetrised Stress Tensor ***********
 *                                               *
 *          Cartesian components (GPa)           *
 * --------------------------------------------- *
 *             x             y             z     *
 *                                               *
 *  x    -30.561925     -0.000000      0.000000  *
 *  y     -0.000000    -31.066865      0.000000  *
 *  z      0.000000      0.000000    -31.762461  *
 *                                               *
 *  Pressure:   31.1304                          *
 *                                               *
 *************************************************
  
 +------------+-------------+-------------+-----------------+ <-- min LBFGS
 |    Step    |   lambda    |   F.delta'  |    enthalpy     | <-- min LBFGS
 +------------+-------------+-------------+-----------------+ <-- min LBFGS
 |  previous  |    0.000000 |    0.241502 |     -238.432003 | <-- min LBFGS
 | trial step |    0.624073 |   -0.660190 |     -237.982106 | <-- min LBFGS
 |  line step |    0.167147 |    0.052367 |     -238.542635 | <-- min LBFGS
 +------------+-------------+-------------+-----------------+ <-- min LBFGS
  
 LBFGS: finished iteration     2 with enthalpy= -2.38542635E+002 eV
  
 +-----------+-----------------+-----------------+------------+-----+ <-- LBFGS
 | Parameter |      value      |    tolerance    |    units   | OK? | <-- LBFGS
 +-----------+-----------------+-----------------+------------+-----+ <-- LBFGS
 |  dE/ion   |   6.914465E-003 |   1.000000E-009 |         eV | No  | <-- LBFGS
 |  |F|max   |   1.245689E-001 |   1.000000E-005 |       eV/A | No  | <-- LBFGS
 |  |dR|max  |   1.402640E-002 |   1.000000E-005 |          A | No  | <-- LBFGS
 |   Smax    |   1.762461E+000 |   1.000000E-005 |        GPa | No  | <-- LBFGS
 +-----------+-----------------+-----------------+------------+-----+ <-- LBFGS
  

================================================================================
 Starting LBFGS iteration          3 ...
================================================================================
  
 +------------+-------------+-------------+-----------------+ <-- min LBFGS
 |    Step    |   lambda    |   F.delta'  |    enthalpy     | <-- min LBFGS
 +------------+-------------+-------------+-----------------+ <-- min LBFGS
 |  previous  |    0.000000 |    0.044403 |     -238.542635 | <-- min LBFGS
 +------------+-------------+-------------+-----------------+ <-- min LBFGS
  

--------------------------------------------------------------------------------
 LBFGS: starting iteration         3 with trial guess (lambda=  1.000000)
--------------------------------------------------------------------------------

                           -------------------------------
                                      Unit Cell
                           -------------------------------
        Real Lattice(A)              Reciprocal Lattice(1/A)
     3.0880139    -0.0000000     0.0000000        2.034701091   0.000000000   0.000000000
    -0.0000000     3.0795193     0.0000000        0.000000000   2.040313649   0.000000000
     0.0000000     0.0000000     6.1063935        0.000000000   0.000000000   1.028951919

                       Lattice parameters(A)       Cell Angles
                    a =      3.088014          alpha =   90.000000
                    b =      3.079519          beta  =   90.000000
                    c =      6.106393          gamma =   90.000000

                Current cell volume =            58.069351 A**3

                           -------------------------------
                                     Cell Contents
                           -------------------------------

            xxxxxxxxxxxxxxxxxxxxxxxxxxxxxxxxxxxxxxxxxxxxxxxxxxxxxxxxxxxxxxxxx
            x  Element         Atom        Fractional coordinates of atoms  x
            x                 Number           u          v          w      x
            x---------------------------------------------------------------x
            x  H                 1         0.433814   0.400778   0.000000   x
            x  H                 2        -0.433814   0.400778   0.500000   x
            x  H                 3         0.433814  -0.400778   0.500000   x
            x  H                 4        -0.433814  -0.400778   0.000000   x
            x  H                 5         0.380225  -0.000000   0.250000   x
            x  H                 6        -0.380225  -0.000000   0.750000   x
            x  H                 7         0.380225   0.000000   0.750000   x
            x  H                 8        -0.380225   0.000000   0.250000   x
            x  H                 9         0.933814   0.900778   0.500000   x
            x  H                10        -0.933814   0.900778   0.000000   x
            x  H                11         0.933814  -0.900778   0.000000   x
            x  H                12        -0.933814  -0.900778   0.500000   x
            x  H                13         0.880225   0.500000   0.750000   x
            x  H                14        -0.880225   0.500000   0.250000   x
            x  H                15         0.880225   0.500000   0.250000   x
            x  H                16        -0.880225   0.500000   0.750000   x
            xxxxxxxxxxxxxxxxxxxxxxxxxxxxxxxxxxxxxxxxxxxxxxxxxxxxxxxxxxxxxxxxx


------------------------------------------------------------------------ <-- SCF
SCF loop      Energy                           Energy gain       Timer   <-- SCF
                                               per atom          (sec)   <-- SCF
------------------------------------------------------------------------ <-- SCF
Initial  -2.49379651E+002                                        107.91  <-- SCF
      1  -2.49425979E+002                    2.89548791E-003     108.85  <-- SCF
      2  -2.49426110E+002                    8.16668733E-006     110.37  <-- SCF
      3  -2.49421710E+002                   -2.75013182E-004     111.82  <-- SCF
      4  -2.49421574E+002                   -8.50390415E-006     113.27  <-- SCF
      5  -2.49421577E+002                    1.99599198E-007     114.71  <-- SCF
      6  -2.49421577E+002                    2.38373719E-008     116.16  <-- SCF
      7  -2.49421577E+002                    2.51147652E-010     117.48  <-- SCF
      8  -2.49421577E+002                    3.47966927E-011     118.59  <-- SCF
      9  -2.49421577E+002                    9.78826916E-013     119.71  <-- SCF
     10  -2.49421577E+002                    2.02411739E-013     120.82  <-- SCF
------------------------------------------------------------------------ <-- SCF
 
Final energy =  -249.4215771754     eV
(energy not corrected for finite basis set)
 

 ******************************** Symmetrised Forces ********************************
 *                                                                                  *
 *                           Cartesian components (eV/A)                            *
 * -------------------------------------------------------------------------------- *
 *                         x                    y                    z              *
 *                                                                                  *
 * H               1     -0.07289             -0.11362             -0.00000         *
 * H               2      0.07289             -0.11362             -0.00000         *
 * H               3     -0.07289              0.11362             -0.00000         *
 * H               4      0.07289              0.11362             -0.00000         *
 * H               5      0.08026             -0.00000              0.00000         *
 * H               6     -0.08026              0.00000             -0.00000         *
 * H               7      0.08026              0.00000              0.00000         *
 * H               8     -0.08026             -0.00000              0.00000         *
 * H               9     -0.07289             -0.11362             -0.00000         *
 * H              10      0.07289             -0.11362             -0.00000         *
 * H              11     -0.07289              0.11362             -0.00000         *
 * H              12      0.07289              0.11362             -0.00000         *
 * H              13      0.08026             -0.00000              0.00000         *
 * H              14     -0.08026             -0.00000              0.00000         *
 * H              15      0.08026             -0.00000             -0.00000         *
 * H              16     -0.08026              0.00000             -0.00000         *
 *                                                                                  *
 ************************************************************************************

 *********** Symmetrised Stress Tensor ***********
 *                                               *
 *          Cartesian components (GPa)           *
 * --------------------------------------------- *
 *             x             y             z     *
 *                                               *
 *  x    -29.748630      0.000000      0.000000  *
 *  y      0.000000    -30.866586      0.000000  *
 *  z      0.000000      0.000000    -30.078237  *
 *                                               *
 *  Pressure:   30.2312                          *
 *                                               *
 *************************************************
  
 +------------+-------------+-------------+-----------------+ <-- min LBFGS
 |    Step    |   lambda    |   F.delta'  |    enthalpy     | <-- min LBFGS
 +------------+-------------+-------------+-----------------+ <-- min LBFGS
 |  previous  |    0.000000 |    0.044403 |     -238.542635 | <-- min LBFGS
 | trial step |    1.000000 |   -0.009503 |     -238.548363 | <-- min LBFGS
 +------------+-------------+-------------+-----------------+ <-- min LBFGS
  
 LBFGS: finished iteration     3 with enthalpy= -2.38548363E+002 eV
  
 +-----------+-----------------+-----------------+------------+-----+ <-- LBFGS
 | Parameter |      value      |    tolerance    |    units   | OK? | <-- LBFGS
 +-----------+-----------------+-----------------+------------+-----+ <-- LBFGS
 |  dE/ion   |   3.580218E-004 |   1.000000E-009 |         eV | No  | <-- LBFGS
 |  |F|max   |   1.349902E-001 |   1.000000E-005 |       eV/A | No  | <-- LBFGS
 |  |dR|max  |   5.740590E-003 |   1.000000E-005 |          A | No  | <-- LBFGS
 |   Smax    |   8.665856E-001 |   1.000000E-005 |        GPa | No  | <-- LBFGS
 +-----------+-----------------+-----------------+------------+-----+ <-- LBFGS
  

================================================================================
 Starting LBFGS iteration          4 ...
================================================================================
  
 +------------+-------------+-------------+-----------------+ <-- min LBFGS
 |    Step    |   lambda    |   F.delta'  |    enthalpy     | <-- min LBFGS
 +------------+-------------+-------------+-----------------+ <-- min LBFGS
 |  previous  |    0.000000 |    0.034238 |     -238.548363 | <-- min LBFGS
 +------------+-------------+-------------+-----------------+ <-- min LBFGS
  

--------------------------------------------------------------------------------
 LBFGS: starting iteration         4 with trial guess (lambda=  1.000000)
--------------------------------------------------------------------------------

                           -------------------------------
                                      Unit Cell
                           -------------------------------
        Real Lattice(A)              Reciprocal Lattice(1/A)
     3.1035854    -0.0000000     0.0000000        2.024492498   0.000000000   0.000000000
    -0.0000000     3.0973765     0.0000000        0.000000000   2.028550733   0.000000000
     0.0000000     0.0000000     6.1403782        0.000000000   0.000000000   1.023257061

                       Lattice parameters(A)       Cell Angles
                    a =      3.103585          alpha =   90.000000
                    b =      3.097376          beta  =   90.000000
                    c =      6.140378          gamma =   90.000000

                Current cell volume =            59.027285 A**3

                           -------------------------------
                                     Cell Contents
                           -------------------------------

            xxxxxxxxxxxxxxxxxxxxxxxxxxxxxxxxxxxxxxxxxxxxxxxxxxxxxxxxxxxxxxxxx
            x  Element         Atom        Fractional coordinates of atoms  x
            x                 Number           u          v          w      x
            x---------------------------------------------------------------x
            x  H                 1         0.433057   0.399380   0.000000   x
            x  H                 2        -0.433057   0.399380   0.500000   x
            x  H                 3         0.433057  -0.399380   0.500000   x
            x  H                 4        -0.433057  -0.399380   0.000000   x
            x  H                 5         0.383848  -0.000000   0.250000   x
            x  H                 6        -0.383848  -0.000000   0.750000   x
            x  H                 7         0.383848   0.000000   0.750000   x
            x  H                 8        -0.383848  -0.000000   0.250000   x
            x  H                 9         0.933057   0.899380   0.500000   x
            x  H                10        -0.933057   0.899380   0.000000   x
            x  H                11         0.933057  -0.899380   0.000000   x
            x  H                12        -0.933057  -0.899380   0.500000   x
            x  H                13         0.883848   0.500000   0.750000   x
            x  H                14        -0.883848   0.500000   0.250000   x
            x  H                15         0.883848   0.500000   0.250000   x
            x  H                16        -0.883848   0.500000   0.750000   x
            xxxxxxxxxxxxxxxxxxxxxxxxxxxxxxxxxxxxxxxxxxxxxxxxxxxxxxxxxxxxxxxxx


------------------------------------------------------------------------ <-- SCF
SCF loop      Energy                           Energy gain       Timer   <-- SCF
                                               per atom          (sec)   <-- SCF
------------------------------------------------------------------------ <-- SCF
Initial  -2.49456942E+002                                        123.95  <-- SCF
      1  -2.49583645E+002                    7.91890086E-003     124.90  <-- SCF
      2  -2.49583987E+002                    2.14001607E-005     126.41  <-- SCF
      3  -2.49570402E+002                   -8.49047079E-004     127.86  <-- SCF
      4  -2.49570189E+002                   -1.33159293E-005     129.32  <-- SCF
      5  -2.49570194E+002                    3.13006854E-007     130.77  <-- SCF
      6  -2.49570195E+002                    3.91882600E-008     132.22  <-- SCF
      7  -2.49570195E+002                    2.21868643E-009     133.67  <-- SCF
      8  -2.49570195E+002                    3.90322338E-010     135.13  <-- SCF
      9  -2.49570195E+002                    6.83668306E-012     136.25  <-- SCF
     10  -2.49570195E+002                    4.44097397E-013     137.37  <-- SCF
------------------------------------------------------------------------ <-- SCF
 
Final energy =  -249.5701951082     eV
(energy not corrected for finite basis set)
 

 ******************************** Symmetrised Forces ********************************
 *                                                                                  *
 *                           Cartesian components (eV/A)                            *
 * -------------------------------------------------------------------------------- *
 *                         x                    y                    z              *
 *                                                                                  *
 * H               1      0.19297              0.28803              0.00000         *
 * H               2     -0.19297              0.28803              0.00000         *
 * H               3      0.19297             -0.28803              0.00000         *
 * H               4     -0.19297             -0.28803              0.00000         *
 * H               5     -0.64498             -0.00000              0.00000         *
 * H               6      0.64498              0.00000             -0.00000         *
 * H               7     -0.64498             -0.00000             -0.00000         *
 * H               8      0.64498              0.00000              0.00000         *
 * H               9      0.19297              0.28803              0.00000         *
 * H              10     -0.19297              0.28803              0.00000         *
 * H              11      0.19297             -0.28803              0.00000         *
 * H              12     -0.19297             -0.28803              0.00000         *
 * H              13     -0.64498              0.00000              0.00000         *
 * H              14      0.64498              0.00000              0.00000         *
 * H              15     -0.64498              0.00000              0.00000         *
 * H              16      0.64498              0.00000             -0.00000         *
 *                                                                                  *
 ************************************************************************************

 *********** Symmetrised Stress Tensor ***********
 *                                               *
 *          Cartesian components (GPa)           *
 * --------------------------------------------- *
 *             x             y             z     *
 *                                               *
 *  x    -32.713738      0.000000      0.000000  *
 *  y      0.000000    -26.740178      0.000000  *
 *  z      0.000000      0.000000    -28.641892  *
 *                                               *
 *  Pressure:   29.3653                          *
 *                                               *
 *************************************************
  
 +------------+-------------+-------------+-----------------+ <-- min LBFGS
 |    Step    |   lambda    |   F.delta'  |    enthalpy     | <-- min LBFGS
 +------------+-------------+-------------+-----------------+ <-- min LBFGS
 |  previous  |    0.000000 |    0.034238 |     -238.548363 | <-- min LBFGS
 | trial step |    1.000000 |   -0.186865 |     -238.517627 | <-- min LBFGS
 +------------+-------------+-------------+-----------------+ <-- min LBFGS
  

--------------------------------------------------------------------------------
 LBFGS: improving iteration         4 with line minimization (lambda=  0.154849)
--------------------------------------------------------------------------------

                           -------------------------------
                                      Unit Cell
                           -------------------------------
        Real Lattice(A)              Reciprocal Lattice(1/A)
     3.0904252    -0.0000000     0.0000000        2.033113566   0.000000000   0.000000000
    -0.0000000     3.0822845     0.0000000        0.000000000   2.038483251   0.000000000
     0.0000000     0.0000000     6.1116560        0.000000000   0.000000000   1.028065931

                       Lattice parameters(A)       Cell Angles
                    a =      3.090425          alpha =   90.000000
                    b =      3.082284          beta  =   90.000000
                    c =      6.111656          gamma =   90.000000

                Current cell volume =            58.217004 A**3

                           -------------------------------
                                     Cell Contents
                           -------------------------------

            xxxxxxxxxxxxxxxxxxxxxxxxxxxxxxxxxxxxxxxxxxxxxxxxxxxxxxxxxxxxxxxxx
            x  Element         Atom        Fractional coordinates of atoms  x
            x                 Number           u          v          w      x
            x---------------------------------------------------------------x
            x  H                 1         0.433697   0.400561   0.000000   x
            x  H                 2        -0.433697   0.400561   0.500000   x
            x  H                 3         0.433697  -0.400561   0.500000   x
            x  H                 4        -0.433697  -0.400561   0.000000   x
            x  H                 5         0.380786  -0.000000   0.250000   x
            x  H                 6        -0.380786  -0.000000   0.750000   x
            x  H                 7         0.380786   0.000000   0.750000   x
            x  H                 8        -0.380786  -0.000000   0.250000   x
            x  H                 9         0.933697   0.900561   0.500000   x
            x  H                10        -0.933697   0.900561   0.000000   x
            x  H                11         0.933697  -0.900561   0.000000   x
            x  H                12        -0.933697  -0.900561   0.500000   x
            x  H                13         0.880786   0.500000   0.750000   x
[...]
            x  H                15         0.880599   0.500000   0.250000   x
            x  H                16        -0.880599   0.500000   0.750000   x
            xxxxxxxxxxxxxxxxxxxxxxxxxxxxxxxxxxxxxxxxxxxxxxxxxxxxxxxxxxxxxxxxx


------------------------------------------------------------------------ <-- SCF
SCF loop      Energy                           Energy gain       Timer   <-- SCF
                                               per atom          (sec)   <-- SCF
------------------------------------------------------------------------ <-- SCF
Initial  -2.49434947E+002                                        349.15  <-- SCF
      1  -2.49434947E+002                    2.94373132E-011     350.07  <-- SCF
      2  -2.49434947E+002                    6.04214146E-015     351.17  <-- SCF
      3  -2.49434947E+002                    1.19634401E-012     352.29  <-- SCF
      4  -2.49434947E+002                   -2.23559234E-013     353.41  <-- SCF
------------------------------------------------------------------------ <-- SCF
 
Final energy =  -249.4349474730     eV
(energy not corrected for finite basis set)
 

 ******************************** Symmetrised Forces ********************************
 *                                                                                  *
 *                           Cartesian components (eV/A)                            *
 * -------------------------------------------------------------------------------- *
 *                         x                    y                    z              *
 *                                                                                  *
 * H               1     -0.00000              0.00000             -0.00000         *
 * H               2      0.00000              0.00000             -0.00000         *
 * H               3     -0.00000             -0.00000             -0.00000         *
 * H               4      0.00000             -0.00000             -0.00000         *
 * H               5      0.00000             -0.00000              0.00000         *
 * H               6     -0.00000              0.00000              0.00000         *
 * H               7      0.00000             -0.00000              0.00000         *
 * H               8     -0.00000             -0.00000              0.00000         *
 * H               9     -0.00000              0.00000             -0.00000         *
 * H              10      0.00000              0.00000             -0.00000         *
 * H              11     -0.00000             -0.00000             -0.00000         *
 * H              12      0.00000             -0.00000             -0.00000         *
 * H              13      0.00000             -0.00000             -0.00000         *
 * H              14     -0.00000             -0.00000              0.00000         *
 * H              15      0.00000             -0.00000             -0.00000         *
 * H              16     -0.00000              0.00000             -0.00000         *
 *                                                                                  *
 ************************************************************************************

 *********** Symmetrised Stress Tensor ***********
 *                                               *
 *          Cartesian components (GPa)           *
 * --------------------------------------------- *
 *             x             y             z     *
 *                                               *
 *  x    -29.999999      0.000000      0.000000  *
 *  y      0.000000    -30.000003      0.000000  *
 *  z      0.000000      0.000000    -29.999998  *
 *                                               *
 *  Pressure:   30.0000                          *
 *                                               *
 *************************************************
  
 +------------+-------------+-------------+-----------------+ <-- min LBFGS
 |    Step    |   lambda    |   F.delta'  |    enthalpy     | <-- min LBFGS
 +------------+-------------+-------------+-----------------+ <-- min LBFGS
 |  previous  |    0.000000 |  3.893E-007 |     -238.549823 | <-- min LBFGS
 | trial step |    1.000000 |  1.432E-007 |     -238.549823 | <-- min LBFGS
 |  line step |    1.582138 | -1.345E-008 |     -238.549823 | <-- min LBFGS
 +------------+-------------+-------------+-----------------+ <-- min LBFGS
  
 LBFGS: finished iteration    15 with enthalpy= -2.38549823E+002 eV
  
 +-----------+-----------------+-----------------+------------+-----+ <-- LBFGS
 | Parameter |      value      |    tolerance    |    units   | OK? | <-- LBFGS
 +-----------+-----------------+-----------------+------------+-----+ <-- LBFGS
 |  dE/ion   |   9.848691E-013 |   1.000000E-009 |         eV | Yes | <-- LBFGS
 |  |F|max   |   1.344779E-007 |   1.000000E-005 |       eV/A | Yes | <-- LBFGS
 |  |dR|max  |   3.369326E-006 |   1.000000E-005 |          A | Yes | <-- LBFGS
 |   Smax    |   2.513596E-006 |   1.000000E-005 |        GPa | Yes | <-- LBFGS
 +-----------+-----------------+-----------------+------------+-----+ <-- LBFGS
  
 LBFGS: Geometry optimization completed successfully.

================================================================================
 LBFGS: Final Configuration:
================================================================================

                           -------------------------------
                                      Unit Cell
                           -------------------------------
        Real Lattice(A)              Reciprocal Lattice(1/A)
     3.0886572    -0.0000000     0.0000000        2.034277330   0.000000000   0.000000000
    -0.0000000     3.0836656     0.0000000        0.000000000   2.037570256   0.000000000
     0.0000000     0.0000000     6.1035923        0.000000000   0.000000000   1.029424145

                       Lattice parameters(A)       Cell Angles
                    a =      3.088657          alpha =   90.000000
                    b =      3.083666          beta  =   90.000000
                    c =      6.103592          gamma =   90.000000

                Current cell volume =            58.132969 A**3

                           -------------------------------
                                     Cell Contents
                           -------------------------------

            xxxxxxxxxxxxxxxxxxxxxxxxxxxxxxxxxxxxxxxxxxxxxxxxxxxxxxxxxxxxxxxxx
            x  Element         Atom        Fractional coordinates of atoms  x
            x                 Number           u          v          w      x
            x---------------------------------------------------------------x
            x  H                 1         0.436119   0.398700   0.000000   x
            x  H                 2        -0.436119   0.398700   0.500000   x
            x  H                 3         0.436119  -0.398700   0.500000   x
            x  H                 4        -0.436119  -0.398700   0.000000   x
            x  H                 5         0.380599  -0.000000   0.250000   x
            x  H                 6        -0.380599   0.000000   0.750000   x
            x  H                 7         0.380599  -0.000000   0.750000   x
            x  H                 8        -0.380599  -0.000000   0.250000   x
            x  H                 9         0.936119   0.898700   0.500000   x
            x  H                10        -0.936119   0.898700   0.000000   x
            x  H                11         0.936119  -0.898700   0.000000   x
            x  H                12        -0.936119  -0.898700   0.500000   x
            x  H                13         0.880599   0.500000   0.750000   x
            x  H                14        -0.880599   0.500000   0.250000   x
            x  H                15         0.880599   0.500000   0.250000   x
            x  H                16        -0.880599   0.500000   0.750000   x
            xxxxxxxxxxxxxxxxxxxxxxxxxxxxxxxxxxxxxxxxxxxxxxxxxxxxxxxxxxxxxxxxx


 LBFGS: Final Enthalpy     = -2.38549823E+002 eV
 LBFGS: Final <frequency>  =     266.27707 cm-1
 LBFGS: Final bulk modulus =      88.46929 GPa

 ******************************** Symmetrised Forces ********************************
 *                                                                                  *
 *                           Cartesian components (eV/A)                            *
 * -------------------------------------------------------------------------------- *
 *                         x                    y                    z              *
 *                                                                                  *
 * H               1     -0.00000              0.00000             -0.00000         *
 * H               2      0.00000              0.00000             -0.00000         *
 * H               3     -0.00000             -0.00000             -0.00000         *
 * H               4      0.00000             -0.00000             -0.00000         *
 * H               5      0.00000             -0.00000              0.00000         *
 * H               6     -0.00000              0.00000              0.00000         *
 * H               7      0.00000             -0.00000              0.00000         *
 * H               8     -0.00000             -0.00000              0.00000         *
 * H               9     -0.00000              0.00000             -0.00000         *
 * H              10      0.00000              0.00000             -0.00000         *
 * H              11     -0.00000             -0.00000             -0.00000         *
 * H              12      0.00000             -0.00000             -0.00000         *
 * H              13      0.00000             -0.00000             -0.00000         *
 * H              14     -0.00000             -0.00000              0.00000         *
 * H              15      0.00000             -0.00000             -0.00000         *
 * H              16     -0.00000              0.00000             -0.00000         *
 *                                                                                  *
 ************************************************************************************

 *********** Symmetrised Stress Tensor ***********
 *                                               *
 *          Cartesian components (GPa)           *
 * --------------------------------------------- *
 *             x             y             z     *
 *                                               *
 *  x    -29.999999      0.000000      0.000000  *
 *  y      0.000000    -30.000003      0.000000  *
 *  z      0.000000      0.000000    -29.999998  *
 *                                               *
 *  Pressure:   30.0000                          *
 *                                               *
 *************************************************

 Pseudo atomic calculation performed for H 1s1

 Converged in 24 iterations to a total energy of -12.4843 eV

Charge spilling parameter for spin component 1 = 0.78%

            Orbital Populations       
     Ion    Atom   Orbital             Charge
  -------------------------------------------
      H     1      S                    0.998
      H     2      S                    1.001
      H     3      S                    1.001
      H     4      S                    0.998
      H     5      S                    1.001
      H     6      S                    1.001
      H     7      S                    1.000
      H     8      S                    1.000
      H     9      S                    0.998
      H    10      S                    1.001
      H    11      S                    1.001
      H    12      S                    0.998
      H    13      S                    1.001
      H    14      S                    1.001
      H    15      S                    1.000
      H    16      S                    1.000
  -------------------------------------------
                           Total:      16.000
  -------------------------------------------

     Atomic Populations (Mulliken)
     -----------------------------
Species          Ion     s      p      d      f     Total  Charge (e)
=====================================================================
  H               1     1.00   0.00   0.00   0.00   1.00     0.00
  H               2     1.00   0.00   0.00   0.00   1.00     0.00
  H               3     1.00   0.00   0.00   0.00   1.00     0.00
  H               4     1.00   0.00   0.00   0.00   1.00     0.00
  H               5     1.00   0.00   0.00   0.00   1.00    -0.00
  H               6     1.00   0.00   0.00   0.00   1.00    -0.00
  H               7     1.00   0.00   0.00   0.00   1.00    -0.00
  H               8     1.00   0.00   0.00   0.00   1.00    -0.00
  H               9     1.00   0.00   0.00   0.00   1.00     0.00
  H              10     1.00   0.00   0.00   0.00   1.00     0.00
  H              11     1.00   0.00   0.00   0.00   1.00     0.00
  H              12     1.00   0.00   0.00   0.00   1.00     0.00
  H              13     1.00   0.00   0.00   0.00   1.00    -0.00
  H              14     1.00   0.00   0.00   0.00   1.00    -0.00
  H              15     1.00   0.00   0.00   0.00   1.00    -0.00
  H              16     1.00   0.00   0.00   0.00   1.00    -0.00
=====================================================================

                 Bond                   Population      Length (A)
======================================================================
              H 6  -- H 7                    1.31        0.73758
              H 5  -- H 8                    1.31        0.73758
              H 14 -- H 15                   1.31        0.73758
              H 13 -- H 16                   1.31        0.73758
              H 2  -- H 3                    1.31        0.73894
              H 1  -- H 4                    1.31        0.73894
              H 10 -- H 11                   1.31        0.73894
              H 9  -- H 12                   1.31        0.73894
              H 8  -- H 15                  -0.18        1.74014
              H 7  -- H 16                  -0.18        1.74014
              H 6  -- H 13                  -0.18        1.74014
              H 5  -- H 14                  -0.18        1.74014
              H 4  -- H 10                  -0.19        1.79610
              H 3  -- H 9                   -0.19        1.79610
              H 2  -- H 12                  -0.19        1.79610
              H 1  -- H 11                  -0.19        1.79610
              H 7  -- H 10                  -0.08        1.83926
              H 4  -- H 15                  -0.08        1.83926
              H 3  -- H 16                  -0.08        1.83926
              H 2  -- H 13                  -0.08        1.83926
              H 1  -- H 14                  -0.08        1.83926
              H 8  -- H 11                  -0.08        1.83926
              H 8  -- H 9                   -0.08        1.83926
              H 7  -- H 12                  -0.08        1.83926
              H 6  -- H 11                  -0.08        1.83926
              H 6  -- H 9                   -0.08        1.83926
              H 5  -- H 12                  -0.08        1.83926
              H 5  -- H 10                  -0.08        1.83926
              H 4  -- H 13                  -0.08        1.83926
              H 3  -- H 14                  -0.08        1.83926
              H 2  -- H 15                  -0.08        1.83926
              H 1  -- H 16                  -0.08        1.83926
              H 4  -- H 11                  -0.20        1.92330
              H 3  -- H 12                  -0.20        1.92330
              H 2  -- H 9                   -0.20        1.92330
              H 1  -- H 10                  -0.20        1.92330
              H 12 -- H 16                  -0.09        1.96706
              H 11 -- H 15                  -0.09        1.96706
              H 11 -- H 13                  -0.09        1.96706
              H 10 -- H 14                  -0.09        1.96706
              H 9  -- H 15                  -0.09        1.96706
              H 9  -- H 13                  -0.09        1.96706
              H 12 -- H 14                  -0.09        1.96706
              H 10 -- H 16                  -0.09        1.96706
              H 4  -- H 8                   -0.09        1.96706
              H 3  -- H 7                   -0.09        1.96706
              H 2  -- H 6                   -0.09        1.96706
              H 1  -- H 5                   -0.09        1.96706
              H 4  -- H 6                   -0.09        1.96706
              H 3  -- H 5                   -0.09        1.96706
              H 2  -- H 8                   -0.09        1.96706
              H 1  -- H 7                   -0.09        1.96706
              H 4  -- H 7                   -0.09        2.03970
              H 4  -- H 5                   -0.09        2.03970
              H 3  -- H 8                   -0.09        2.03970
              H 3  -- H 6                   -0.09        2.03970
              H 2  -- H 7                   -0.09        2.03970
              H 2  -- H 5                   -0.09        2.03970
              H 1  -- H 8                   -0.09        2.03970
              H 1  -- H 6                   -0.09        2.03970
              H 12 -- H 13                  -0.09        2.03970
              H 11 -- H 14                  -0.09        2.03970
              H 10 -- H 15                  -0.09        2.03970
              H 9  -- H 16                  -0.09        2.03970
              H 12 -- H 15                  -0.09        2.03970
              H 11 -- H 16                  -0.09        2.03970
              H 10 -- H 13                  -0.09        2.03970
              H 9  -- H 14                  -0.09        2.03970
              H 4  -- H 14                  -0.09        2.07621
              H 3  -- H 13                  -0.09        2.07621
              H 2  -- H 16                  -0.09        2.07621
              H 1  -- H 15                  -0.09        2.07621
              H 4  -- H 16                  -0.09        2.07621
              H 3  -- H 15                  -0.09        2.07621
              H 2  -- H 14                  -0.09        2.07621
              H 1  -- H 13                  -0.09        2.07621
              H 8  -- H 12                  -0.09        2.07621
              H 7  -- H 11                  -0.09        2.07621
              H 6  -- H 10                  -0.09        2.07621
              H 5  -- H 9                   -0.09        2.07621
              H 8  -- H 10                  -0.09        2.07621
              H 7  -- H 9                   -0.09        2.07621
              H 6  -- H 12                  -0.09        2.07621
              H 5  -- H 11                  -0.09        2.07621
              H 8  -- H 14                  -0.21        2.18225
              H 7  -- H 13                  -0.21        2.18225
              H 6  -- H 16                  -0.21        2.18225
              H 5  -- H 15                  -0.21        2.18225
======================================================================


Writing analysis data to Hibam.castep_bin

Writing model to Hibam.check
 
 A BibTeX formatted list of references used in this run has been written to 
 Hibam.bib
 
Initialisation time =      2.70 s
Calculation time    =    354.24 s
Finalisation time   =      1.12 s
Total time          =    358.06 s
Peak Memory Use     = 505252 kB
  
Overall parallel efficiency rating: Excellent (96%)                             
  
Data was distributed by:-
k-point (16-way); efficiency rating: Excellent (96%)                            
  
Parallel notes:
1) Calculation only took 357.2 s, so efficiency estimates may be inaccurate.    
