 +-------------------------------------------------+
 |                                                 |
 |      CCC   AA    SSS  TTTTT  EEEEE  PPPP        |
 |     C     A  A  S       T    E      P   P       |
 |     C     AAAA   SS     T    EEE    PPPP        |
 |     C     A  A     S    T    E      P           |
 |      CCC  A  A  SSS     T    EEEEE  P           |
 |                                                 |
 +-------------------------------------------------+
 |                                                 |
 | Welcome to Academic Release CASTEP version 18.1 |          
 | Ab Initio Total Energy Program                  |
 |                                                 |
 | Authors:                                        |
 | M. Segall, M. Probert, C. Pickard, P. Hasnip,   |
 | S. Clark, K. Refson, J. R. Yates, M. Payne      |
 |                                                 |
 | Contributors:                                   |
 | P. Lindan, P. Haynes, J. White, V. Milman,      |
 | N. Govind, M. Gibson, P. Tulip, V. Cocula,      |
 | B. Montanari, D. Quigley, M. Glover,            |
 | L. Bernasconi, A. Perlov, M. Plummer,           |
 | E. McNellis, J. Meyer, J. Gale, D. Jochym       |
 | J. Aarons, B. Walker, R. Gillen, D. Jones       |
 | T. Green, I. J. Bush, C. J. Armstrong,          |
 | E. J. Higgins, E. L. Brown, M. S. McFly,        |
 | J. Wilkins, B-C. Shih, P. J. P. Byrne           |
 |                                                 |
 | Copyright (c) 2000 - 2017                       |
 |                                                 |
 |     Distributed under the terms of an           |
 |     Agreement between the United Kingdom        |
 |     Car-Parrinello (UKCP) Consortium,           |
 |     Daresbury Laboratory and Accelrys, Inc.     |
 |                                                 |
 | Please cite                                     |
 |                                                 |
 |     "First principles methods using CASTEP"     |
 |                                                 |
 |         Zeitschrift fuer Kristallographie       |
 |           220(5-6) pp. 567-570 (2005)           |
 |                                                 |
 | S. J. Clark, M. D. Segall, C. J. Pickard,       |
 | P. J. Hasnip, M. J. Probert, K. Refson,         |
 | M. C. Payne                                     |
 |                                                 |
 |       in all publications arising from          |
 |              your use of CASTEP                 |
 |                                                 |
 +-------------------------------------------------+


 Compiled for linux_x86_64_gfortran4.8 on Thu, 19 Jul 2018 15:42:32 +0100
 from code version 70483bd0ad64+  Sun, 10 Dec 2017 12:18:29 +0000
 Compiler: GNU Fortran 4.8.5; Optimisation: fast
 MATHLIBS: Intel MKL(2018.0.0) (LAPACK version 3.7.0)
 FFT Lib : mkl
 Fundamental constants values: CODATA 2014

 Run started: Fri, 21 Aug 2020 12:47:21 +0100

 Atomic calculation performed for H: 1s1

 Converged in 41 iterations to an ae energy of -12.488 eV

   ============================================================                
   | Pseudopotential Report - Date of generation 21-08-2020   |                
   ------------------------------------------------------------                
   | Element: H Ionic charge:  1.00 Level of theory: PBE      |                
   | Atomic Solver: Koelling-Harmon                           |                
   |                                                          |                
   |               Reference Electronic Structure             |                
   |         Orbital         Occupation         Energy        |                
   |            1s              1.000           -0.239        |                
   |                                                          |                
   |                 Pseudopotential Definition               |                
   |        Beta     l      e      Rc     scheme   norm       |                
   |         loc     0   -0.239   0.702     qc      1         |                
   |                                                          |                
   | No charge augmentation                                   |                
   | No partial core correction                               |                
   ------------------------------------------------------------                
   | "0|0.7|2|6|8|10L(qc=10)"                                 |                
   ------------------------------------------------------------                
   |      Author: Chris J. Pickard, Cambridge University      |                
   ============================================================                

 Pseudo atomic calculation performed for H 1s1

 Converged in 24 iterations to a total energy of -12.4843 eV

 Calculation parallelised over 16 processes.
 Data is distributed by k-point(16-way)

 ************************************ Title ************************************
 

 ***************************** General Parameters ******************************
  
 output verbosity                               : normal  (1)
 write checkpoint data to                       : Hibam.check
 type of calculation                            : geometry optimization
 stress calculation                             : on
 density difference calculation                 : off
 electron localisation func (ELF) calculation   : off
 Hirshfeld analysis                             : off
 unlimited duration calculation
 timing information                             : on
 memory usage estimate                          : on
 write extra output files                       : on
 write final potential to formatted file        : off
 write final density to formatted file          : off
 write structure in CELL formatted file         : on
 write BibTeX reference list                    : on
 write OTFG pseudopotential files               : on
 write electrostatic potential file             : on
 write bands file                               : on
 checkpoint writing                             : both castep_bin and check files
  
 output         length unit                     : A
 output           mass unit                     : amu
 output           time unit                     : ps
 output         charge unit                     : e
 output           spin unit                     : hbar/2
 output         energy unit                     : eV
 output          force unit                     : eV/A
 output       velocity unit                     : A/ps
 output       pressure unit                     : GPa
 output     inv_length unit                     : 1/A
 output      frequency unit                     : cm-1
 output force constant unit                     : eV/A**2
 output         volume unit                     : A**3
 output   IR intensity unit                     : (D/A)**2/amu
 output         dipole unit                     : D
 output         efield unit                     : eV/A/e
 output        entropy unit                     : J/mol/K
  
 wavefunctions paging                           : none
 random number generator seed                   : randomised (124721360)
 data distribution                              : optimal for this architecture
 optimization strategy                          : maximize speed(+++)

 *********************** Exchange-Correlation Parameters ***********************
  
 using functional                               : Perdew Burke Ernzerhof
 relativistic treatment                         : Koelling-Harmon
 DFT+D: Semi-empirical dispersion correction    : off

 ************************* Pseudopotential Parameters **************************
  
 pseudopotential representation                 : reciprocal space
 <beta|phi> representation                      : reciprocal space
 spin-orbit coupling                            : off

 **************************** Basis Set Parameters *****************************
  
 plane wave basis set cut-off                   :  1200.0000   eV
 size of standard grid                          :     2.0000
 size of   fine   gmax                          :    35.4943   1/A
 finite basis set correction                    : automatic
 number of sample energies                      :          3
           sample  spacing                      :     5.0000   eV

 **************************** Electronic Parameters ****************************
  
 number of  electrons                           :  16.00    
 net charge of system                           :  0.000    
 treating system as non-spin-polarized
 number of bands                                :          8

 ********************* Electronic Minimization Parameters **********************
  
 Method: Treating system as non-metallic,
         and number of  SD  steps               :          1
         and number of  CG  steps               :          4
  
 total energy / atom convergence tol.           : 0.1000E-10   eV
 eigen-energy convergence tolerance             : 0.2000E-10   eV
 max force / atom convergence tol.              : ignored
 convergence tolerance window                   :          3   cycles
 max. number of SCF cycles                      :        100
 periodic dipole correction                     : NONE

 ************************** Density Mixing Parameters **************************
  
 density-mixing scheme                          : Broyden
 max. length of mixing history                  :         20
 charge density mixing amplitude                : 0.8000    
 cut-off energy for mixing                      :  1200.       eV

 *********************** Population Analysis Parameters ************************
  
 Population analysis with cutoff                :  3.000       A
 Population analysis output                     : summary and pdos components

 ********************** Geometry Optimization Parameters ***********************
  
 optimization method                            : LBFGS
 max. no. of LBFGS updates                      : unbounded
 variable cell method                           : fixed basis quality
 max. number of steps                           :         60
 estimated bulk modulus                         :  500.0       GPa
 estimated <frequency>                          :  1668.       cm-1
 geom line minimiser                            : on
 with line minimiser tolerance                  :     0.4000
 total energy convergence tolerance             : 0.1000E-08   eV/atom
        max ionic |force| tolerance             : 0.1000E-04   eV/A
 max ionic |displacement| tolerance             : 0.1000E-04   A
   max |stress component| tolerance             : 0.1000E-04   GPa
 convergence tolerance window                   :          2   steps
 backup results every                           :      14400   seconds
 write geom trajectory file                     : on

 *******************************************************************************
  

                           -------------------------------
                                      Unit Cell
                           -------------------------------
        Real Lattice(A)                      Reciprocal Lattice(1/A)
     2.8266402    -0.0000000     0.0000000        2.222845839   0.000000000   0.000000000
    -0.0000000     2.8141362     0.0000000        0.000000000   2.232722550   0.000000000
     0.0000000     0.0000000     5.5795780        0.000000000   0.000000000   1.126104034

                       Lattice parameters(A)       Cell Angles
                    a =      2.826640          alpha =   90.000000
                    b =      2.814136          beta  =   90.000000
                    c =      5.579578          gamma =   90.000000

                       Current cell volume =            44.383034       A**3
                                   density =             0.363360   AMU/A**3
                                           =             0.603374     g/cm^3

                           -------------------------------
                                     Cell Contents
                           -------------------------------
                         Total number of ions in cell =   16
                      Total number of species in cell =    1
                        Max number of any one species =   16

            xxxxxxxxxxxxxxxxxxxxxxxxxxxxxxxxxxxxxxxxxxxxxxxxxxxxxxxxxxxx
            x  Element    Atom        Fractional coordinates of atoms  x
            x            Number           u          v          w      x
            x----------------------------------------------------------x
            x  H            1         0.426383   0.392780   0.000000   x 
            x  H            2        -0.426383   0.392780   0.500000   x 
            x  H            3         0.426383  -0.392780   0.500000   x 
            x  H            4        -0.426383  -0.392780   0.000000   x 
            x  H            5         0.370728  -0.000000   0.250000   x 
            x  H            6        -0.370728  -0.000000   0.750000   x 
            x  H            7         0.370728  -0.000000   0.750000   x 
            x  H            8        -0.370728   0.000000   0.250000   x 
            x  H            9         0.926383   0.892780   0.500000   x 
            x  H           10        -0.926383   0.892780   0.000000   x 
            x  H           11         0.926383  -0.892780  -0.000000   x 
            x  H           12        -0.926383  -0.892780   0.500000   x 
            x  H           13         0.870728   0.500000   0.750000   x 
            x  H           14        -0.870728   0.500000   0.250000   x 
            x  H           15         0.870728   0.500000   0.250000   x 
            x  H           16        -0.870728   0.500000   0.750000   x 
            xxxxxxxxxxxxxxxxxxxxxxxxxxxxxxxxxxxxxxxxxxxxxxxxxxxxxxxxxxxx


                         No user defined ionic velocities

                           -------------------------------
                                   Details of Species
                           -------------------------------

                               Mass of species in AMU
                                    H    1.0079400

                          Electric Quadrupole Moment (Barn)
                                    H    0.0028600 Isotope  2

                          Files used for pseudopotentials:
                                    H 0|0.7|2|6|8|10L(qc=10)

                           -------------------------------
                              k-Points For BZ Sampling
                           -------------------------------
                       MP grid size for SCF calculation is  8  8  8
                            with an offset of   0.000  0.000  0.000
                       Number of kpoints used =            64

                           -------------------------------
                               Symmetry and Constraints
                           -------------------------------

                      Cell is a supercell containing 2 primitive cells
                      Maximum deviation from symmetry = 0.282438E-14     ANG

                      Number of symmetry operations   =          16
                      Number of ionic constraints     =           3
                      Point group of crystal =     8: D2h, mmm, 2/m 2/m 2/m
                      Space group of crystal =    72: Ibam, -I 2 2c

             Set iprint > 1 for details on symmetry rotations/translations

                         Centre of mass is constrained
             Set iprint > 1 for details of linear ionic constraints

                         Number of cell constraints= 3
                         Cell constraints are:  1 2 3 0 0 0

                         External pressure/stress (GPa)
                         47.00000   0.00000   0.00000
                                   47.00000   0.00000
                                             47.00000
  
+---------------- MEMORY AND SCRATCH DISK ESTIMATES PER PROCESS --------------+
|                                                     Memory          Disk    |
| Baseline code, static data and system overhead      415.0 MB         0.0 MB |
| BLAS internal memory storage                          0.0 MB         0.0 MB |
| Model and support data                               33.2 MB         0.0 MB |
| Electronic energy minimisation requirements          20.4 MB         0.0 MB |
| Force calculation requirements                        7.5 MB         0.0 MB |
| Stress calculation requirements                       9.5 MB         0.0 MB |
|                                               ----------------------------- |
| Approx. total storage required per process          468.6 MB         0.0 MB |
|                                                                             |
| Requirements will fluctuate during execution and may exceed these estimates |
+-----------------------------------------------------------------------------+
Calculating finite basis set correction with  3 cut-off energies.
Calculating total energy with cut-off of 1190.000 eV.
------------------------------------------------------------------------ <-- SCF
SCF loop      Energy                           Energy gain       Timer   <-- SCF
                                               per atom          (sec)   <-- SCF
------------------------------------------------------------------------ <-- SCF
Initial   4.10727082E+002                                          3.42  <-- SCF
      1  -1.97555849E+002                    3.80176832E+001       4.32  <-- SCF
      2  -2.46310512E+002                    3.04716644E+000       4.89  <-- SCF
      3  -2.47204867E+002                    5.58971480E-002       5.38  <-- SCF
      4  -2.45680932E+002                   -9.52459462E-002       6.38  <-- SCF
      5  -2.45629133E+002                   -3.23740122E-003       7.38  <-- SCF
      6  -2.45631249E+002                    1.32250643E-004       8.37  <-- SCF
      7  -2.45631486E+002                    1.47843022E-005       9.36  <-- SCF
      8  -2.45631486E+002                    4.94232459E-008      10.37  <-- SCF
      9  -2.45631487E+002                    3.68886633E-009      11.38  <-- SCF
     10  -2.45631487E+002                    2.87243405E-011      12.14  <-- SCF
     11  -2.45631487E+002                    1.16915437E-012      12.89  <-- SCF
     12  -2.45631487E+002                   -5.13582024E-013      13.65  <-- SCF
------------------------------------------------------------------------ <-- SCF
 
Final energy =  -245.6314865330     eV
(energy not corrected for finite basis set)
 
Calculating total energy with cut-off of 1195.000 eV.
------------------------------------------------------------------------ <-- SCF
SCF loop      Energy                           Energy gain       Timer   <-- SCF
                                               per atom          (sec)   <-- SCF
------------------------------------------------------------------------ <-- SCF
Initial  -2.45631487E+002                                         14.32  <-- SCF
      1  -2.45632601E+002                    6.96702247E-005      14.97  <-- SCF
      2  -2.45632601E+002                    8.07713470E-011      15.94  <-- SCF
      3  -2.45632602E+002                    3.18252460E-008      16.94  <-- SCF
      4  -2.45632602E+002                    1.79309309E-009      17.93  <-- SCF
      5  -2.45632602E+002                    1.98091608E-011      18.75  <-- SCF
      6  -2.45632602E+002                    1.75524209E-012      19.53  <-- SCF
      7  -2.45632602E+002                    3.89718124E-013      20.30  <-- SCF
------------------------------------------------------------------------ <-- SCF
 
Final energy =  -245.6326017961     eV
(energy not corrected for finite basis set)
 
Calculating total energy with cut-off of 1200.000 eV.
------------------------------------------------------------------------ <-- SCF
SCF loop      Energy                           Energy gain       Timer   <-- SCF
                                               per atom          (sec)   <-- SCF
------------------------------------------------------------------------ <-- SCF
Initial  -2.45632602E+002                                         20.97  <-- SCF
      1  -2.45633767E+002                    7.28227893E-005      21.63  <-- SCF
      2  -2.45633767E+002                    8.12335708E-011      22.63  <-- SCF
      3  -2.45633768E+002                    3.46035737E-008      23.65  <-- SCF
      4  -2.45633768E+002                    1.93627976E-009      24.65  <-- SCF
      5  -2.45633768E+002                    2.18030675E-011      25.45  <-- SCF
      6  -2.45633768E+002                    5.31708448E-013      26.25  <-- SCF
      7  -2.45633768E+002                    5.55877014E-013      27.03  <-- SCF
------------------------------------------------------------------------ <-- SCF
 
Final energy =  -245.6337675470     eV
(energy not corrected for finite basis set)
 
 For future reference: finite basis dEtot/dlog(Ecut) =      -0.273360eV
 Total energy corrected for finite basis set =    -245.633762 eV
 
+---------------- MEMORY AND SCRATCH DISK ESTIMATES PER PROCESS --------------+
|                                                     Memory          Disk    |
| Model and support data                               41.2 MB         0.0 MB |
| Electronic energy minimisation requirements          20.4 MB         0.0 MB |
| Geometry minimisation requirements                   23.6 MB         0.0 MB |
|                                               ----------------------------- |
| Approx. total storage required per process           85.1 MB         0.0 MB |
|                                                                             |
| Requirements will fluctuate during execution and may exceed these estimates |
+-----------------------------------------------------------------------------+
 

 ******************************** Symmetrised Forces ********************************
 *                                                                                  *
 *                           Cartesian components (eV/A)                            *
 * -------------------------------------------------------------------------------- *
 *                         x                    y                    z              *
 *                                                                                  *
 * H               1      0.00000             -0.00000              0.00000         *
 * H               2     -0.00000             -0.00000              0.00000         *
 * H               3      0.00000              0.00000              0.00000         *
 * H               4     -0.00000              0.00000              0.00000         *
 * H               5      0.00000             -0.00000             -0.00000         *
 * H               6     -0.00000             -0.00000             -0.00000         *
 * H               7      0.00000              0.00000              0.00000         *
 * H               8     -0.00000              0.00000             -0.00000         *
 * H               9      0.00000             -0.00000              0.00000         *
 * H              10     -0.00000             -0.00000              0.00000         *
 * H              11      0.00000              0.00000              0.00000         *
 * H              12     -0.00000              0.00000              0.00000         *
 * H              13      0.00000              0.00000              0.00000         *
 * H              14     -0.00000              0.00000             -0.00000         *
 * H              15      0.00000              0.00000              0.00000         *
 * H              16     -0.00000              0.00000             -0.00000         *
 *                                                                                  *
 ************************************************************************************

 *********** Symmetrised Stress Tensor ***********
 *                                               *
 *          Cartesian components (GPa)           *
 * --------------------------------------------- *
 *             x             y             z     *
 *                                               *
 *  x    -64.009610     -0.000000      0.000000  *
 *  y     -0.000000    -64.009614      0.000000  *
 *  z      0.000000      0.000000    -64.009611  *
 *                                               *
 *  Pressure:   64.0096                          *
 *                                               *
 *************************************************
 LBFGS: finished iteration     0 with enthalpy= -2.32613958E+002 eV
  
 +-----------+-----------------+-----------------+------------+-----+ <-- LBFGS
 | Parameter |      value      |    tolerance    |    units   | OK? | <-- LBFGS
 +-----------+-----------------+-----------------+------------+-----+ <-- LBFGS
 |  dE/ion   |   0.000000E+000 |   1.000000E-009 |         eV | No  | <-- LBFGS
 |  |F|max   |   6.084719E-008 |   1.000000E-005 |       eV/A | Yes | <-- LBFGS
 |  |dR|max  |   0.000000E+000 |   1.000000E-005 |          A | No  | <-- LBFGS
 |   Smax    |   1.700961E+001 |   1.000000E-005 |        GPa | No  | <-- LBFGS
 +-----------+-----------------+-----------------+------------+-----+ <-- LBFGS
  

================================================================================
 Starting LBFGS iteration          1 ...
================================================================================
  
 +------------+-------------+-------------+-----------------+ <-- min LBFGS
 |    Step    |   lambda    |   F.delta'  |    enthalpy     | <-- min LBFGS
 +------------+-------------+-------------+-----------------+ <-- min LBFGS
 |  previous  |    0.000000 |    0.299924 |     -232.613958 | <-- min LBFGS
 +------------+-------------+-------------+-----------------+ <-- min LBFGS
  

--------------------------------------------------------------------------------
 LBFGS: starting iteration         1 with trial guess (lambda=  1.000000)
--------------------------------------------------------------------------------
 
+---------------- MEMORY AND SCRATCH DISK ESTIMATES PER PROCESS --------------+
|                                                     Memory          Disk    |
| Model and support data                               44.1 MB         0.0 MB |
| Electronic energy minimisation requirements          22.4 MB         0.0 MB |
| Geometry minimisation requirements                   26.0 MB         0.0 MB |
|                                               ----------------------------- |
| Approx. total storage required per process           92.5 MB         0.0 MB |
|                                                                             |
| Requirements will fluctuate during execution and may exceed these estimates |
+-----------------------------------------------------------------------------+
 

                           -------------------------------
                                      Unit Cell
                           -------------------------------
        Real Lattice(A)              Reciprocal Lattice(1/A)
     2.8586935    -0.0000000     0.0000000        2.197921975   0.000000000   0.000000000
    -0.0000000     2.8460478     0.0000000        0.000000000   2.207687937   0.000000000
     0.0000000     0.0000000     5.6428490        0.000000000   0.000000000   1.113477488

                       Lattice parameters(A)       Cell Angles
                    a =      2.858694          alpha =   90.000000
                    b =      2.846048          beta  =   90.000000
                    c =      5.642849          gamma =   90.000000

                Current cell volume =            45.910097 A**3

                           -------------------------------
                                     Cell Contents
                           -------------------------------

            xxxxxxxxxxxxxxxxxxxxxxxxxxxxxxxxxxxxxxxxxxxxxxxxxxxxxxxxxxxxxxxxx
            x  Element         Atom        Fractional coordinates of atoms  x
            x                 Number           u          v          w      x
            x---------------------------------------------------------------x
            x  H                 1         0.426383   0.392780   0.000000   x
            x  H                 2        -0.426383   0.392780   0.500000   x
            x  H                 3         0.426383  -0.392780   0.500000   x
            x  H                 4        -0.426383  -0.392780   0.000000   x
            x  H                 5         0.370728   0.000000   0.250000   x
            x  H                 6        -0.370728  -0.000000   0.750000   x
            x  H                 7         0.370728  -0.000000   0.750000   x
            x  H                 8        -0.370728   0.000000   0.250000   x
            x  H                 9         0.926383   0.892780   0.500000   x
            x  H                10        -0.926383   0.892780   0.000000   x
            x  H                11         0.926383  -0.892780   0.000000   x
            x  H                12        -0.926383  -0.892780   0.500000   x
            x  H                13         0.870728   0.500000   0.750000   x
            x  H                14        -0.870728   0.500000   0.250000   x
            x  H                15         0.870728   0.500000   0.250000   x
            x  H                16        -0.870728   0.500000   0.750000   x
            xxxxxxxxxxxxxxxxxxxxxxxxxxxxxxxxxxxxxxxxxxxxxxxxxxxxxxxxxxxxxxxxx


------------------------------------------------------------------------ <-- SCF
SCF loop      Energy                           Energy gain       Timer   <-- SCF
                                               per atom          (sec)   <-- SCF
------------------------------------------------------------------------ <-- SCF
Initial  -2.46185973E+002                                         29.49  <-- SCF
      1  -2.46209780E+002                    1.48791413E-003      30.47  <-- SCF
      2  -2.46209828E+002                    3.00694598E-006      31.72  <-- SCF
      3  -2.46208845E+002                   -6.14359053E-005      32.96  <-- SCF
      4  -2.46208820E+002                   -1.55384344E-006      34.20  <-- SCF
      5  -2.46208822E+002                    7.91592856E-008      35.44  <-- SCF
      6  -2.46208822E+002                    8.31264529E-009      36.68  <-- SCF
      7  -2.46208822E+002                    3.31622934E-011      37.65  <-- SCF
      8  -2.46208822E+002                    3.63434809E-012      38.62  <-- SCF
      9  -2.46208822E+002                   -4.41076327E-013      39.59  <-- SCF
------------------------------------------------------------------------ <-- SCF
 
Final energy =  -246.2088218004     eV
(energy not corrected for finite basis set)
 

 ******************************** Symmetrised Forces ********************************
 *                                                                                  *
 *                           Cartesian components (eV/A)                            *
 * -------------------------------------------------------------------------------- *
 *                         x                    y                    z              *
 *                                                                                  *
 * H               1      0.14072              0.20505             -0.00000         *
 * H               2     -0.14072              0.20505             -0.00000         *
 * H               3      0.14072             -0.20505             -0.00000         *
 * H               4     -0.14072             -0.20505             -0.00000         *
 * H               5      0.24949              0.00000              0.00000         *
 * H               6     -0.24949              0.00000              0.00000         *
 * H               7      0.24949              0.00000              0.00000         *
 * H               8     -0.24949              0.00000              0.00000         *
 * H               9      0.14072              0.20505             -0.00000         *
 * H              10     -0.14072              0.20505             -0.00000         *
 * H              11      0.14072             -0.20505             -0.00000         *
 * H              12     -0.14072             -0.20505             -0.00000         *
 * H              13      0.24949              0.00000              0.00000         *
 * H              14     -0.24949              0.00000             -0.00000         *
 * H              15      0.24949              0.00000              0.00000         *
 * H              16     -0.24949              0.00000             -0.00000         *
 *                                                                                  *
 ************************************************************************************

 *********** Symmetrised Stress Tensor ***********
 *                                               *
 *          Cartesian components (GPa)           *
 * --------------------------------------------- *
 *             x             y             z     *
 *                                               *
 *  x    -55.129178      0.000000      0.000000  *
 *  y      0.000000    -56.803264      0.000000  *
 *  z      0.000000      0.000000    -58.584864  *
 *                                               *
 *  Pressure:   56.8391                          *
 *                                               *
 *************************************************
  
 +------------+-------------+-------------+-----------------+ <-- min LBFGS
 |    Step    |   lambda    |   F.delta'  |    enthalpy     | <-- min LBFGS
 +------------+-------------+-------------+-----------------+ <-- min LBFGS
 |  previous  |    0.000000 |    0.299924 |     -232.613958 | <-- min LBFGS
 | trial step |    1.000000 |    0.177446 |     -232.741059 | <-- min LBFGS
 +------------+-------------+-------------+-----------------+ <-- min LBFGS
  

--------------------------------------------------------------------------------
 LBFGS: improving iteration         1 with line minimization (lambda=  2.448801)
--------------------------------------------------------------------------------
 
+---------------- MEMORY AND SCRATCH DISK ESTIMATES PER PROCESS --------------+
|                                                     Memory          Disk    |
| Model and support data                               45.9 MB         0.0 MB |
| Electronic energy minimisation requirements          24.1 MB         0.0 MB |
| Geometry minimisation requirements                   27.9 MB         0.0 MB |
|                                               ----------------------------- |
| Approx. total storage required per process           97.9 MB         0.0 MB |
|                                                                             |
| Requirements will fluctuate during execution and may exceed these estimates |
+-----------------------------------------------------------------------------+
 

                           -------------------------------
                                      Unit Cell
                           -------------------------------
        Real Lattice(A)              Reciprocal Lattice(1/A)
     2.9051325    -0.0000000     0.0000000        2.162787890   0.000000000   0.000000000
    -0.0000000     2.8922813     0.0000000        0.000000000   2.172397736   0.000000000
     0.0000000     0.0000000     5.7345160        0.000000000   0.000000000   1.095678397

                       Lattice parameters(A)       Cell Angles
                    a =      2.905132          alpha =   90.000000
                    b =      2.892281          beta  =   90.000000
                    c =      5.734516          gamma =   90.000000

                Current cell volume =            48.184043 A**3

                           -------------------------------
                                     Cell Contents
                           -------------------------------

            xxxxxxxxxxxxxxxxxxxxxxxxxxxxxxxxxxxxxxxxxxxxxxxxxxxxxxxxxxxxxxxxx
            x  Element         Atom        Fractional coordinates of atoms  x
            x                 Number           u          v          w      x
            x---------------------------------------------------------------x
            x  H                 1         0.426383   0.392780   0.000000   x
            x  H                 2        -0.426383   0.392780   0.500000   x
            x  H                 3         0.426383  -0.392780   0.500000   x
            x  H                 4        -0.426383  -0.392780   0.000000   x
            x  H                 5         0.370728   0.000000   0.250000   x
            x  H                 6        -0.370728  -0.000000   0.750000   x
            x  H                 7         0.370728  -0.000000   0.750000   x
            x  H                 8        -0.370728   0.000000   0.250000   x
            x  H                 9         0.926383   0.892780   0.500000   x
            x  H                10        -0.926383   0.892780   0.000000   x
            x  H                11         0.926383  -0.892780   0.000000   x
            x  H                12        -0.926383  -0.892780   0.500000   x
            x  H                13         0.870728   0.500000   0.750000   x
            x  H                14        -0.870728   0.500000   0.250000   x
            x  H                15         0.870728   0.500000   0.250000   x
            x  H                16        -0.870728   0.500000   0.750000   x
            xxxxxxxxxxxxxxxxxxxxxxxxxxxxxxxxxxxxxxxxxxxxxxxxxxxxxxxxxxxxxxxxx


------------------------------------------------------------------------ <-- SCF
SCF loop      Energy                           Energy gain       Timer   <-- SCF
                                               per atom          (sec)   <-- SCF
------------------------------------------------------------------------ <-- SCF
Initial  -2.46904670E+002                                         42.52  <-- SCF
      1  -2.46949493E+002                    2.80147829E-003      43.42  <-- SCF
      2  -2.46949593E+002                    6.20504715E-006      44.84  <-- SCF
      3  -2.46947543E+002                   -1.28095548E-004      46.26  <-- SCF
      4  -2.46947490E+002                   -3.29985435E-006      47.68  <-- SCF
      5  -2.46947493E+002                    1.79789272E-007      49.09  <-- SCF
      6  -2.46947493E+002                    1.93570847E-008      50.53  <-- SCF
      7  -2.46947493E+002                    7.97985623E-011      51.62  <-- SCF
      8  -2.46947493E+002                    8.61911479E-012      52.72  <-- SCF
      9  -2.46947493E+002                   -5.80045580E-013      53.82  <-- SCF
------------------------------------------------------------------------ <-- SCF
 
Final energy =  -246.9474934420     eV
(energy not corrected for finite basis set)
 

 ******************************** Symmetrised Forces ********************************
 *                                                                                  *
 *                           Cartesian components (eV/A)                            *
 * -------------------------------------------------------------------------------- *
 *                         x                    y                    z              *
 *                                                                                  *
 * H               1      0.33297              0.48489             -0.00000         *
 * H               2     -0.33297              0.48489             -0.00000         *
 * H               3      0.33297             -0.48489             -0.00000         *
 * H               4     -0.33297             -0.48489             -0.00000         *
 * H               5      0.58967             -0.00000              0.00000         *
 * H               6     -0.58967             -0.00000              0.00000         *
 * H               7      0.58967              0.00000              0.00000         *
 * H               8     -0.58967             -0.00000              0.00000         *
 * H               9      0.33297              0.48489             -0.00000         *
 * H              10     -0.33297              0.48489             -0.00000         *
 * H              11      0.33297             -0.48489             -0.00000         *
 * H              12     -0.33297             -0.48489             -0.00000         *
 * H              13      0.58967             -0.00000              0.00000         *
 * H              14     -0.58967              0.00000              0.00000         *
 * H              15      0.58967             -0.00000             -0.00000         *
 * H              16     -0.58967              0.00000             -0.00000         *
 *                                                                                  *
 ************************************************************************************

 *********** Symmetrised Stress Tensor ***********
 *                                               *
 *          Cartesian components (GPa)           *
 * --------------------------------------------- *
 *             x             y             z     *
 *                                               *
 *  x    -43.647105     -0.000000      0.000000  *
 *  y     -0.000000    -47.478048      0.000000  *
 *  z      0.000000      0.000000    -51.557075  *
 *                                               *
 *  Pressure:   47.5607                          *
 *                                               *
 *************************************************
  
 +------------+-------------+-------------+-----------------+ <-- min LBFGS
 |    Step    |   lambda    |   F.delta'  |    enthalpy     | <-- min LBFGS
 +------------+-------------+-------------+-----------------+ <-- min LBFGS
 |  previous  |    0.000000 |    0.299924 |     -232.613958 | <-- min LBFGS
 | trial step |    1.000000 |    0.177446 |     -232.741059 | <-- min LBFGS
 |  line step |    2.448801 |    0.010444 |     -232.812668 | <-- min LBFGS
 +------------+-------------+-------------+-----------------+ <-- min LBFGS
  
 LBFGS: finished iteration     1 with enthalpy= -2.32812668E+002 eV
  
 +-----------+-----------------+-----------------+------------+-----+ <-- LBFGS
 | Parameter |      value      |    tolerance    |    units   | OK? | <-- LBFGS
 +-----------+-----------------+-----------------+------------+-----+ <-- LBFGS
 |  dE/ion   |   1.241937E-002 |   1.000000E-009 |         eV | No  | <-- LBFGS
 |  |F|max   |   5.896723E-001 |   1.000000E-005 |       eV/A | No  | <-- LBFGS
 |  |dR|max  |   1.485307E-008 |   1.000000E-005 |          A | Yes | <-- LBFGS
 |   Smax    |   4.557075E+000 |   1.000000E-005 |        GPa | No  | <-- LBFGS
 +-----------+-----------------+-----------------+------------+-----+ <-- LBFGS
  

================================================================================
 Starting LBFGS iteration          2 ...
================================================================================
  
 +------------+-------------+-------------+-----------------+ <-- min LBFGS
 |    Step    |   lambda    |   F.delta'  |    enthalpy     | <-- min LBFGS
 +------------+-------------+-------------+-----------------+ <-- min LBFGS
 |  previous  |    0.000000 |    0.195869 |     -232.812668 | <-- min LBFGS
 +------------+-------------+-------------+-----------------+ <-- min LBFGS
  

--------------------------------------------------------------------------------
 LBFGS: starting iteration         2 with trial guess (lambda=  0.996580)
--------------------------------------------------------------------------------
 
+---------------- MEMORY AND SCRATCH DISK ESTIMATES PER PROCESS --------------+
|                                                     Memory          Disk    |
| Model and support data                               46.5 MB         0.0 MB |
| Electronic energy minimisation requirements          26.2 MB         0.0 MB |
| Geometry minimisation requirements                   30.3 MB         0.0 MB |
|                                               ----------------------------- |
| Approx. total storage required per process          103.0 MB         0.0 MB |
|                                                                             |
| Requirements will fluctuate during execution and may exceed these estimates |
+-----------------------------------------------------------------------------+
 

                           -------------------------------
                                      Unit Cell
                           -------------------------------
        Real Lattice(A)              Reciprocal Lattice(1/A)
     3.0229169    -0.0000000     0.0000000        2.078517362   0.000000000   0.000000000
    -0.0000000     3.0173836     0.0000000        0.000000000   2.082328953   0.000000000
     0.0000000     0.0000000     5.9991046        0.000000000   0.000000000   1.047353849

                       Lattice parameters(A)       Cell Angles
                    a =      3.022917          alpha =   90.000000
                    b =      3.017384          beta  =   90.000000
                    c =      5.999105          gamma =   90.000000

                Current cell volume =            54.719633 A**3

                           -------------------------------
                                     Cell Contents
                           -------------------------------

            xxxxxxxxxxxxxxxxxxxxxxxxxxxxxxxxxxxxxxxxxxxxxxxxxxxxxxxxxxxxxxxxx
            x  Element         Atom        Fractional coordinates of atoms  x
            x                 Number           u          v          w      x
            x---------------------------------------------------------------x
            x  H                 1         0.438508   0.410514   0.000000   x
            x  H                 2        -0.438508   0.410514   0.500000   x
            x  H                 3         0.438508  -0.410514   0.500000   x
            x  H                 4        -0.438508  -0.410514   0.000000   x
            x  H                 5         0.392200   0.000000   0.250000   x
            x  H                 6        -0.392200  -0.000000   0.750000   x
            x  H                 7         0.392200  -0.000000   0.750000   x
            x  H                 8        -0.392200  -0.000000   0.250000   x
            x  H                 9         0.938508   0.910514   0.500000   x
            x  H                10        -0.938508   0.910514   0.000000   x
            x  H                11         0.938508  -0.910514   0.000000   x
            x  H                12        -0.938508  -0.910514   0.500000   x
            x  H                13         0.892200   0.500000   0.750000   x
            x  H                14        -0.892200   0.500000   0.250000   x
            x  H                15         0.892200   0.500000   0.250000   x
            x  H                16        -0.892200   0.500000   0.750000   x
            xxxxxxxxxxxxxxxxxxxxxxxxxxxxxxxxxxxxxxxxxxxxxxxxxxxxxxxxxxxxxxxxx


------------------------------------------------------------------------ <-- SCF
SCF loop      Energy                           Energy gain       Timer   <-- SCF
                                               per atom          (sec)   <-- SCF
------------------------------------------------------------------------ <-- SCF
Initial  -2.41105452E+002                                         56.98  <-- SCF
      1  -2.48190252E+002                    4.42799977E-001      57.90  <-- SCF
      2  -2.48209718E+002                    1.21663781E-003      59.33  <-- SCF
      3  -2.47575685E+002                   -3.96270792E-002      60.78  <-- SCF
      4  -2.47554977E+002                   -1.29421417E-003      62.21  <-- SCF
      5  -2.47555529E+002                    3.45095770E-005      63.68  <-- SCF
      6  -2.47555599E+002                    4.33431772E-006      65.13  <-- SCF
      7  -2.47555599E+002                    4.06751283E-008      66.60  <-- SCF
      8  -2.47555599E+002                    2.57603378E-009      68.03  <-- SCF
      9  -2.47555599E+002                    9.01940666E-011      69.14  <-- SCF
     10  -2.47555599E+002                    9.69763704E-013      70.25  <-- SCF
     11  -2.47555599E+002                    1.61325177E-012      71.36  <-- SCF
------------------------------------------------------------------------ <-- SCF
 
Final energy =  -247.5555994657     eV
(energy not corrected for finite basis set)
 

 ******************************** Symmetrised Forces ********************************
 *                                                                                  *
 *                           Cartesian components (eV/A)                            *
 * -------------------------------------------------------------------------------- *
 *                         x                    y                    z              *
 *                                                                                  *
 * H               1     -2.16204             -3.15089              0.00000         *
 * H               2      2.16204             -3.15089              0.00000         *
 * H               3     -2.16204              3.15089              0.00000         *
 * H               4      2.16204              3.15089              0.00000         *
 * H               5     -4.01943              0.00000              0.00000         *
 * H               6      4.01943              0.00000              0.00000         *
 * H               7     -4.01943              0.00000              0.00000         *
 * H               8      4.01943              0.00000             -0.00000         *
 * H               9     -2.16204             -3.15089              0.00000         *
 * H              10      2.16204             -3.15089              0.00000         *
 * H              11     -2.16204              3.15089              0.00000         *
 * H              12      2.16204              3.15089              0.00000         *
 * H              13     -4.01943              0.00000             -0.00000         *
 * H              14      4.01943              0.00000             -0.00000         *
 * H              15     -4.01943              0.00000             -0.00000         *
 * H              16      4.01943              0.00000              0.00000         *
 *                                                                                  *
 ************************************************************************************

 *********** Symmetrised Stress Tensor ***********
 *                                               *
 *          Cartesian components (GPa)           *
 * --------------------------------------------- *
 *             x             y             z     *
 *                                               *
 *  x    -74.048707      0.000000      0.000000  *
 *  y      0.000000    -53.848743      0.000000  *
 *  z      0.000000      0.000000    -33.621669  *
 *                                               *
 *  Pressure:   53.8397                          *
 *                                               *
 *************************************************
  
 +------------+-------------+-------------+-----------------+ <-- min LBFGS
 |    Step    |   lambda    |   F.delta'  |    enthalpy     | <-- min LBFGS
 +------------+-------------+-------------+-----------------+ <-- min LBFGS
 |  previous  |    0.000000 |    0.195869 |     -232.812668 | <-- min LBFGS
 | trial step |    0.996580 |   -1.213627 |     -231.503547 | <-- min LBFGS
 +------------+-------------+-------------+-----------------+ <-- min LBFGS
  

--------------------------------------------------------------------------------
 LBFGS: improving iteration         2 with line minimization (lambda=  0.138489)
--------------------------------------------------------------------------------

                           -------------------------------
                                      Unit Cell
                           -------------------------------
        Real Lattice(A)              Reciprocal Lattice(1/A)
     2.9215003    -0.0000000     0.0000000        2.150670802   0.000000000   0.000000000
    -0.0000000     2.9096660     0.0000000        0.000000000   2.159418058   0.000000000
     0.0000000     0.0000000     5.7712843        0.000000000   0.000000000   1.088697938

                       Lattice parameters(A)       Cell Angles
                    a =      2.921500          alpha =   90.000000
                    b =      2.909666          beta  =   90.000000
                    c =      5.771284          gamma =   90.000000

                Current cell volume =            49.059321 A**3

                           -------------------------------
                                     Cell Contents
                           -------------------------------

            xxxxxxxxxxxxxxxxxxxxxxxxxxxxxxxxxxxxxxxxxxxxxxxxxxxxxxxxxxxxxxxxx
            x  Element         Atom        Fractional coordinates of atoms  x
            x                 Number           u          v          w      x
            x---------------------------------------------------------------x
            x  H                 1         0.428068   0.395244   0.000000   x
            x  H                 2        -0.428068   0.395244   0.500000   x
            x  H                 3         0.428068  -0.395244   0.500000   x
            x  H                 4        -0.428068  -0.395244   0.000000   x
            x  H                 5         0.373712   0.000000   0.250000   x
            x  H                 6        -0.373712  -0.000000   0.750000   x
            x  H                 7         0.373712  -0.000000   0.750000   x
            x  H                 8        -0.373712  -0.000000   0.250000   x
            x  H                 9         0.928068   0.895244   0.500000   x
            x  H                10        -0.928068   0.895244   0.000000   x
            x  H                11         0.928068  -0.895244   0.000000   x
            x  H                12        -0.928068  -0.895244   0.500000   x
            x  H                13         0.873712   0.500000   0.750000   x
            x  H                14        -0.873712   0.500000   0.250000   x
            x  H                15         0.873712   0.500000   0.250000   x
            x  H                16        -0.873712   0.500000   0.750000   x
            xxxxxxxxxxxxxxxxxxxxxxxxxxxxxxxxxxxxxxxxxxxxxxxxxxxxxxxxxxxxxxxxx


------------------------------------------------------------------------ <-- SCF
SCF loop      Energy                           Energy gain       Timer   <-- SCF
                                               per atom          (sec)   <-- SCF
------------------------------------------------------------------------ <-- SCF
Initial  -2.41738566E+002                                         74.49  <-- SCF
      1  -2.47784239E+002                    3.77854569E-001      75.39  <-- SCF
      2  -2.47798132E+002                    8.68333542E-004      76.82  <-- SCF
      3  -2.47276044E+002                   -3.26305409E-002      78.24  <-- SCF
      4  -2.47260292E+002                   -9.84502581E-004      79.66  <-- SCF
      5  -2.47260480E+002                    1.17849438E-005      81.09  <-- SCF
      6  -2.47260498E+002                    1.11503210E-006      82.53  <-- SCF
      7  -2.47260498E+002                    6.46516689E-009      84.02  <-- SCF
      8  -2.47260498E+002                    7.85940614E-010      85.43  <-- SCF
      9  -2.47260498E+002                    2.43317037E-011      86.53  <-- SCF
     10  -2.47260498E+002                    5.31708448E-013      87.64  <-- SCF
     11  -2.47260498E+002                    7.00888409E-013      88.74  <-- SCF
------------------------------------------------------------------------ <-- SCF
 
Final energy =  -247.2604981086     eV
(energy not corrected for finite basis set)
 

 ******************************** Symmetrised Forces ********************************
 *                                                                                  *
 *                           Cartesian components (eV/A)                            *
 * -------------------------------------------------------------------------------- *
 *                         x                    y                    z              *
 *                                                                                  *
 * H               1      0.09625              0.13841              0.00000         *
 * H               2     -0.09625              0.13841              0.00000         *
 * H               3      0.09625             -0.13841              0.00000         *
 * H               4     -0.09625             -0.13841              0.00000         *
 * H               5      0.14966              0.00000              0.00000         *
 * H               6     -0.14966              0.00000              0.00000         *
 * H               7      0.14966              0.00000              0.00000         *
 * H               8     -0.14966              0.00000             -0.00000         *
 * H               9      0.09625              0.13841              0.00000         *
 * H              10     -0.09625              0.13841              0.00000         *
 * H              11      0.09625             -0.13841              0.00000         *
 * H              12     -0.09625             -0.13841              0.00000         *
 * H              13      0.14966              0.00000              0.00000         *
 * H              14     -0.14966              0.00000              0.00000         *
 * H              15      0.14966              0.00000              0.00000         *
 * H              16     -0.14966              0.00000              0.00000         *
 *                                                                                  *
 ************************************************************************************

 *********** Symmetrised Stress Tensor ***********
 *                                               *
 *          Cartesian components (GPa)           *
 * --------------------------------------------- *
 *             x             y             z     *
 *                                               *
 *  x    -46.719825      0.000000      0.000000  *
 *  y      0.000000    -47.634438      0.000000  *
 *  z      0.000000      0.000000    -48.722998  *
 *                                               *
 *  Pressure:   47.6924                          *
 *                                               *
 *************************************************
  
 +------------+-------------+-------------+-----------------+ <-- min LBFGS
 |    Step    |   lambda    |   F.delta'  |    enthalpy     | <-- min LBFGS
 +------------+-------------+-------------+-----------------+ <-- min LBFGS
 |  previous  |    0.000000 |    0.195869 |     -232.812668 | <-- min LBFGS
 | trial step |    0.996580 |   -1.213627 |     -231.503547 | <-- min LBFGS
 |  line step |    0.138489 |    0.060006 |     -232.868911 | <-- min LBFGS
 +------------+-------------+-------------+-----------------+ <-- min LBFGS
  
 LBFGS: finished iteration     2 with enthalpy= -2.32868911E+002 eV
  
 +-----------+-----------------+-----------------+------------+-----+ <-- LBFGS
 | Parameter |      value      |    tolerance    |    units   | OK? | <-- LBFGS
 +-----------+-----------------+-----------------+------------+-----+ <-- LBFGS
 |  dE/ion   |   3.515220E-003 |   1.000000E-009 |         eV | No  | <-- LBFGS
 |  |F|max   |   1.685925E-001 |   1.000000E-005 |       eV/A | No  | <-- LBFGS
 |  |dR|max  |   8.717172E-003 |   1.000000E-005 |          A | No  | <-- LBFGS
 |   Smax    |   1.722998E+000 |   1.000000E-005 |        GPa | No  | <-- LBFGS
 +-----------+-----------------+-----------------+------------+-----+ <-- LBFGS
  

================================================================================
 Starting LBFGS iteration          3 ...
================================================================================
  
 +------------+-------------+-------------+-----------------+ <-- min LBFGS
 |    Step    |   lambda    |   F.delta'  |    enthalpy     | <-- min LBFGS
 +------------+-------------+-------------+-----------------+ <-- min LBFGS
 |  previous  |    0.000000 |    0.051318 |     -232.868911 | <-- min LBFGS
 +------------+-------------+-------------+-----------------+ <-- min LBFGS
  

--------------------------------------------------------------------------------
 LBFGS: starting iteration         3 with trial guess (lambda=  1.000000)
--------------------------------------------------------------------------------

                           -------------------------------
                                      Unit Cell
                           -------------------------------
        Real Lattice(A)              Reciprocal Lattice(1/A)
     2.9329166    -0.0000000     0.0000000        2.142299375   0.000000000   0.000000000
    -0.0000000     2.9211929     0.0000000        0.000000000   2.150897096   0.000000000
     0.0000000     0.0000000     5.7951318        0.000000000   0.000000000   1.084217846

                       Lattice parameters(A)       Cell Angles
                    a =      2.932917          alpha =   90.000000
                    b =      2.921193          beta  =   90.000000
                    c =      5.795132          gamma =   90.000000

                Current cell volume =            49.650458 A**3

                           -------------------------------
                                     Cell Contents
                           -------------------------------

            xxxxxxxxxxxxxxxxxxxxxxxxxxxxxxxxxxxxxxxxxxxxxxxxxxxxxxxxxxxxxxxxx
            x  Element         Atom        Fractional coordinates of atoms  x
            x                 Number           u          v          w      x
            x---------------------------------------------------------------x
            x  H                 1         0.429148   0.396736   0.000000   x
            x  H                 2        -0.429148   0.396736   0.500000   x
            x  H                 3         0.429148  -0.396736   0.500000   x
            x  H                 4        -0.429148  -0.396736   0.000000   x
            x  H                 5         0.374560   0.000000   0.250000   x
            x  H                 6        -0.374560  -0.000000   0.750000   x
            x  H                 7         0.374560  -0.000000   0.750000   x
            x  H                 8        -0.374560  -0.000000   0.250000   x
            x  H                 9         0.929148   0.896736   0.500000   x
            x  H                10        -0.929148   0.896736   0.000000   x
            x  H                11         0.929148  -0.896736   0.000000   x
            x  H                12        -0.929148  -0.896736   0.500000   x
            x  H                13         0.874560   0.500000   0.750000   x
            x  H                14        -0.874560   0.500000   0.250000   x
            x  H                15         0.874560   0.500000   0.250000   x
            x  H                16        -0.874560   0.500000   0.750000   x
            xxxxxxxxxxxxxxxxxxxxxxxxxxxxxxxxxxxxxxxxxxxxxxxxxxxxxxxxxxxxxxxxx


------------------------------------------------------------------------ <-- SCF
SCF loop      Energy                           Energy gain       Timer   <-- SCF
                                               per atom          (sec)   <-- SCF
------------------------------------------------------------------------ <-- SCF
Initial  -2.47405827E+002                                         91.93  <-- SCF
      1  -2.47441741E+002                    2.24456897E-003      92.84  <-- SCF
      2  -2.47441843E+002                    6.41372765E-006      94.27  <-- SCF
      3  -2.47438914E+002                   -1.83076025E-004      95.71  <-- SCF
      4  -2.47438816E+002                   -6.12242624E-006      97.14  <-- SCF
      5  -2.47438817E+002                    8.66816913E-008      98.58  <-- SCF
      6  -2.47438818E+002                    9.36121061E-009     100.03  <-- SCF
      7  -2.47438818E+002                    1.02190739E-010     101.14  <-- SCF
      8  -2.47438818E+002                    1.29241406E-011     102.25  <-- SCF
      9  -2.47438818E+002                   -8.76110512E-014     103.37  <-- SCF
     10  -2.47438818E+002                    1.48032466E-013     104.50  <-- SCF
------------------------------------------------------------------------ <-- SCF
 
Final energy =  -247.4388175214     eV
(energy not corrected for finite basis set)
 

 ******************************** Symmetrised Forces ********************************
 *                                                                                  *
 *                           Cartesian components (eV/A)                            *
 * -------------------------------------------------------------------------------- *
 *                         x                    y                    z              *
 *                                                                                  *
 * H               1     -0.06292             -0.09447             -0.00000         *
 * H               2      0.06292             -0.09447             -0.00000         *
 * H               3     -0.06292              0.09447             -0.00000         *
 * H               4      0.06292              0.09447             -0.00000         *
 * H               5      0.07344              0.00000              0.00000         *
 * H               6     -0.07344              0.00000              0.00000         *
 * H               7      0.07344              0.00000              0.00000         *
 * H               8     -0.07344              0.00000             -0.00000         *
 * H               9     -0.06292             -0.09447             -0.00000         *
 * H              10      0.06292             -0.09447             -0.00000         *
 * H              11     -0.06292              0.09447             -0.00000         *
 * H              12      0.06292              0.09447             -0.00000         *
 * H              13      0.07344              0.00000             -0.00000         *
 * H              14     -0.07344              0.00000             -0.00000         *
 * H              15      0.07344              0.00000              0.00000         *
 * H              16     -0.07344              0.00000             -0.00000         *
 *                                                                                  *
 ************************************************************************************

 *********** Symmetrised Stress Tensor ***********
 *                                               *
 *          Cartesian components (GPa)           *
 * --------------------------------------------- *
 *             x             y             z     *
 *                                               *
 *  x    -46.661888      0.000000      0.000000  *
 *  y      0.000000    -47.761858      0.000000  *
 *  z      0.000000      0.000000    -46.992531  *
 *                                               *
 *  Pressure:   47.1388                          *
 *                                               *
 *************************************************
  
 +------------+-------------+-------------+-----------------+ <-- min LBFGS
 |    Step    |   lambda    |   F.delta'  |    enthalpy     | <-- min LBFGS
 +------------+-------------+-------------+-----------------+ <-- min LBFGS
 |  previous  |    0.000000 |    0.051318 |     -232.868911 | <-- min LBFGS
 | trial step |    1.000000 |   -0.011652 |     -232.873802 | <-- min LBFGS
 +------------+-------------+-------------+-----------------+ <-- min LBFGS
  
 LBFGS: finished iteration     3 with enthalpy= -2.32873802E+002 eV
  
 +-----------+-----------------+-----------------+------------+-----+ <-- LBFGS
 | Parameter |      value      |    tolerance    |    units   | OK? | <-- LBFGS
 +-----------+-----------------+-----------------+------------+-----+ <-- LBFGS
 |  dE/ion   |   3.056991E-004 |   1.000000E-009 |         eV | No  | <-- LBFGS
 |  |F|max   |   1.135063E-001 |   1.000000E-005 |       eV/A | No  | <-- LBFGS
 |  |dR|max  |   5.385755E-003 |   1.000000E-005 |          A | No  | <-- LBFGS
 |   Smax    |   7.618577E-001 |   1.000000E-005 |        GPa | No  | <-- LBFGS
 +-----------+-----------------+-----------------+------------+-----+ <-- LBFGS
  

================================================================================
 Starting LBFGS iteration          4 ...
================================================================================
  
 +------------+-------------+-------------+-----------------+ <-- min LBFGS
 |    Step    |   lambda    |   F.delta'  |    enthalpy     | <-- min LBFGS
 +------------+-------------+-------------+-----------------+ <-- min LBFGS
 |  previous  |    0.000000 |    0.032752 |     -232.873802 | <-- min LBFGS
 +------------+-------------+-------------+-----------------+ <-- min LBFGS
  

--------------------------------------------------------------------------------
 LBFGS: starting iteration         4 with trial guess (lambda=  1.000000)
--------------------------------------------------------------------------------

                           -------------------------------
                                      Unit Cell
                           -------------------------------
        Real Lattice(A)              Reciprocal Lattice(1/A)
     2.9401590    -0.0000000     0.0000000        2.137022290   0.000000000   0.000000000
    -0.0000000     2.9304958     0.0000000        0.000000000   2.144069062   0.000000000
     0.0000000     0.0000000     5.8121259        0.000000000   0.000000000   1.081047689

                       Lattice parameters(A)       Cell Angles
                    a =      2.940159          alpha =   90.000000
                    b =      2.930496          beta  =   90.000000
                    c =      5.812126          gamma =   90.000000

                Current cell volume =            50.077995 A**3

                           -------------------------------
                                     Cell Contents
                           -------------------------------

            xxxxxxxxxxxxxxxxxxxxxxxxxxxxxxxxxxxxxxxxxxxxxxxxxxxxxxxxxxxxxxxxx
            x  Element         Atom        Fractional coordinates of atoms  x
            x                 Number           u          v          w      x
            x---------------------------------------------------------------x
            x  H                 1         0.428355   0.395429   0.000000   x
            x  H                 2        -0.428355   0.395429   0.500000   x
            x  H                 3         0.428355  -0.395429   0.500000   x
            x  H                 4        -0.428355  -0.395429   0.000000   x
            x  H                 5         0.377752   0.000000   0.250000   x
            x  H                 6        -0.377752  -0.000000   0.750000   x
            x  H                 7         0.377752  -0.000000   0.750000   x
            x  H                 8        -0.377752  -0.000000   0.250000   x
            x  H                 9         0.928355   0.895429   0.500000   x
            x  H                10        -0.928355   0.895429   0.000000   x
            x  H                11         0.928355  -0.895429   0.000000   x
            x  H                12        -0.928355  -0.895429   0.500000   x
            x  H                13         0.877752   0.500000   0.750000   x
            x  H                14        -0.877752   0.500000   0.250000   x
            x  H                15         0.877752   0.500000   0.250000   x
            x  H                16        -0.877752   0.500000   0.750000   x
            xxxxxxxxxxxxxxxxxxxxxxxxxxxxxxxxxxxxxxxxxxxxxxxxxxxxxxxxxxxxxxxxx


------------------------------------------------------------------------ <-- SCF
SCF loop      Energy                           Energy gain       Timer   <-- SCF
                                               per atom          (sec)   <-- SCF
------------------------------------------------------------------------ <-- SCF
Initial  -2.47463793E+002                                        107.65  <-- SCF
      1  -2.47550620E+002                    5.42670581E-003     108.55  <-- SCF
      2  -2.47550853E+002                    1.45877945E-005     109.98  <-- SCF
      3  -2.47541947E+002                   -5.56637842E-004     111.41  <-- SCF
      4  -2.47541826E+002                   -7.54747272E-006     112.85  <-- SCF
      5  -2.47541826E+002                   -2.26183638E-009     114.29  <-- SCF
      6  -2.47541826E+002                    5.39928782E-009     115.72  <-- SCF
      7  -2.47541826E+002                    1.07287889E-009     117.15  <-- SCF
      8  -2.47541826E+002                    1.47168440E-010     118.32  <-- SCF
      9  -2.47541826E+002                    3.03617608E-012     119.43  <-- SCF
     10  -2.47541826E+002                   -8.24752309E-013     120.53  <-- SCF
------------------------------------------------------------------------ <-- SCF
 
Final energy =  -247.5418263278     eV
(energy not corrected for finite basis set)
 

 ******************************** Symmetrised Forces ********************************
 *                                                                                  *
 *                           Cartesian components (eV/A)                            *
 * -------------------------------------------------------------------------------- *
 *                         x                    y                    z              *
 *                                                                                  *
 * H               1      0.15990              0.23285             -0.00000         *
 * H               2     -0.15990              0.23285             -0.00000         *
 * H               3      0.15990             -0.23285             -0.00000         *
 * H               4     -0.15990             -0.23285             -0.00000         *
 * H               5     -0.58317              0.00000              0.00000         *
 * H               6      0.58317              0.00000             -0.00000         *
 * H               7     -0.58317              0.00000             -0.00000         *
 * H               8      0.58317              0.00000             -0.00000         *
 * H               9      0.15990              0.23285             -0.00000         *
 * H              10     -0.15990              0.23285             -0.00000         *
 * H              11      0.15990             -0.23285             -0.00000         *
 * H              12     -0.15990             -0.23285             -0.00000         *
 * H              13     -0.58317              0.00000              0.00000         *
 * H              14      0.58317              0.00000              0.00000         *
 * H              15     -0.58317              0.00000              0.00000         *
 * H              16      0.58317              0.00000             -0.00000         *
 *                                                                                  *
 ************************************************************************************

 *********** Symmetrised Stress Tensor ***********
 *                                               *
 *          Cartesian components (GPa)           *
 * --------------------------------------------- *
 *             x             y             z     *
 *                                               *
 *  x    -50.209038     -0.000000      0.000000  *
 *  y     -0.000000    -44.071564      0.000000  *
 *  z      0.000000      0.000000    -45.820249  *
 *                                               *
 *  Pressure:   46.7003                          *
 *                                               *
 *************************************************
  
 +------------+-------------+-------------+-----------------+ <-- min LBFGS
 |    Step    |   lambda    |   F.delta'  |    enthalpy     | <-- min LBFGS
 +------------+-------------+-------------+-----------------+ <-- min LBFGS
 |  previous  |    0.000000 |    0.032752 |     -232.873802 | <-- min LBFGS
 | trial step |    1.000000 |   -0.180717 |     -232.851422 | <-- min LBFGS
 +------------+-------------+-------------+-----------------+ <-- min LBFGS
  

--------------------------------------------------------------------------------
 LBFGS: improving iteration         4 with line minimization (lambda=  0.153429)
--------------------------------------------------------------------------------

                           -------------------------------
                                      Unit Cell
                           -------------------------------
        Real Lattice(A)              Reciprocal Lattice(1/A)
     2.9340278    -0.0000000     0.0000000        2.141488025   0.000000000   0.000000000
    -0.0000000     2.9226202     0.0000000        0.000000000   2.149846655   0.000000000
     0.0000000     0.0000000     5.7977392        0.000000000   0.000000000   1.083730245

                       Lattice parameters(A)       Cell Angles
                    a =      2.934028          alpha =   90.000000
                    b =      2.922620          beta  =   90.000000
                    c =      5.797739          gamma =   90.000000

                Current cell volume =            49.715897 A**3

                           -------------------------------
                                     Cell Contents
                           -------------------------------

            xxxxxxxxxxxxxxxxxxxxxxxxxxxxxxxxxxxxxxxxxxxxxxxxxxxxxxxxxxxxxxxxx
            x  Element         Atom        Fractional coordinates of atoms  x
            x                 Number           u          v          w      x
            x---------------------------------------------------------------x
            x  H                 1         0.429026   0.396535   0.000000   x
            x  H                 2        -0.429026   0.396535   0.500000   x
            x  H                 3         0.429026  -0.396535   0.500000   x
            x  H                 4        -0.429026  -0.396535   0.000000   x
            x  H                 5         0.375050   0.000000   0.250000   x
            x  H                 6        -0.375050  -0.000000   0.750000   x
            x  H                 7         0.375050  -0.000000   0.750000   x
            x  H                 8        -0.375050  -0.000000   0.250000   x
            x  H                 9         0.929026   0.896535   0.500000   x
            x  H                10        -0.929026   0.896535   0.000000   x
            x  H                11         0.929026  -0.896535   0.000000   x
            x  H                12        -0.929026  -0.896535   0.500000   x
            x  H                13         0.875050   0.500000   0.750000   x
            x  H                14        -0.875050   0.500000   0.250000   x
[...]
            xxxxxxxxxxxxxxxxxxxxxxxxxxxxxxxxxxxxxxxxxxxxxxxxxxxxxxxxxxxxxxxxx


------------------------------------------------------------------------ <-- SCF
SCF loop      Energy                           Energy gain       Timer   <-- SCF
                                               per atom          (sec)   <-- SCF
------------------------------------------------------------------------ <-- SCF
Initial  -2.47442511E+002                                        274.15  <-- SCF
      1  -2.47442511E+002                    7.55267682E-013     274.74  <-- SCF
      2  -2.47442511E+002                    9.06321219E-015     275.84  <-- SCF
      3  -2.47442511E+002                   -9.36531926E-014     276.94  <-- SCF
      4  -2.47442511E+002                    2.17517093E-013     278.08  <-- SCF
------------------------------------------------------------------------ <-- SCF
 
Final energy =  -247.4425111441     eV
(energy not corrected for finite basis set)
 

 ******************************** Symmetrised Forces ********************************
 *                                                                                  *
 *                           Cartesian components (eV/A)                            *
 * -------------------------------------------------------------------------------- *
 *                         x                    y                    z              *
 *                                                                                  *
 * H               1      0.00000             -0.00000             -0.00000         *
 * H               2     -0.00000             -0.00000             -0.00000         *
 * H               3      0.00000              0.00000             -0.00000         *
 * H               4     -0.00000              0.00000             -0.00000         *
 * H               5      0.00000              0.00000             -0.00000         *
 * H               6     -0.00000              0.00000              0.00000         *
 * H               7      0.00000              0.00000             -0.00000         *
 * H               8     -0.00000             -0.00000             -0.00000         *
 * H               9      0.00000             -0.00000             -0.00000         *
 * H              10     -0.00000             -0.00000             -0.00000         *
 * H              11      0.00000              0.00000             -0.00000         *
 * H              12     -0.00000              0.00000             -0.00000         *
 * H              13      0.00000              0.00000             -0.00000         *
 * H              14     -0.00000              0.00000              0.00000         *
 * H              15      0.00000              0.00000              0.00000         *
 * H              16     -0.00000              0.00000              0.00000         *
 *                                                                                  *
 ************************************************************************************

 *********** Symmetrised Stress Tensor ***********
 *                                               *
 *          Cartesian components (GPa)           *
 * --------------------------------------------- *
 *             x             y             z     *
 *                                               *
 *  x    -47.000003     -0.000000      0.000000  *
 *  y     -0.000000    -46.999990      0.000000  *
 *  z      0.000000      0.000000    -47.000009  *
 *                                               *
 *  Pressure:   47.0000                          *
 *                                               *
 *************************************************
  
 +------------+-------------+-------------+-----------------+ <-- min LBFGS
 |    Step    |   lambda    |   F.delta'  |    enthalpy     | <-- min LBFGS
 +------------+-------------+-------------+-----------------+ <-- min LBFGS
 |  previous  |    0.000000 |  3.679E-008 |     -232.874832 | <-- min LBFGS
 | trial step |    1.000000 | -1.442E-008 |     -232.874832 | <-- min LBFGS
 +------------+-------------+-------------+-----------------+ <-- min LBFGS
  
 LBFGS: finished iteration    13 with enthalpy= -2.32874832E+002 eV
  
 +-----------+-----------------+-----------------+------------+-----+ <-- LBFGS
 | Parameter |      value      |    tolerance    |    units   | OK? | <-- LBFGS
 +-----------+-----------------+-----------------+------------+-----+ <-- LBFGS
 |  dE/ion   |   2.567910E-013 |   1.000000E-009 |         eV | Yes | <-- LBFGS
 |  |F|max   |   1.715530E-007 |   1.000000E-005 |       eV/A | Yes | <-- LBFGS
 |  |dR|max  |   2.010563E-007 |   1.000000E-005 |          A | Yes | <-- LBFGS
 |   Smax    |   9.989010E-006 |   1.000000E-005 |        GPa | Yes | <-- LBFGS
 +-----------+-----------------+-----------------+------------+-----+ <-- LBFGS
  
 LBFGS: Geometry optimization completed successfully.

================================================================================
 LBFGS: Final Configuration:
================================================================================

                           -------------------------------
                                      Unit Cell
                           -------------------------------
        Real Lattice(A)              Reciprocal Lattice(1/A)
     2.9328859    -0.0000000     0.0000000        2.142321775   0.000000000   0.000000000
    -0.0000000     2.9232155     0.0000000        0.000000000   2.149408832   0.000000000
     0.0000000     0.0000000     5.7922383        0.000000000   0.000000000   1.084759462

                       Lattice parameters(A)       Cell Angles
                    a =      2.932886          alpha =   90.000000
                    b =      2.923216          beta  =   90.000000
                    c =      5.792238          gamma =   90.000000

                Current cell volume =            49.659510 A**3

                           -------------------------------
                                     Cell Contents
                           -------------------------------

            xxxxxxxxxxxxxxxxxxxxxxxxxxxxxxxxxxxxxxxxxxxxxxxxxxxxxxxxxxxxxxxxx
            x  Element         Atom        Fractional coordinates of atoms  x
            x                 Number           u          v          w      x
            x---------------------------------------------------------------x
            x  H                 1         0.430175   0.395466   0.000000   x
            x  H                 2        -0.430175   0.395466   0.500000   x
            x  H                 3         0.430175  -0.395466   0.500000   x
            x  H                 4        -0.430175  -0.395466   0.000000   x
            x  H                 5         0.374894   0.000000   0.250000   x
            x  H                 6        -0.374894  -0.000000   0.750000   x
            x  H                 7         0.374894  -0.000000   0.750000   x
            x  H                 8        -0.374894  -0.000000   0.250000   x
            x  H                 9         0.930175   0.895466   0.500000   x
            x  H                10        -0.930175   0.895466   0.000000   x
            x  H                11         0.930175  -0.895466   0.000000   x
            x  H                12        -0.930175  -0.895466   0.500000   x
            x  H                13         0.874894   0.500000   0.750000   x
            x  H                14        -0.874894   0.500000   0.250000   x
            x  H                15         0.874894   0.500000   0.250000   x
            x  H                16        -0.874894   0.500000   0.750000   x
            xxxxxxxxxxxxxxxxxxxxxxxxxxxxxxxxxxxxxxxxxxxxxxxxxxxxxxxxxxxxxxxxx


 LBFGS: Final Enthalpy     = -2.32874832E+002 eV
 LBFGS: Final <frequency>  =     670.50433 cm-1
 LBFGS: Final bulk modulus =     127.55244 GPa

 ******************************** Symmetrised Forces ********************************
 *                                                                                  *
 *                           Cartesian components (eV/A)                            *
 * -------------------------------------------------------------------------------- *
 *                         x                    y                    z              *
 *                                                                                  *
 * H               1      0.00000             -0.00000             -0.00000         *
 * H               2     -0.00000             -0.00000             -0.00000         *
 * H               3      0.00000              0.00000             -0.00000         *
 * H               4     -0.00000              0.00000             -0.00000         *
 * H               5      0.00000              0.00000             -0.00000         *
 * H               6     -0.00000              0.00000              0.00000         *
 * H               7      0.00000              0.00000             -0.00000         *
 * H               8     -0.00000             -0.00000             -0.00000         *
 * H               9      0.00000             -0.00000             -0.00000         *
 * H              10     -0.00000             -0.00000             -0.00000         *
 * H              11      0.00000              0.00000             -0.00000         *
 * H              12     -0.00000              0.00000             -0.00000         *
 * H              13      0.00000              0.00000             -0.00000         *
 * H              14     -0.00000              0.00000              0.00000         *
 * H              15      0.00000              0.00000              0.00000         *
 * H              16     -0.00000              0.00000              0.00000         *
 *                                                                                  *
 ************************************************************************************

 *********** Symmetrised Stress Tensor ***********
 *                                               *
 *          Cartesian components (GPa)           *
 * --------------------------------------------- *
 *             x             y             z     *
 *                                               *
 *  x    -47.000003     -0.000000      0.000000  *
 *  y     -0.000000    -46.999990      0.000000  *
 *  z      0.000000      0.000000    -47.000009  *
 *                                               *
 *  Pressure:   47.0000                          *
 *                                               *
 *************************************************

 Pseudo atomic calculation performed for H 1s1

 Converged in 24 iterations to a total energy of -12.4843 eV

Charge spilling parameter for spin component 1 = 0.66%

            Orbital Populations       
     Ion    Atom   Orbital             Charge
  -------------------------------------------
      H     1      S                    0.998
      H     2      S                    1.001
      H     3      S                    1.001
      H     4      S                    0.998
      H     5      S                    1.001
      H     6      S                    1.001
      H     7      S                    1.001
      H     8      S                    1.001
      H     9      S                    0.998
      H    10      S                    1.001
      H    11      S                    1.001
      H    12      S                    0.998
      H    13      S                    1.001
      H    14      S                    1.001
      H    15      S                    1.001
      H    16      S                    1.001
  -------------------------------------------
                           Total:      16.000
  -------------------------------------------

     Atomic Populations (Mulliken)
     -----------------------------
Species          Ion     s      p      d      f     Total  Charge (e)
=====================================================================
  H               1     1.00   0.00   0.00   0.00   1.00     0.00
  H               2     1.00   0.00   0.00   0.00   1.00     0.00
  H               3     1.00   0.00   0.00   0.00   1.00     0.00
  H               4     1.00   0.00   0.00   0.00   1.00     0.00
  H               5     1.00   0.00   0.00   0.00   1.00    -0.00
  H               6     1.00   0.00   0.00   0.00   1.00    -0.00
  H               7     1.00   0.00   0.00   0.00   1.00    -0.00
  H               8     1.00   0.00   0.00   0.00   1.00    -0.00
  H               9     1.00   0.00   0.00   0.00   1.00     0.00
  H              10     1.00   0.00   0.00   0.00   1.00     0.00
  H              11     1.00   0.00   0.00   0.00   1.00     0.00
  H              12     1.00   0.00   0.00   0.00   1.00     0.00
  H              13     1.00   0.00   0.00   0.00   1.00    -0.00
  H              14     1.00   0.00   0.00   0.00   1.00    -0.00
  H              15     1.00   0.00   0.00   0.00   1.00    -0.00
  H              16     1.00   0.00   0.00   0.00   1.00    -0.00
=====================================================================

                 Bond                   Population      Length (A)
======================================================================
              H 6  -- H 7                    1.40        0.73384
              H 5  -- H 8                    1.40        0.73384
              H 14 -- H 15                   1.40        0.73384
              H 13 -- H 16                   1.40        0.73384
              H 2  -- H 3                    1.40        0.73571
              H 1  -- H 4                    1.40        0.73571
              H 10 -- H 11                   1.40        0.73571
              H 9  -- H 12                   1.40        0.73571
              H 8  -- H 15                  -0.20        1.63493
              H 7  -- H 16                  -0.20        1.63493
              H 6  -- H 13                  -0.20        1.63493
              H 5  -- H 14                  -0.20        1.63493
              H 4  -- H 10                  -0.23        1.69521
              H 3  -- H 9                   -0.23        1.69521
              H 2  -- H 12                  -0.23        1.69521
              H 1  -- H 11                  -0.23        1.69521
              H 3  -- H 16                  -0.10        1.72939
              H 1  -- H 14                  -0.10        1.72939
              H 8  -- H 9                   -0.10        1.72939
              H 7  -- H 10                  -0.10        1.72939
              H 6  -- H 11                  -0.10        1.72939
              H 5  -- H 12                  -0.10        1.72939
              H 4  -- H 15                  -0.10        1.72939
              H 2  -- H 13                  -0.10        1.72939
              H 4  -- H 13                  -0.10        1.72939
              H 3  -- H 14                  -0.10        1.72939
              H 2  -- H 15                  -0.10        1.72939
              H 1  -- H 16                  -0.10        1.72939
              H 8  -- H 11                  -0.10        1.72939
              H 7  -- H 12                  -0.10        1.72939
              H 6  -- H 9                   -0.10        1.72939
              H 5  -- H 10                  -0.10        1.72939
              H 4  -- H 11                  -0.25        1.80368
              H 3  -- H 12                  -0.25        1.80368
              H 2  -- H 9                   -0.25        1.80368
              H 1  -- H 10                  -0.25        1.80368
              H 4  -- H 8                   -0.11        1.85999
              H 3  -- H 7                   -0.11        1.85999
              H 2  -- H 6                   -0.11        1.85999
              H 1  -- H 5                   -0.11        1.85999
              H 12 -- H 16                  -0.11        1.85999
              H 11 -- H 15                  -0.11        1.85999
              H 10 -- H 14                  -0.11        1.85999
              H 9  -- H 13                  -0.11        1.85999
              H 4  -- H 6                   -0.11        1.85999
              H 3  -- H 5                   -0.11        1.85999
              H 2  -- H 8                   -0.11        1.85999
              H 1  -- H 7                   -0.11        1.85999
              H 12 -- H 14                  -0.11        1.85999
              H 11 -- H 13                  -0.11        1.85999
              H 10 -- H 16                  -0.11        1.85999
              H 9  -- H 15                  -0.11        1.85999
              H 4  -- H 5                   -0.11        1.93911
              H 2  -- H 7                   -0.11        1.93911
              H 3  -- H 6                   -0.11        1.93911
              H 1  -- H 8                   -0.11        1.93911
              H 4  -- H 7                   -0.11        1.93911
              H 3  -- H 8                   -0.11        1.93911
              H 2  -- H 5                   -0.11        1.93911
              H 1  -- H 6                   -0.11        1.93911
              H 12 -- H 13                  -0.11        1.93911
              H 11 -- H 14                  -0.11        1.93911
              H 10 -- H 15                  -0.11        1.93911
              H 9  -- H 16                  -0.11        1.93911
              H 12 -- H 15                  -0.11        1.93911
              H 11 -- H 16                  -0.11        1.93911
              H 10 -- H 13                  -0.11        1.93911
              H 9  -- H 14                  -0.11        1.93911
              H 4  -- H 14                  -0.12        1.97268
              H 3  -- H 13                  -0.12        1.97268
              H 2  -- H 16                  -0.12        1.97268
              H 1  -- H 15                  -0.12        1.97268
              H 4  -- H 16                  -0.12        1.97268
              H 3  -- H 15                  -0.12        1.97268
              H 2  -- H 14                  -0.12        1.97268
              H 1  -- H 13                  -0.12        1.97268
              H 8  -- H 12                  -0.12        1.97268
              H 7  -- H 11                  -0.12        1.97268
              H 6  -- H 10                  -0.12        1.97268
              H 5  -- H 9                   -0.12        1.97268
              H 8  -- H 10                  -0.12        1.97268
              H 7  -- H 9                   -0.12        1.97268
              H 6  -- H 12                  -0.12        1.97268
              H 5  -- H 11                  -0.12        1.97268
              H 8  -- H 14                  -0.27        2.07045
              H 7  -- H 13                  -0.27        2.07045
              H 6  -- H 16                  -0.27        2.07045
              H 5  -- H 15                  -0.27        2.07045
              H 14 -- H 16                   0.01        2.89612
              H 13 -- H 15                   0.01        2.89612
              H 6  -- H 8                    0.01        2.89612
              H 5  -- H 7                    0.01        2.89612
======================================================================


Writing analysis data to Hibam.castep_bin

Writing model to Hibam.check
 
 A BibTeX formatted list of references used in this run has been written to 
 Hibam.bib
 
Initialisation time =      2.53 s
Calculation time    =    279.45 s
Finalisation time   =      2.12 s
Total time          =    284.10 s
Peak Memory Use     = 500404 kB
  
Overall parallel efficiency rating: Excellent (96%)                             
  
Data was distributed by:-
k-point (16-way); efficiency rating: Excellent (97%)                            
  
Parallel notes:
1) Calculation only took 282.0 s, so efficiency estimates may be inaccurate.    
