 +-------------------------------------------------+
 |                                                 |
 |      CCC   AA    SSS  TTTTT  EEEEE  PPPP        |
 |     C     A  A  S       T    E      P   P       |
 |     C     AAAA   SS     T    EEE    PPPP        |
 |     C     A  A     S    T    E      P           |
 |      CCC  A  A  SSS     T    EEEEE  P           |
 |                                                 |
 +-------------------------------------------------+
 |                                                 |
 | Welcome to Academic Release CASTEP version 18.1 |          
 | Ab Initio Total Energy Program                  |
 |                                                 |
 | Authors:                                        |
 | M. Segall, M. Probert, C. Pickard, P. Hasnip,   |
 | S. Clark, K. Refson, J. R. Yates, M. Payne      |
 |                                                 |
 | Contributors:                                   |
 | P. Lindan, P. Haynes, J. White, V. Milman,      |
 | N. Govind, M. Gibson, P. Tulip, V. Cocula,      |
 | B. Montanari, D. Quigley, M. Glover,            |
 | L. Bernasconi, A. Perlov, M. Plummer,           |
 | E. McNellis, J. Meyer, J. Gale, D. Jochym       |
 | J. Aarons, B. Walker, R. Gillen, D. Jones       |
 | T. Green, I. J. Bush, C. J. Armstrong,          |
 | E. J. Higgins, E. L. Brown, M. S. McFly,        |
 | J. Wilkins, B-C. Shih, P. J. P. Byrne           |
 |                                                 |
 | Copyright (c) 2000 - 2017                       |
 |                                                 |
 |     Distributed under the terms of an           |
 |     Agreement between the United Kingdom        |
 |     Car-Parrinello (UKCP) Consortium,           |
 |     Daresbury Laboratory and Accelrys, Inc.     |
 |                                                 |
 | Please cite                                     |
 |                                                 |
 |     "First principles methods using CASTEP"     |
 |                                                 |
 |         Zeitschrift fuer Kristallographie       |
 |           220(5-6) pp. 567-570 (2005)           |
 |                                                 |
 | S. J. Clark, M. D. Segall, C. J. Pickard,       |
 | P. J. Hasnip, M. J. Probert, K. Refson,         |
 | M. C. Payne                                     |
 |                                                 |
 |       in all publications arising from          |
 |              your use of CASTEP                 |
 |                                                 |
 +-------------------------------------------------+


 Compiled for linux_x86_64_gfortran4.8 on Thu, 19 Jul 2018 15:42:32 +0100
 from code version 70483bd0ad64+  Sun, 10 Dec 2017 12:18:29 +0000
 Compiler: GNU Fortran 4.8.5; Optimisation: fast
 MATHLIBS: Intel MKL(2018.0.0) (LAPACK version 3.7.0)
 FFT Lib : mkl
 Fundamental constants values: CODATA 2014

 Run started: Fri, 21 Aug 2020 12:33:44 +0100

 Atomic calculation performed for H: 1s1

 Converged in 41 iterations to an ae energy of -12.488 eV

   ============================================================                
   | Pseudopotential Report - Date of generation 21-08-2020   |                
   ------------------------------------------------------------                
   | Element: H Ionic charge:  1.00 Level of theory: PBE      |                
   | Atomic Solver: Koelling-Harmon                           |                
   |                                                          |                
   |               Reference Electronic Structure             |                
   |         Orbital         Occupation         Energy        |                
   |            1s              1.000           -0.239        |                
   |                                                          |                
   |                 Pseudopotential Definition               |                
   |        Beta     l      e      Rc     scheme   norm       |                
   |         loc     0   -0.239   0.702     qc      1         |                
   |                                                          |                
   | No charge augmentation                                   |                
   | No partial core correction                               |                
   ------------------------------------------------------------                
   | "0|0.7|2|6|8|10L(qc=10)"                                 |                
   ------------------------------------------------------------                
   |      Author: Chris J. Pickard, Cambridge University      |                
   ============================================================                

 Pseudo atomic calculation performed for H 1s1

 Converged in 24 iterations to a total energy of -12.4843 eV

 Calculation parallelised over 16 processes.
 Data is distributed by k-point(16-way)

 ************************************ Title ************************************
 

 ***************************** General Parameters ******************************
  
 output verbosity                               : normal  (1)
 write checkpoint data to                       : Hibam.check
 type of calculation                            : geometry optimization
 stress calculation                             : on
 density difference calculation                 : off
 electron localisation func (ELF) calculation   : off
 Hirshfeld analysis                             : off
 unlimited duration calculation
 timing information                             : on
 memory usage estimate                          : on
 write extra output files                       : on
 write final potential to formatted file        : off
 write final density to formatted file          : off
 write structure in CELL formatted file         : on
 write BibTeX reference list                    : on
 write OTFG pseudopotential files               : on
 write electrostatic potential file             : on
 write bands file                               : on
 checkpoint writing                             : both castep_bin and check files
  
 output         length unit                     : A
 output           mass unit                     : amu
 output           time unit                     : ps
 output         charge unit                     : e
 output           spin unit                     : hbar/2
 output         energy unit                     : eV
 output          force unit                     : eV/A
 output       velocity unit                     : A/ps
 output       pressure unit                     : GPa
 output     inv_length unit                     : 1/A
 output      frequency unit                     : cm-1
 output force constant unit                     : eV/A**2
 output         volume unit                     : A**3
 output   IR intensity unit                     : (D/A)**2/amu
 output         dipole unit                     : D
 output         efield unit                     : eV/A/e
 output        entropy unit                     : J/mol/K
  
 wavefunctions paging                           : none
 random number generator seed                   : randomised (123344651)
 data distribution                              : optimal for this architecture
 optimization strategy                          : maximize speed(+++)

 *********************** Exchange-Correlation Parameters ***********************
  
 using functional                               : Perdew Burke Ernzerhof
 relativistic treatment                         : Koelling-Harmon
 DFT+D: Semi-empirical dispersion correction    : off

 ************************* Pseudopotential Parameters **************************
  
 pseudopotential representation                 : reciprocal space
 <beta|phi> representation                      : reciprocal space
 spin-orbit coupling                            : off

 **************************** Basis Set Parameters *****************************
  
 plane wave basis set cut-off                   :  1200.0000   eV
 size of standard grid                          :     2.0000
 size of   fine   gmax                          :    35.4943   1/A
 finite basis set correction                    : automatic
 number of sample energies                      :          3
           sample  spacing                      :     5.0000   eV

 **************************** Electronic Parameters ****************************
  
 number of  electrons                           :  16.00    
 net charge of system                           :  0.000    
 treating system as non-spin-polarized
 number of bands                                :          8

 ********************* Electronic Minimization Parameters **********************
  
 Method: Treating system as non-metallic,
         and number of  SD  steps               :          1
         and number of  CG  steps               :          4
  
 total energy / atom convergence tol.           : 0.1000E-10   eV
 eigen-energy convergence tolerance             : 0.2000E-10   eV
 max force / atom convergence tol.              : ignored
 convergence tolerance window                   :          3   cycles
 max. number of SCF cycles                      :        100
 periodic dipole correction                     : NONE

 ************************** Density Mixing Parameters **************************
  
 density-mixing scheme                          : Broyden
 max. length of mixing history                  :         20
 charge density mixing amplitude                : 0.8000    
 cut-off energy for mixing                      :  1200.       eV

 *********************** Population Analysis Parameters ************************
  
 Population analysis with cutoff                :  3.000       A
 Population analysis output                     : summary and pdos components

 ********************** Geometry Optimization Parameters ***********************
  
 optimization method                            : LBFGS
 max. no. of LBFGS updates                      : unbounded
 variable cell method                           : fixed basis quality
 max. number of steps                           :         60
 estimated bulk modulus                         :  500.0       GPa
 estimated <frequency>                          :  1668.       cm-1
 geom line minimiser                            : on
 with line minimiser tolerance                  :     0.4000
 total energy convergence tolerance             : 0.1000E-08   eV/atom
        max ionic |force| tolerance             : 0.1000E-04   eV/A
 max ionic |displacement| tolerance             : 0.1000E-04   A
   max |stress component| tolerance             : 0.1000E-04   GPa
 convergence tolerance window                   :          2   steps
 backup results every                           :      14400   seconds
 write geom trajectory file                     : on

 *******************************************************************************
  

                           -------------------------------
                                      Unit Cell
                           -------------------------------
        Real Lattice(A)                      Reciprocal Lattice(1/A)
     3.1337236    -0.0000000     0.0000000        2.005022177   0.000000000   0.000000000
    -0.0000000     2.0939649     0.0000000        0.000000000   3.000616276   0.000000000
     0.0000000     0.0000000     6.1441434        0.000000000   0.000000000   1.022629994

                       Lattice parameters(A)       Cell Angles
                    a =      3.133724          alpha =   90.000000
                    b =      2.093965          beta  =   90.000000
                    c =      6.144143          gamma =   90.000000

                       Current cell volume =            40.317300       A**3
                                   density =             0.400003   AMU/A**3
                                           =             0.664221     g/cm^3

                           -------------------------------
                                     Cell Contents
                           -------------------------------
                         Total number of ions in cell =   16
                      Total number of species in cell =    1
                        Max number of any one species =   16

            xxxxxxxxxxxxxxxxxxxxxxxxxxxxxxxxxxxxxxxxxxxxxxxxxxxxxxxxxxxx
            x  Element    Atom        Fractional coordinates of atoms  x
            x            Number           u          v          w      x
            x----------------------------------------------------------x
            x  H            1         0.416799   0.377830   0.000000   x 
            x  H            2        -0.416799   0.377830   0.500000   x 
            x  H            3         0.416799  -0.377830   0.500000   x 
            x  H            4        -0.416799  -0.377830   0.000000   x 
            x  H            5         0.380875   0.000000   0.250000   x 
            x  H            6        -0.380875   0.000000   0.750000   x 
            x  H            7         0.380875  -0.000000   0.750000   x 
            x  H            8        -0.380875  -0.000000   0.250000   x 
            x  H            9         0.916799   0.877830   0.500000   x 
            x  H           10        -0.916799   0.877830   0.000000   x 
            x  H           11         0.916799  -0.877830   0.000000   x 
            x  H           12        -0.916799  -0.877830   0.500000   x 
            x  H           13         0.880875   0.500000   0.750000   x 
            x  H           14        -0.880875   0.500000   0.250000   x 
            x  H           15         0.880875   0.500000   0.250000   x 
            x  H           16        -0.880875   0.500000   0.750000   x 
            xxxxxxxxxxxxxxxxxxxxxxxxxxxxxxxxxxxxxxxxxxxxxxxxxxxxxxxxxxxx


                         No user defined ionic velocities

                           -------------------------------
                                   Details of Species
                           -------------------------------

                               Mass of species in AMU
                                    H    1.0079400

                          Electric Quadrupole Moment (Barn)
                                    H    0.0028600 Isotope  2

                          Files used for pseudopotentials:
                                    H 0|0.7|2|6|8|10L(qc=10)

                           -------------------------------
                              k-Points For BZ Sampling
                           -------------------------------
                       MP grid size for SCF calculation is  8  8  8
                            with an offset of   0.000  0.000  0.000
                       Number of kpoints used =            64

                           -------------------------------
                               Symmetry and Constraints
                           -------------------------------

                      Cell is a supercell containing 2 primitive cells
                      Maximum deviation from symmetry = 0.330518E-14     ANG

                      Number of symmetry operations   =          16
                      Number of ionic constraints     =           3
                      Point group of crystal =     8: D2h, mmm, 2/m 2/m 2/m
                      Space group of crystal =    72: Ibam, -I 2 2c

             Set iprint > 1 for details on symmetry rotations/translations

                         Centre of mass is constrained
             Set iprint > 1 for details of linear ionic constraints

                         Number of cell constraints= 3
                         Cell constraints are:  1 2 3 0 0 0

                         External pressure/stress (GPa)
                         64.00000   0.00000   0.00000
                                   64.00000   0.00000
                                             64.00000
  
+---------------- MEMORY AND SCRATCH DISK ESTIMATES PER PROCESS --------------+
|                                                     Memory          Disk    |
| Baseline code, static data and system overhead      415.0 MB         0.0 MB |
| BLAS internal memory storage                          0.0 MB         0.0 MB |
| Model and support data                               39.1 MB         0.0 MB |
| Electronic energy minimisation requirements          18.7 MB         0.0 MB |
| Force calculation requirements                        7.1 MB         0.0 MB |
| Stress calculation requirements                       9.0 MB         0.0 MB |
|                                               ----------------------------- |
| Approx. total storage required per process          472.9 MB         0.0 MB |
|                                                                             |
| Requirements will fluctuate during execution and may exceed these estimates |
+-----------------------------------------------------------------------------+
Calculating finite basis set correction with  3 cut-off energies.
Calculating total energy with cut-off of 1190.000 eV.
------------------------------------------------------------------------ <-- SCF
SCF loop      Energy                           Energy gain       Timer   <-- SCF
                                               per atom          (sec)   <-- SCF
------------------------------------------------------------------------ <-- SCF
Initial   4.04511950E+002                                          3.44  <-- SCF
      1  -1.99830289E+002                    3.77713899E+001       4.40  <-- SCF
      2  -2.43892257E+002                    2.75387304E+000       4.91  <-- SCF
      3  -2.44737249E+002                    5.28119844E-002       5.40  <-- SCF
      4  -2.43511457E+002                   -7.66120105E-002       6.38  <-- SCF
      5  -2.43471060E+002                   -2.52478661E-003       7.44  <-- SCF
      6  -2.43472509E+002                    9.05369898E-005       8.40  <-- SCF
      7  -2.43472655E+002                    9.14509378E-006       9.35  <-- SCF
      8  -2.43472656E+002                    1.82061988E-008      10.36  <-- SCF
      9  -2.43472656E+002                    5.10560953E-010      11.33  <-- SCF
     10  -2.43472656E+002                    1.42534117E-011      12.07  <-- SCF
     11  -2.43472656E+002                   -2.38664588E-013      12.81  <-- SCF
     12  -2.43472656E+002                    9.96953341E-014      13.55  <-- SCF
------------------------------------------------------------------------ <-- SCF
 
Final energy =  -243.4726556967     eV
(energy not corrected for finite basis set)
 
Calculating total energy with cut-off of 1195.000 eV.
------------------------------------------------------------------------ <-- SCF
SCF loop      Energy                           Energy gain       Timer   <-- SCF
                                               per atom          (sec)   <-- SCF
------------------------------------------------------------------------ <-- SCF
Initial  -2.43472656E+002                                         14.24  <-- SCF
      1  -2.43473781E+002                    7.03052807E-005      14.85  <-- SCF
      2  -2.43473781E+002                    9.64386198E-011      15.81  <-- SCF
      3  -2.43473781E+002                    3.09325015E-008      16.77  <-- SCF
      4  -2.43473781E+002                    1.66718090E-009      17.73  <-- SCF
      5  -2.43473781E+002                    1.47609516E-011      18.52  <-- SCF
      6  -2.43473781E+002                    5.01497741E-013      19.26  <-- SCF
      7  -2.43473781E+002                    1.81264244E-013      19.99  <-- SCF
------------------------------------------------------------------------ <-- SCF
 
Final energy =  -243.4737811045     eV
(energy not corrected for finite basis set)
 
Calculating total energy with cut-off of 1200.000 eV.
------------------------------------------------------------------------ <-- SCF
SCF loop      Energy                           Energy gain       Timer   <-- SCF
                                               per atom          (sec)   <-- SCF
------------------------------------------------------------------------ <-- SCF
Initial  -2.43473781E+002                                         20.65  <-- SCF
      1  -2.43474931E+002                    7.18843944E-005      21.41  <-- SCF
      2  -2.43474931E+002                    1.00801046E-010      22.41  <-- SCF
      3  -2.43474932E+002                    3.27791219E-008      23.43  <-- SCF
      4  -2.43474932E+002                    1.78635610E-009      24.43  <-- SCF
      5  -2.43474932E+002                    1.54739243E-011      25.18  <-- SCF
      6  -2.43474932E+002                    1.45313502E-012      25.94  <-- SCF
      7  -2.43474932E+002                   -8.03604814E-013      26.67  <-- SCF
------------------------------------------------------------------------ <-- SCF
 
Final energy =  -243.4749318098     eV
(energy not corrected for finite basis set)
 
 For future reference: finite basis dEtot/dlog(Ecut) =      -0.269366eV
 Total energy corrected for finite basis set =    -243.474919 eV
 
+---------------- MEMORY AND SCRATCH DISK ESTIMATES PER PROCESS --------------+
|                                                     Memory          Disk    |
| Model and support data                               47.3 MB         0.0 MB |
| Electronic energy minimisation requirements          18.7 MB         0.0 MB |
| Geometry minimisation requirements                   21.7 MB         0.0 MB |
|                                               ----------------------------- |
| Approx. total storage required per process           87.7 MB         0.0 MB |
|                                                                             |
| Requirements will fluctuate during execution and may exceed these estimates |
+-----------------------------------------------------------------------------+
 

 ******************************** Symmetrised Forces ********************************
 *                                                                                  *
 *                           Cartesian components (eV/A)                            *
 * -------------------------------------------------------------------------------- *
 *                         x                    y                    z              *
 *                                                                                  *
 * H               1      0.00000              0.00000             -0.00000         *
 * H               2     -0.00000              0.00000             -0.00000         *
 * H               3      0.00000             -0.00000             -0.00000         *
 * H               4     -0.00000             -0.00000             -0.00000         *
 * H               5      0.00000              0.00000              0.00000         *
 * H               6     -0.00000              0.00000              0.00000         *
 * H               7      0.00000              0.00000              0.00000         *
 * H               8     -0.00000             -0.00000             -0.00000         *
 * H               9      0.00000              0.00000             -0.00000         *
 * H              10     -0.00000              0.00000             -0.00000         *
 * H              11      0.00000             -0.00000             -0.00000         *
 * H              12     -0.00000             -0.00000             -0.00000         *
 * H              13      0.00000              0.00000             -0.00000         *
 * H              14     -0.00000              0.00000              0.00000         *
 * H              15      0.00000              0.00000              0.00000         *
 * H              16     -0.00000              0.00000             -0.00000         *
 *                                                                                  *
 ************************************************************************************

 *********** Symmetrised Stress Tensor ***********
 *                                               *
 *          Cartesian components (GPa)           *
 * --------------------------------------------- *
 *             x             y             z     *
 *                                               *
 *  x    -80.984564      0.000000      0.000000  *
 *  y      0.000000    -80.984571      0.000000  *
 *  z      0.000000      0.000000    -80.984573  *
 *                                               *
 *  Pressure:   80.9846                          *
 *                                               *
 *************************************************
 LBFGS: finished iteration     0 with enthalpy= -2.27369908E+002 eV
  
 +-----------+-----------------+-----------------+------------+-----+ <-- LBFGS
 | Parameter |      value      |    tolerance    |    units   | OK? | <-- LBFGS
 +-----------+-----------------+-----------------+------------+-----+ <-- LBFGS
 |  dE/ion   |   0.000000E+000 |   1.000000E-009 |         eV | No  | <-- LBFGS
 |  |F|max   |   7.828943E-007 |   1.000000E-005 |       eV/A | Yes | <-- LBFGS
 |  |dR|max  |   0.000000E+000 |   1.000000E-005 |          A | No  | <-- LBFGS
 |   Smax    |   1.698457E+001 |   1.000000E-005 |        GPa | No  | <-- LBFGS
 +-----------+-----------------+-----------------+------------+-----+ <-- LBFGS
  

================================================================================
 Starting LBFGS iteration          1 ...
================================================================================
  
 +------------+-------------+-------------+-----------------+ <-- min LBFGS
 |    Step    |   lambda    |   F.delta'  |    enthalpy     | <-- min LBFGS
 +------------+-------------+-------------+-----------------+ <-- min LBFGS
 |  previous  |    0.000000 |    0.272048 |     -227.369908 | <-- min LBFGS
 +------------+-------------+-------------+-----------------+ <-- min LBFGS
  

--------------------------------------------------------------------------------
 LBFGS: starting iteration         1 with trial guess (lambda=  1.000000)
--------------------------------------------------------------------------------
 
+---------------- MEMORY AND SCRATCH DISK ESTIMATES PER PROCESS --------------+
|                                                     Memory          Disk    |
| Model and support data                               47.4 MB         0.0 MB |
| Electronic energy minimisation requirements          19.1 MB         0.0 MB |
| Geometry minimisation requirements                   22.2 MB         0.0 MB |
|                                               ----------------------------- |
| Approx. total storage required per process           88.8 MB         0.0 MB |
|                                                                             |
| Requirements will fluctuate during execution and may exceed these estimates |
+-----------------------------------------------------------------------------+
 

                           -------------------------------
                                      Unit Cell
                           -------------------------------
        Real Lattice(A)              Reciprocal Lattice(1/A)
     3.1692069    -0.0000000     0.0000000        1.982573414   0.000000000   0.000000000
    -0.0000000     2.1176750     0.0000000        0.000000000   2.967020562   0.000000000
     0.0000000     0.0000000     6.2137138        0.000000000   0.000000000   1.011180349

                       Lattice parameters(A)       Cell Angles
                    a =      3.169207          alpha =   90.000000
                    b =      2.117675          beta  =   90.000000
                    c =      6.213714          gamma =   90.000000

                Current cell volume =            41.702410 A**3

                           -------------------------------
                                     Cell Contents
                           -------------------------------

            xxxxxxxxxxxxxxxxxxxxxxxxxxxxxxxxxxxxxxxxxxxxxxxxxxxxxxxxxxxxxxxxx
            x  Element         Atom        Fractional coordinates of atoms  x
            x                 Number           u          v          w      x
            x---------------------------------------------------------------x
            x  H                 1         0.416799   0.377830   0.000000   x
            x  H                 2        -0.416799   0.377830   0.500000   x
            x  H                 3         0.416799  -0.377830   0.500000   x
            x  H                 4        -0.416799  -0.377830   0.000000   x
            x  H                 5         0.380875   0.000000   0.250000   x
            x  H                 6        -0.380875   0.000000   0.750000   x
            x  H                 7         0.380875   0.000000   0.750000   x
            x  H                 8        -0.380875  -0.000000   0.250000   x
            x  H                 9         0.916799   0.877830   0.500000   x
            x  H                10        -0.916799   0.877830   0.000000   x
            x  H                11         0.916799  -0.877830   0.000000   x
            x  H                12        -0.916799  -0.877830   0.500000   x
            x  H                13         0.880875   0.500000   0.750000   x
            x  H                14        -0.880875   0.500000   0.250000   x
            x  H                15         0.880875   0.500000   0.250000   x
            x  H                16        -0.880875   0.500000   0.750000   x
            xxxxxxxxxxxxxxxxxxxxxxxxxxxxxxxxxxxxxxxxxxxxxxxxxxxxxxxxxxxxxxxxx


------------------------------------------------------------------------ <-- SCF
SCF loop      Energy                           Energy gain       Timer   <-- SCF
                                               per atom          (sec)   <-- SCF
------------------------------------------------------------------------ <-- SCF
Initial  -2.44114691E+002                                         29.10  <-- SCF
      1  -2.44137833E+002                    1.44635237E-003      29.83  <-- SCF
      2  -2.44137900E+002                    4.20864461E-006      30.88  <-- SCF
      3  -2.44137054E+002                   -5.29083987E-005      31.84  <-- SCF
      4  -2.44137032E+002                   -1.38696434E-006      32.82  <-- SCF
      5  -2.44137033E+002                    5.84325863E-008      33.77  <-- SCF
      6  -2.44137033E+002                    5.76767416E-009      34.73  <-- SCF
      7  -2.44137033E+002                    1.95161169E-011      35.51  <-- SCF
      8  -2.44137033E+002                    1.34739755E-012      36.27  <-- SCF
      9  -2.44137033E+002                    1.81264244E-013      37.00  <-- SCF
------------------------------------------------------------------------ <-- SCF
 
Final energy =  -244.1370326622     eV
(energy not corrected for finite basis set)
 

 ******************************** Symmetrised Forces ********************************
 *                                                                                  *
 *                           Cartesian components (eV/A)                            *
 * -------------------------------------------------------------------------------- *
 *                         x                    y                    z              *
 *                                                                                  *
 * H               1      0.18238              0.17569             -0.00000         *
 * H               2     -0.18238              0.17569             -0.00000         *
 * H               3      0.18238             -0.17569             -0.00000         *
 * H               4     -0.18238             -0.17569             -0.00000         *
 * H               5      0.24779             -0.00000             -0.00000         *
 * H               6     -0.24779              0.00000              0.00000         *
 * H               7      0.24779              0.00000             -0.00000         *
 * H               8     -0.24779             -0.00000              0.00000         *
 * H               9      0.18238              0.17569             -0.00000         *
 * H              10     -0.18238              0.17569             -0.00000         *
 * H              11      0.18238             -0.17569             -0.00000         *
 * H              12     -0.18238             -0.17569             -0.00000         *
 * H              13      0.24779              0.00000             -0.00000         *
 * H              14     -0.24779             -0.00000              0.00000         *
 * H              15      0.24779              0.00000             -0.00000         *
 * H              16     -0.24779             -0.00000              0.00000         *
 *                                                                                  *
 ************************************************************************************

 *********** Symmetrised Stress Tensor ***********
 *                                               *
 *          Cartesian components (GPa)           *
 * --------------------------------------------- *
 *             x             y             z     *
 *                                               *
 *  x    -69.512540      0.000000      0.000000  *
 *  y      0.000000    -72.991894      0.000000  *
 *  z      0.000000      0.000000    -74.705643  *
 *                                               *
 *  Pressure:   72.4034                          *
 *                                               *
 *************************************************
  
 +------------+-------------+-------------+-----------------+ <-- min LBFGS
 |    Step    |   lambda    |   F.delta'  |    enthalpy     | <-- min LBFGS
 +------------+-------------+-------------+-----------------+ <-- min LBFGS
 |  previous  |    0.000000 |    0.272048 |     -227.369908 | <-- min LBFGS
 | trial step |    1.000000 |    0.137665 |     -227.478724 | <-- min LBFGS
 +------------+-------------+-------------+-----------------+ <-- min LBFGS
  

--------------------------------------------------------------------------------
 LBFGS: improving iteration         1 with line minimization (lambda=  2.024429)
--------------------------------------------------------------------------------
 
+---------------- MEMORY AND SCRATCH DISK ESTIMATES PER PROCESS --------------+
|                                                     Memory          Disk    |
| Model and support data                               49.1 MB         0.0 MB |
| Electronic energy minimisation requirements          20.5 MB         0.0 MB |
| Geometry minimisation requirements                   23.7 MB         0.0 MB |
|                                               ----------------------------- |
| Approx. total storage required per process           93.3 MB         0.0 MB |
|                                                                             |
| Requirements will fluctuate during execution and may exceed these estimates |
+-----------------------------------------------------------------------------+
 

                           -------------------------------
                                      Unit Cell
                           -------------------------------
        Real Lattice(A)              Reciprocal Lattice(1/A)
     3.2055570    -0.0000000     0.0000000        1.960091588   0.000000000   0.000000000
    -0.0000000     2.1419643     0.0000000        0.000000000   2.933375368   0.000000000
     0.0000000     0.0000000     6.2849838        0.000000000   0.000000000   0.999713842

                       Lattice parameters(A)       Cell Angles
                    a =      3.205557          alpha =   90.000000
                    b =      2.141964          beta  =   90.000000
                    c =      6.284984          gamma =   90.000000

                Current cell volume =            43.153884 A**3

                           -------------------------------
                                     Cell Contents
                           -------------------------------

            xxxxxxxxxxxxxxxxxxxxxxxxxxxxxxxxxxxxxxxxxxxxxxxxxxxxxxxxxxxxxxxxx
            x  Element         Atom        Fractional coordinates of atoms  x
            x                 Number           u          v          w      x
            x---------------------------------------------------------------x
            x  H                 1         0.416799   0.377830   0.000000   x
            x  H                 2        -0.416799   0.377830   0.500000   x
            x  H                 3         0.416799  -0.377830   0.500000   x
            x  H                 4        -0.416799  -0.377830   0.000000   x
            x  H                 5         0.380875   0.000000   0.250000   x
            x  H                 6        -0.380875   0.000000   0.750000   x
            x  H                 7         0.380875   0.000000   0.750000   x
            x  H                 8        -0.380875  -0.000000   0.250000   x
            x  H                 9         0.916799   0.877830   0.500000   x
            x  H                10        -0.916799   0.877830   0.000000   x
            x  H                11         0.916799  -0.877830   0.000000   x
            x  H                12        -0.916799  -0.877830   0.500000   x
            x  H                13         0.880875   0.500000   0.750000   x
            x  H                14        -0.880875   0.500000   0.250000   x
            x  H                15         0.880875   0.500000   0.250000   x
            x  H                16        -0.880875   0.500000   0.750000   x
            xxxxxxxxxxxxxxxxxxxxxxxxxxxxxxxxxxxxxxxxxxxxxxxxxxxxxxxxxxxxxxxxx


------------------------------------------------------------------------ <-- SCF
SCF loop      Energy                           Energy gain       Timer   <-- SCF
                                               per atom          (sec)   <-- SCF
------------------------------------------------------------------------ <-- SCF
Initial  -2.44732842E+002                                         39.38  <-- SCF
      1  -2.44756589E+002                    1.48424203E-003      40.08  <-- SCF
      2  -2.44756659E+002                    4.32557399E-006      41.18  <-- SCF
      3  -2.44755761E+002                   -5.60994159E-005      42.28  <-- SCF
      4  -2.44755738E+002                   -1.44653922E-006      43.38  <-- SCF
      5  -2.44755739E+002                    6.58180408E-008      44.46  <-- SCF
      6  -2.44755739E+002                    6.56863252E-009      45.56  <-- SCF
      7  -2.44755739E+002                    2.23770709E-011      46.41  <-- SCF
      8  -2.44755739E+002                    1.11477510E-012      47.25  <-- SCF
      9  -2.44755739E+002                    8.76110512E-013      48.09  <-- SCF
------------------------------------------------------------------------ <-- SCF
 
Final energy =  -244.7557390359     eV
(energy not corrected for finite basis set)
 

 ******************************** Symmetrised Forces ********************************
 *                                                                                  *
 *                           Cartesian components (eV/A)                            *
 * -------------------------------------------------------------------------------- *
 *                         x                    y                    z              *
 *                                                                                  *
 * H               1      0.36134              0.34766             -0.00000         *
 * H               2     -0.36134              0.34766             -0.00000         *
 * H               3      0.36134             -0.34766             -0.00000         *
 * H               4     -0.36134             -0.34766             -0.00000         *
 * H               5      0.49219              0.00000             -0.00000         *
 * H               6     -0.49219              0.00000              0.00000         *
 * H               7      0.49219              0.00000              0.00000         *
 * H               8     -0.49219             -0.00000             -0.00000         *
 * H               9      0.36134              0.34766             -0.00000         *
 * H              10     -0.36134              0.34766             -0.00000         *
 * H              11      0.36134             -0.34766             -0.00000         *
 * H              12     -0.36134             -0.34766             -0.00000         *
 * H              13      0.49219              0.00000              0.00000         *
 * H              14     -0.49219              0.00000             -0.00000         *
 * H              15      0.49219              0.00000             -0.00000         *
 * H              16     -0.49219             -0.00000              0.00000         *
 *                                                                                  *
 ************************************************************************************

 *********** Symmetrised Stress Tensor ***********
 *                                               *
 *          Cartesian components (GPa)           *
 * --------------------------------------------- *
 *             x             y             z     *
 *                                               *
 *  x    -58.779283     -0.000000      0.000000  *
 *  y     -0.000000    -65.555506      0.000000  *
 *  z      0.000000      0.000000    -68.857531  *
 *                                               *
 *  Pressure:   64.3974                          *
 *                                               *
 *************************************************
  
 +------------+-------------+-------------+-----------------+ <-- min LBFGS
 |    Step    |   lambda    |   F.delta'  |    enthalpy     | <-- min LBFGS
 +------------+-------------+-------------+-----------------+ <-- min LBFGS
 |  previous  |    0.000000 |    0.272048 |     -227.369908 | <-- min LBFGS
 | trial step |    1.000000 |    0.137665 |     -227.478724 | <-- min LBFGS
 |  line step |    2.024429 |    0.006662 |     -227.517636 | <-- min LBFGS
 +------------+-------------+-------------+-----------------+ <-- min LBFGS
  
 LBFGS: finished iteration     1 with enthalpy= -2.27517636E+002 eV
  
 +-----------+-----------------+-----------------+------------+-----+ <-- LBFGS
 | Parameter |      value      |    tolerance    |    units   | OK? | <-- LBFGS
 +-----------+-----------------+-----------------+------------+-----+ <-- LBFGS
 |  dE/ion   |   9.233026E-003 |   1.000000E-009 |         eV | No  | <-- LBFGS
 |  |F|max   |   5.014328E-001 |   1.000000E-005 |       eV/A | No  | <-- LBFGS
 |  |dR|max  |   1.572445E-007 |   1.000000E-005 |          A | Yes | <-- LBFGS
 |   Smax    |   5.220717E+000 |   1.000000E-005 |        GPa | No  | <-- LBFGS
 +-----------+-----------------+-----------------+------------+-----+ <-- LBFGS
  

================================================================================
 Starting LBFGS iteration          2 ...
================================================================================
  
 +------------+-------------+-------------+-----------------+ <-- min LBFGS
 |    Step    |   lambda    |   F.delta'  |    enthalpy     | <-- min LBFGS
 +------------+-------------+-------------+-----------------+ <-- min LBFGS
 |  previous  |    0.000000 |    0.167527 |     -227.517636 | <-- min LBFGS
 +------------+-------------+-------------+-----------------+ <-- min LBFGS
  

--------------------------------------------------------------------------------
 LBFGS: starting iteration         2 with trial guess (lambda=  1.000000)
--------------------------------------------------------------------------------
 
+---------------- MEMORY AND SCRATCH DISK ESTIMATES PER PROCESS --------------+
|                                                     Memory          Disk    |
| Model and support data                               50.9 MB         0.0 MB |
| Electronic energy minimisation requirements          22.8 MB         0.0 MB |
| Geometry minimisation requirements                   26.4 MB         0.0 MB |
|                                               ----------------------------- |
| Approx. total storage required per process          100.1 MB         0.0 MB |
|                                                                             |
| Requirements will fluctuate during execution and may exceed these estimates |
+-----------------------------------------------------------------------------+
 

                           -------------------------------
                                      Unit Cell
                           -------------------------------
        Real Lattice(A)              Reciprocal Lattice(1/A)
     3.3002035    -0.0000000     0.0000000        1.903878124   0.000000000   0.000000000
    -0.0000000     2.2153540     0.0000000        0.000000000   2.836199196   0.000000000
     0.0000000     0.0000000     6.5148329        0.000000000   0.000000000   0.964443044

                       Lattice parameters(A)       Cell Angles
                    a =      3.300204          alpha =   90.000000
                    b =      2.215354          beta  =   90.000000
                    c =      6.514833          gamma =   90.000000

                Current cell volume =            47.630720 A**3

                           -------------------------------
                                     Cell Contents
                           -------------------------------

            xxxxxxxxxxxxxxxxxxxxxxxxxxxxxxxxxxxxxxxxxxxxxxxxxxxxxxxxxxxxxxxxx
            x  Element         Atom        Fractional coordinates of atoms  x
            x                 Number           u          v          w      x
            x---------------------------------------------------------------x
            x  H                 1         0.428527   0.394716   0.000000   x
            x  H                 2        -0.428527   0.394716   0.500000   x
            x  H                 3         0.428527  -0.394716   0.500000   x
            x  H                 4        -0.428527  -0.394716   0.000000   x
            x  H                 5         0.396849   0.000000   0.250000   x
            x  H                 6        -0.396849   0.000000   0.750000   x
            x  H                 7         0.396849   0.000000   0.750000   x
            x  H                 8        -0.396849  -0.000000   0.250000   x
            x  H                 9         0.928527   0.894716   0.500000   x
            x  H                10        -0.928527   0.894716   0.000000   x
            x  H                11         0.928527  -0.894716   0.000000   x
            x  H                12        -0.928527  -0.894716   0.500000   x
            x  H                13         0.896849   0.500000   0.750000   x
            x  H                14        -0.896849   0.500000   0.250000   x
            x  H                15         0.896849   0.500000   0.250000   x
            x  H                16        -0.896849   0.500000   0.750000   x
            xxxxxxxxxxxxxxxxxxxxxxxxxxxxxxxxxxxxxxxxxxxxxxxxxxxxxxxxxxxxxxxxx


------------------------------------------------------------------------ <-- SCF
SCF loop      Energy                           Energy gain       Timer   <-- SCF
                                               per atom          (sec)   <-- SCF
------------------------------------------------------------------------ <-- SCF
Initial  -2.41253782E+002                                         51.92  <-- SCF
      1  -2.46317658E+002                    3.16492242E-001      52.74  <-- SCF
      2  -2.46335946E+002                    1.14303352E-003      54.00  <-- SCF
      3  -2.45913957E+002                   -2.63743090E-002      55.25  <-- SCF
      4  -2.45898375E+002                   -9.73906357E-004      56.51  <-- SCF
      5  -2.45898629E+002                    1.59247876E-005      57.78  <-- SCF
      6  -2.45898657E+002                    1.70801823E-006      59.03  <-- SCF
      7  -2.45898657E+002                    9.68603009E-009      60.31  <-- SCF
      8  -2.45898657E+002                    3.78564331E-010      61.47  <-- SCF
      9  -2.45898657E+002                    1.79512023E-011      62.44  <-- SCF
     10  -2.45898657E+002                    8.45899804E-014      63.42  <-- SCF
     11  -2.45898657E+002                   -7.85478390E-014      64.40  <-- SCF
------------------------------------------------------------------------ <-- SCF
 
Final energy =  -245.8986569460     eV
(energy not corrected for finite basis set)
 

 ******************************** Symmetrised Forces ********************************
 *                                                                                  *
 *                           Cartesian components (eV/A)                            *
 * -------------------------------------------------------------------------------- *
 *                         x                    y                    z              *
 *                                                                                  *
 * H               1     -2.18014             -2.20728              0.00000         *
 * H               2      2.18014             -2.20728              0.00000         *
 * H               3     -2.18014              2.20728              0.00000         *
 * H               4      2.18014              2.20728              0.00000         *
 * H               5     -2.20199             -0.00000             -0.00000         *
 * H               6      2.20199             -0.00000             -0.00000         *
 * H               7     -2.20199             -0.00000              0.00000         *
 * H               8      2.20199             -0.00000              0.00000         *
 * H               9     -2.18014             -2.20728              0.00000         *
 * H              10      2.18014             -2.20728              0.00000         *
 * H              11     -2.18014              2.20728              0.00000         *
 * H              12      2.18014              2.20728              0.00000         *
 * H              13     -2.20199             -0.00000             -0.00000         *
 * H              14      2.20199             -0.00000             -0.00000         *
 * H              15     -2.20199             -0.00000              0.00000         *
 * H              16      2.20199             -0.00000             -0.00000         *
 *                                                                                  *
 ************************************************************************************

 *********** Symmetrised Stress Tensor ***********
 *                                               *
 *          Cartesian components (GPa)           *
 * --------------------------------------------- *
 *             x             y             z     *
 *                                               *
 *  x    -85.370916      0.000000      0.000000  *
 *  y      0.000000    -67.612547      0.000000  *
 *  z      0.000000      0.000000    -51.867999  *
 *                                               *
 *  Pressure:   68.2838                          *
 *                                               *
 *************************************************
  
 +------------+-------------+-------------+-----------------+ <-- min LBFGS
 |    Step    |   lambda    |   F.delta'  |    enthalpy     | <-- min LBFGS
 +------------+-------------+-------------+-----------------+ <-- min LBFGS
 |  previous  |    0.000000 |    0.167527 |     -227.517636 | <-- min LBFGS
 | trial step |    1.000000 |   -0.843782 |     -226.872248 | <-- min LBFGS
 +------------+-------------+-------------+-----------------+ <-- min LBFGS
  

--------------------------------------------------------------------------------
 LBFGS: improving iteration         2 with line minimization (lambda=  0.165654)
--------------------------------------------------------------------------------

                           -------------------------------
                                      Unit Cell
                           -------------------------------
        Real Lattice(A)              Reciprocal Lattice(1/A)
     3.2212356    -0.0000000     0.0000000        1.950551323   0.000000000   0.000000000
    -0.0000000     2.1541216     0.0000000        0.000000000   2.916820163   0.000000000
     0.0000000     0.0000000     6.3230592        0.000000000   0.000000000   0.993693888

                       Lattice parameters(A)       Cell Angles
                    a =      3.221236          alpha =   90.000000
                    b =      2.154122          beta  =   90.000000
                    c =      6.323059          gamma =   90.000000

                Current cell volume =            43.875285 A**3

                           -------------------------------
                                     Cell Contents
                           -------------------------------

            xxxxxxxxxxxxxxxxxxxxxxxxxxxxxxxxxxxxxxxxxxxxxxxxxxxxxxxxxxxxxxxxx
            x  Element         Atom        Fractional coordinates of atoms  x
            x                 Number           u          v          w      x
            x---------------------------------------------------------------x
            x  H                 1         0.418742   0.380627   0.000000   x
            x  H                 2        -0.418742   0.380627   0.500000   x
            x  H                 3         0.418742  -0.380627   0.500000   x
            x  H                 4        -0.418742  -0.380627   0.000000   x
            x  H                 5         0.383521   0.000000   0.250000   x
            x  H                 6        -0.383521   0.000000   0.750000   x
            x  H                 7         0.383521   0.000000   0.750000   x
            x  H                 8        -0.383521  -0.000000   0.250000   x
            x  H                 9         0.918742   0.880627   0.500000   x
            x  H                10        -0.918742   0.880627   0.000000   x
            x  H                11         0.918742  -0.880627   0.000000   x
            x  H                12        -0.918742  -0.880627   0.500000   x
            x  H                13         0.883521   0.500000   0.750000   x
            x  H                14        -0.883521   0.500000   0.250000   x
            x  H                15         0.883521   0.500000   0.250000   x
            x  H                16        -0.883521   0.500000   0.750000   x
            xxxxxxxxxxxxxxxxxxxxxxxxxxxxxxxxxxxxxxxxxxxxxxxxxxxxxxxxxxxxxxxxx


------------------------------------------------------------------------ <-- SCF
SCF loop      Energy                           Energy gain       Timer   <-- SCF
                                               per atom          (sec)   <-- SCF
------------------------------------------------------------------------ <-- SCF
Initial  -2.41595893E+002                                         67.27  <-- SCF
      1  -2.45375000E+002                    2.36194235E-001      67.98  <-- SCF
      2  -2.45423848E+002                    3.05300425E-003      69.10  <-- SCF
      3  -2.45104719E+002                   -1.99455673E-002      70.21  <-- SCF
      4  -2.45094464E+002                   -6.40975448E-004      71.33  <-- SCF
      5  -2.45094535E+002                    4.47794543E-006      72.42  <-- SCF
      6  -2.45094541E+002                    3.61088243E-007      73.55  <-- SCF
      7  -2.45094541E+002                    1.60941199E-009      74.70  <-- SCF
      8  -2.45094541E+002                    1.34504111E-010      75.56  <-- SCF
      9  -2.45094541E+002                    5.86994043E-012      76.40  <-- SCF
     10  -2.45094541E+002                    3.62528488E-014      77.24  <-- SCF
------------------------------------------------------------------------ <-- SCF
 
Final energy =  -245.0945411825     eV
(energy not corrected for finite basis set)
 

 ******************************** Symmetrised Forces ********************************
 *                                                                                  *
 *                           Cartesian components (eV/A)                            *
 * -------------------------------------------------------------------------------- *
 *                         x                    y                    z              *
 *                                                                                  *
 * H               1      0.09317              0.05997              0.00000         *
 * H               2     -0.09317              0.05997              0.00000         *
 * H               3      0.09317             -0.05997              0.00000         *
 * H               4     -0.09317             -0.05997              0.00000         *
 * H               5      0.26737              0.00000             -0.00000         *
 * H               6     -0.26737             -0.00000             -0.00000         *
 * H               7      0.26737              0.00000              0.00000         *
 * H               8     -0.26737              0.00000             -0.00000         *
 * H               9      0.09317              0.05997              0.00000         *
 * H              10     -0.09317              0.05997              0.00000         *
 * H              11      0.09317             -0.05997              0.00000         *
 * H              12     -0.09317             -0.05997              0.00000         *
 * H              13      0.26737              0.00000              0.00000         *
 * H              14     -0.26737              0.00000              0.00000         *
 * H              15      0.26737             -0.00000              0.00000         *
 * H              16     -0.26737              0.00000             -0.00000         *
 *                                                                                  *
 ************************************************************************************

 *********** Symmetrised Stress Tensor ***********
 *                                               *
 *          Cartesian components (GPa)           *
 * --------------------------------------------- *
 *             x             y             z     *
 *                                               *
 *  x    -60.795991      0.000000      0.000000  *
 *  y      0.000000    -66.334776      0.000000  *
 *  z      0.000000      0.000000    -66.783633  *
 *                                               *
 *  Pressure:   64.6381                          *
 *                                               *
 *************************************************
  
 +------------+-------------+-------------+-----------------+ <-- min LBFGS
 |    Step    |   lambda    |   F.delta'  |    enthalpy     | <-- min LBFGS
 +------------+-------------+-------------+-----------------+ <-- min LBFGS
 |  previous  |    0.000000 |    0.167527 |     -227.517636 | <-- min LBFGS
 | trial step |    1.000000 |   -0.843782 |     -226.872248 | <-- min LBFGS
 |  line step |    0.165654 |    0.069633 |     -227.568287 | <-- min LBFGS
 +------------+-------------+-------------+-----------------+ <-- min LBFGS
  

--------------------------------------------------------------------------------
 LBFGS: improving iteration         2 with quad minimization (lambda=  0.248268)
--------------------------------------------------------------------------------

                           -------------------------------
                                      Unit Cell
                           -------------------------------
        Real Lattice(A)              Reciprocal Lattice(1/A)
     3.2290547    -0.0000000     0.0000000        1.945828060   0.000000000   0.000000000
    -0.0000000     2.1601846     0.0000000        0.000000000   2.908633452   0.000000000
     0.0000000     0.0000000     6.3420481        0.000000000   0.000000000   0.990718653

                       Lattice parameters(A)       Cell Angles
                    a =      3.229055          alpha =   90.000000
                    b =      2.160185          beta  =   90.000000
                    c =      6.342048          gamma =   90.000000

                Current cell volume =            44.238033 A**3

                           -------------------------------
                                     Cell Contents
                           -------------------------------

            xxxxxxxxxxxxxxxxxxxxxxxxxxxxxxxxxxxxxxxxxxxxxxxxxxxxxxxxxxxxxxxxx
            x  Element         Atom        Fractional coordinates of atoms  x
            x                 Number           u          v          w      x
            x---------------------------------------------------------------x
            x  H                 1         0.419711   0.382022   0.000000   x
            x  H                 2        -0.419711   0.382022   0.500000   x
            x  H                 3         0.419711  -0.382022   0.500000   x
            x  H                 4        -0.419711  -0.382022   0.000000   x
            x  H                 5         0.384840   0.000000   0.250000   x
            x  H                 6        -0.384840   0.000000   0.750000   x
            x  H                 7         0.384840   0.000000   0.750000   x
            x  H                 8        -0.384840  -0.000000   0.250000   x
            x  H                 9         0.919711   0.882022   0.500000   x
            x  H                10        -0.919711   0.882022   0.000000   x
            x  H                11         0.919711  -0.882022   0.000000   x
            x  H                12        -0.919711  -0.882022   0.500000   x
            x  H                13         0.884840   0.500000   0.750000   x
            x  H                14        -0.884840   0.500000   0.250000   x
            x  H                15         0.884840   0.500000   0.250000   x
            x  H                16        -0.884840   0.500000   0.750000   x
            xxxxxxxxxxxxxxxxxxxxxxxxxxxxxxxxxxxxxxxxxxxxxxxxxxxxxxxxxxxxxxxxx


------------------------------------------------------------------------ <-- SCF
SCF loop      Energy                           Energy gain       Timer   <-- SCF
                                               per atom          (sec)   <-- SCF
------------------------------------------------------------------------ <-- SCF
Initial  -2.45214398E+002                                         79.82  <-- SCF
      1  -2.45251668E+002                    2.32941928E-003      80.53  <-- SCF
      2  -2.45251826E+002                    9.83675683E-006      81.64  <-- SCF
      3  -2.45248823E+002                   -1.87695634E-004      82.75  <-- SCF
      4  -2.45248713E+002                   -6.82577814E-006      83.88  <-- SCF
      5  -2.45248715E+002                    7.29040619E-008      85.02  <-- SCF
      6  -2.45248715E+002                    6.68003148E-009      86.15  <-- SCF
      7  -2.45248715E+002                    2.52168774E-011      87.08  <-- SCF
      8  -2.45248715E+002                    1.90931670E-012      87.97  <-- SCF
      9  -2.45248715E+002                    8.45899804E-014      88.82  <-- SCF
------------------------------------------------------------------------ <-- SCF
 
Final energy =  -245.2487147652     eV
(energy not corrected for finite basis set)
 

 ******************************** Symmetrised Forces ********************************
 *                                                                                  *
 *                           Cartesian components (eV/A)                            *
 * -------------------------------------------------------------------------------- *
 *                         x                    y                    z              *
 *                                                                                  *
 * H               1     -0.05590             -0.09780              0.00000         *
 * H               2      0.05590             -0.09780              0.00000         *
 * H               3     -0.05590              0.09780              0.00000         *
 * H               4      0.05590              0.09780              0.00000         *
 * H               5      0.14520              0.00000              0.00000         *
 * H               6     -0.14520              0.00000             -0.00000         *
 * H               7      0.14520              0.00000             -0.00000         *
 * H               8     -0.14520              0.00000              0.00000         *
 * H               9     -0.05590             -0.09780              0.00000         *
 * H              10      0.05590             -0.09780              0.00000         *
 * H              11     -0.05590              0.09780              0.00000         *
 * H              12      0.05590              0.09780              0.00000         *
 * H              13      0.14520              0.00000              0.00000         *
 * H              14     -0.14520              0.00000             -0.00000         *
 * H              15      0.14520             -0.00000             -0.00000         *
 * H              16     -0.14520              0.00000              0.00000         *
 *                                                                                  *
 ************************************************************************************

 *********** Symmetrised Stress Tensor ***********
 *                                               *
 *          Cartesian components (GPa)           *
 * --------------------------------------------- *
 *             x             y             z     *
 *                                               *
 *  x    -61.907162     -0.000000      0.000000  *
 *  y     -0.000000    -66.878708      0.000000  *
 *  z      0.000000      0.000000    -65.849068  *
 *                                               *
 *  Pressure:   64.8783                          *
 *                                               *
 *************************************************
  
 +------------+-------------+-------------+-----------------+ <-- min LBFGS
 |    Step    |   lambda    |   F.delta'  |    enthalpy     | <-- min LBFGS
 +------------+-------------+-------------+-----------------+ <-- min LBFGS
 |  previous  |    0.000000 |    0.167527 |     -227.517636 | <-- min LBFGS
 | trial step |    1.000000 |   -0.843782 |     -226.872248 | <-- min LBFGS
 |  line step |    0.165654 |    0.069633 |     -227.568287 | <-- min LBFGS
 |  quad step |    0.248268 |    0.016697 |     -227.577525 | <-- min LBFGS
 +------------+-------------+-------------+-----------------+ <-- min LBFGS
  
 LBFGS: finished iteration     2 with enthalpy= -2.27577525E+002 eV
  
 +-----------+-----------------+-----------------+------------+-----+ <-- LBFGS
 | Parameter |      value      |    tolerance    |    units   | OK? | <-- LBFGS
 +-----------+-----------------+-----------------+------------+-----+ <-- LBFGS
 |  dE/ion   |   3.743040E-003 |   1.000000E-009 |         eV | No  | <-- LBFGS
 |  |F|max   |   1.452036E-001 |   1.000000E-005 |       eV/A | No  | <-- LBFGS
 |  |dR|max  |   1.305363E-002 |   1.000000E-005 |          A | No  | <-- LBFGS
 |   Smax    |   2.878708E+000 |   1.000000E-005 |        GPa | No  | <-- LBFGS
 +-----------+-----------------+-----------------+------------+-----+ <-- LBFGS
  

================================================================================
 Starting LBFGS iteration          3 ...
================================================================================
  
 +------------+-------------+-------------+-----------------+ <-- min LBFGS
 |    Step    |   lambda    |   F.delta'  |    enthalpy     | <-- min LBFGS
 +------------+-------------+-------------+-----------------+ <-- min LBFGS
 |  previous  |    0.000000 |    0.061023 |     -227.577525 | <-- min LBFGS
 +------------+-------------+-------------+-----------------+ <-- min LBFGS
  

--------------------------------------------------------------------------------
 LBFGS: starting iteration         3 with trial guess (lambda=  1.000000)
--------------------------------------------------------------------------------

                           -------------------------------
                                      Unit Cell
                           -------------------------------
        Real Lattice(A)              Reciprocal Lattice(1/A)
     3.2373742    -0.0000000     0.0000000        1.940827628   0.000000000   0.000000000
    -0.0000000     2.1746047     0.0000000        0.000000000   2.889345976   0.000000000
     0.0000000     0.0000000     6.3803131        0.000000000   0.000000000   0.984776949

                       Lattice parameters(A)       Cell Angles
                    a =      3.237374          alpha =   90.000000
                    b =      2.174605          beta  =   90.000000
                    c =      6.380313          gamma =   90.000000

                Current cell volume =            44.917463 A**3

                           -------------------------------
                                     Cell Contents
                           -------------------------------

            xxxxxxxxxxxxxxxxxxxxxxxxxxxxxxxxxxxxxxxxxxxxxxxxxxxxxxxxxxxxxxxxx
            x  Element         Atom        Fractional coordinates of atoms  x
            x                 Number           u          v          w      x
            x---------------------------------------------------------------x
            x  H                 1         0.418492   0.377927   0.000000   x
            x  H                 2        -0.418492   0.377927   0.500000   x
            x  H                 3         0.418492  -0.377927   0.500000   x
            x  H                 4        -0.418492  -0.377927   0.000000   x
            x  H                 5         0.391020   0.000000   0.250000   x
            x  H                 6        -0.391020   0.000000   0.750000   x
            x  H                 7         0.391020  -0.000000   0.750000   x
            x  H                 8        -0.391020  -0.000000   0.250000   x
            x  H                 9         0.918492   0.877927   0.500000   x
            x  H                10        -0.918492   0.877927   0.000000   x
            x  H                11         0.918492  -0.877927   0.000000   x
            x  H                12        -0.918492  -0.877927   0.500000   x
            x  H                13         0.891020   0.500000   0.750000   x
            x  H                14        -0.891020   0.500000   0.250000   x
            x  H                15         0.891020   0.500000   0.250000   x
            x  H                16        -0.891020   0.500000   0.750000   x
            xxxxxxxxxxxxxxxxxxxxxxxxxxxxxxxxxxxxxxxxxxxxxxxxxxxxxxxxxxxxxxxxx


------------------------------------------------------------------------ <-- SCF
SCF loop      Energy                           Energy gain       Timer   <-- SCF
                                               per atom          (sec)   <-- SCF
------------------------------------------------------------------------ <-- SCF
Initial  -2.45059256E+002                                         91.44  <-- SCF
      1  -2.45477705E+002                    2.61530444E-002      92.23  <-- SCF
      2  -2.45479768E+002                    1.28899252E-004      93.39  <-- SCF
      3  -2.45440387E+002                   -2.46127516E-003      94.57  <-- SCF
      4  -2.45439634E+002                   -4.70642022E-005      95.78  <-- SCF
      5  -2.45439639E+002                    2.86135243E-007      96.95  <-- SCF
      6  -2.45439639E+002                    1.35232491E-008      98.15  <-- SCF
      7  -2.45439639E+002                    1.19609628E-009      99.33  <-- SCF
      8  -2.45439639E+002                    1.51627540E-010     100.50  <-- SCF
      9  -2.45439639E+002                    2.09360202E-012     101.39  <-- SCF
     10  -2.45439639E+002                    4.92434529E-013     102.29  <-- SCF
------------------------------------------------------------------------ <-- SCF
 
Final energy =  -245.4396389794     eV
(energy not corrected for finite basis set)
 

 ******************************** Symmetrised Forces ********************************
 *                                                                                  *
 *                           Cartesian components (eV/A)                            *
 * -------------------------------------------------------------------------------- *
 *                         x                    y                    z              *
 *                                                                                  *
 * H               1      0.45054              0.42850             -0.00000         *
 * H               2     -0.45054              0.42850             -0.00000         *
 * H               3      0.45054             -0.42850             -0.00000         *
 * H               4     -0.45054             -0.42850             -0.00000         *
 * H               5     -1.05619             -0.00000             -0.00000         *
 * H               6      1.05619              0.00000              0.00000         *
 * H               7     -1.05619             -0.00000             -0.00000         *
 * H               8      1.05619              0.00000              0.00000         *
 * H               9      0.45054              0.42850             -0.00000         *
 * H              10     -0.45054              0.42850             -0.00000         *
 * H              11      0.45054             -0.42850             -0.00000         *
 * H              12     -0.45054             -0.42850             -0.00000         *
 * H              13     -1.05619              0.00000             -0.00000         *
 * H              14      1.05619             -0.00000              0.00000         *
 * H              15     -1.05619              0.00000             -0.00000         *
 * H              16      1.05619             -0.00000              0.00000         *
 *                                                                                  *
 ************************************************************************************

 *********** Symmetrised Stress Tensor ***********
 *                                               *
 *          Cartesian components (GPa)           *
 * --------------------------------------------- *
 *             x             y             z     *
 *                                               *
 *  x    -68.188824     -0.000000      0.000000  *
 *  y     -0.000000    -61.907810      0.000000  *
 *  z      0.000000      0.000000    -63.906427  *
 *                                               *
 *  Pressure:   64.6677                          *
 *                                               *
 *************************************************
  
 +------------+-------------+-------------+-----------------+ <-- min LBFGS
 |    Step    |   lambda    |   F.delta'  |    enthalpy     | <-- min LBFGS
 +------------+-------------+-------------+-----------------+ <-- min LBFGS
 |  previous  |    0.000000 |    0.061023 |     -227.577525 | <-- min LBFGS
 | trial step |    1.000000 |   -0.338223 |     -227.497057 | <-- min LBFGS
 +------------+-------------+-------------+-----------------+ <-- min LBFGS
  

--------------------------------------------------------------------------------
 LBFGS: improving iteration         3 with line minimization (lambda=  0.152847)
--------------------------------------------------------------------------------

                           -------------------------------
                                      Unit Cell
                           -------------------------------
        Real Lattice(A)              Reciprocal Lattice(1/A)
     3.2303263    -0.0000000     0.0000000        1.945062094   0.000000000   0.000000000
    -0.0000000     2.1623887     0.0000000        0.000000000   2.905668774   0.000000000
     0.0000000     0.0000000     6.3478967        0.000000000   0.000000000   0.989805846

                       Lattice parameters(A)       Cell Angles
                    a =      3.230326          alpha =   90.000000
                    b =      2.162389          beta  =   90.000000
                    c =      6.347897          gamma =   90.000000

                Current cell volume =            44.341463 A**3

                           -------------------------------
                                     Cell Contents
                           -------------------------------

            xxxxxxxxxxxxxxxxxxxxxxxxxxxxxxxxxxxxxxxxxxxxxxxxxxxxxxxxxxxxxxxxx
            x  Element         Atom        Fractional coordinates of atoms  x
            x                 Number           u          v          w      x
            x---------------------------------------------------------------x
            x  H                 1         0.419525   0.381396   0.000000   x
            x  H                 2        -0.419525   0.381396   0.500000   x
            x  H                 3         0.419525  -0.381396   0.500000   x
            x  H                 4        -0.419525  -0.381396   0.000000   x
            x  H                 5         0.385785   0.000000   0.250000   x
            x  H                 6        -0.385785   0.000000   0.750000   x
            x  H                 7         0.385785  -0.000000   0.750000   x
            x  H                 8        -0.385785  -0.000000   0.250000   x
            x  H                 9         0.919525   0.881396   0.500000   x
            x  H                10        -0.919525   0.881396   0.000000   x
            x  H                11         0.919525  -0.881396   0.000000   x
            x  H                12        -0.919525  -0.881396   0.500000   x
            x  H                13         0.885785   0.500000   0.750000   x
            x  H                14        -0.885785   0.500000   0.250000   x
            x  H                15         0.885785   0.500000   0.250000   x
            x  H                16        -0.885785   0.500000   0.750000   x
            xxxxxxxxxxxxxxxxxxxxxxxxxxxxxxxxxxxxxxxxxxxxxxxxxxxxxxxxxxxxxxxxx


------------------------------------------------------------------------ <-- SCF
SCF loop      Energy                           Energy gain       Timer   <-- SCF
                                               per atom          (sec)   <-- SCF
------------------------------------------------------------------------ <-- SCF
Initial  -2.45020473E+002                                        104.95  <-- SCF
      1  -2.45321294E+002                    1.88012904E-002     105.65  <-- SCF
      2  -2.45322945E+002                    1.03156316E-004     106.73  <-- SCF
      3  -2.45293920E+002                   -1.81404377E-003     107.84  <-- SCF
      4  -2.45293422E+002                   -3.11383055E-005     108.96  <-- SCF
      5  -2.45293422E+002                    3.42879444E-009     110.04  <-- SCF
      6  -2.45293422E+002                   -1.02304633E-008     111.15  <-- SCF
      7  -2.45293422E+002                    8.42177845E-010     112.26  <-- SCF
      8  -2.45293422E+002                    9.11064300E-011     113.26  <-- SCF
[...]
            x  H                16        -0.870728   0.500000   0.750000   x
            xxxxxxxxxxxxxxxxxxxxxxxxxxxxxxxxxxxxxxxxxxxxxxxxxxxxxxxxxxxxxxxxx


------------------------------------------------------------------------ <-- SCF
SCF loop      Energy                           Energy gain       Timer   <-- SCF
                                               per atom          (sec)   <-- SCF
------------------------------------------------------------------------ <-- SCF
Initial  -2.45633768E+002                                        808.78  <-- SCF
      1  -2.45633768E+002                    5.23702611E-011     809.42  <-- SCF
      2  -2.45633768E+002                    3.02107073E-014     810.17  <-- SCF
      3  -2.45633768E+002                    3.32317780E-013     810.93  <-- SCF
      4  -2.45633768E+002                    4.38055256E-013     811.68  <-- SCF
------------------------------------------------------------------------ <-- SCF
 
Final energy =  -245.6337675470     eV
(energy not corrected for finite basis set)
 

 ******************************** Symmetrised Forces ********************************
 *                                                                                  *
 *                           Cartesian components (eV/A)                            *
 * -------------------------------------------------------------------------------- *
 *                         x                    y                    z              *
 *                                                                                  *
 * H               1      0.00000             -0.00000             -0.00000         *
 * H               2     -0.00000             -0.00000             -0.00000         *
 * H               3      0.00000              0.00000             -0.00000         *
 * H               4     -0.00000              0.00000             -0.00000         *
 * H               5      0.00000             -0.00000              0.00000         *
 * H               6     -0.00000              0.00000              0.00000         *
 * H               7      0.00000              0.00000             -0.00000         *
 * H               8     -0.00000             -0.00000             -0.00000         *
 * H               9      0.00000             -0.00000             -0.00000         *
 * H              10     -0.00000             -0.00000             -0.00000         *
 * H              11      0.00000              0.00000             -0.00000         *
 * H              12     -0.00000              0.00000             -0.00000         *
 * H              13      0.00000              0.00000              0.00000         *
 * H              14     -0.00000              0.00000              0.00000         *
 * H              15      0.00000              0.00000              0.00000         *
 * H              16     -0.00000             -0.00000             -0.00000         *
 *                                                                                  *
 ************************************************************************************

 *********** Symmetrised Stress Tensor ***********
 *                                               *
 *          Cartesian components (GPa)           *
 * --------------------------------------------- *
 *             x             y             z     *
 *                                               *
 *  x    -63.999998      0.000000      0.000000  *
 *  y      0.000000    -64.000002      0.000000  *
 *  z      0.000000      0.000000    -64.000000  *
 *                                               *
 *  Pressure:   64.0000                          *
 *                                               *
 *************************************************
  
 +------------+-------------+-------------+-----------------+ <-- min LBFGS
 |    Step    |   lambda    |   F.delta'  |    enthalpy     | <-- min LBFGS
 +------------+-------------+-------------+-----------------+ <-- min LBFGS
 |  previous  |    0.000000 |  2.780E-007 |     -227.904667 | <-- min LBFGS
 | trial step |    1.000000 | -1.398E-008 |     -227.904667 | <-- min LBFGS
 +------------+-------------+-------------+-----------------+ <-- min LBFGS
  
 LBFGS: finished iteration    38 with enthalpy= -2.27904667E+002 eV
  
 +-----------+-----------------+-----------------+------------+-----+ <-- LBFGS
 | Parameter |      value      |    tolerance    |    units   | OK? | <-- LBFGS
 +-----------+-----------------+-----------------+------------+-----+ <-- LBFGS
 |  dE/ion   |   6.495302E-013 |   1.000000E-009 |         eV | Yes | <-- LBFGS
 |  |F|max   |   7.792221E-008 |   1.000000E-005 |       eV/A | Yes | <-- LBFGS
 |  |dR|max  |   1.643459E-006 |   1.000000E-005 |          A | Yes | <-- LBFGS
 |   Smax    |   2.118444E-006 |   1.000000E-005 |        GPa | Yes | <-- LBFGS
 +-----------+-----------------+-----------------+------------+-----+ <-- LBFGS
  
 LBFGS: Geometry optimization completed successfully.

================================================================================
 LBFGS: Final Configuration:
================================================================================

                           -------------------------------
                                      Unit Cell
                           -------------------------------
        Real Lattice(A)              Reciprocal Lattice(1/A)
     2.8266402    -0.0000000     0.0000000        2.222845839   0.000000000   0.000000000
    -0.0000000     2.8141362     0.0000000        0.000000000   2.232722550   0.000000000
     0.0000000     0.0000000     5.5795780        0.000000000   0.000000000   1.126104034

                       Lattice parameters(A)       Cell Angles
                    a =      2.826640          alpha =   90.000000
                    b =      2.814136          beta  =   90.000000
                    c =      5.579578          gamma =   90.000000

                Current cell volume =            44.383034 A**3

                           -------------------------------
                                     Cell Contents
                           -------------------------------

            xxxxxxxxxxxxxxxxxxxxxxxxxxxxxxxxxxxxxxxxxxxxxxxxxxxxxxxxxxxxxxxxx
            x  Element         Atom        Fractional coordinates of atoms  x
            x                 Number           u          v          w      x
            x---------------------------------------------------------------x
            x  H                 1         0.426383   0.392780   0.000000   x
            x  H                 2        -0.426383   0.392780   0.500000   x
            x  H                 3         0.426383  -0.392780   0.500000   x
            x  H                 4        -0.426383  -0.392780   0.000000   x
            x  H                 5         0.370728  -0.000000   0.250000   x
            x  H                 6        -0.370728  -0.000000   0.750000   x
            x  H                 7         0.370728  -0.000000   0.750000   x
            x  H                 8        -0.370728   0.000000   0.250000   x
            x  H                 9         0.926383   0.892780   0.500000   x
            x  H                10        -0.926383   0.892780   0.000000   x
            x  H                11         0.926383  -0.892780  -0.000000   x
            x  H                12        -0.926383  -0.892780   0.500000   x
            x  H                13         0.870728   0.500000   0.750000   x
            x  H                14        -0.870728   0.500000   0.250000   x
            x  H                15         0.870728   0.500000   0.250000   x
            x  H                16        -0.870728   0.500000   0.750000   x
            xxxxxxxxxxxxxxxxxxxxxxxxxxxxxxxxxxxxxxxxxxxxxxxxxxxxxxxxxxxxxxxxx


 LBFGS: Final Enthalpy     = -2.27904667E+002 eV
 LBFGS: Final <frequency>  =     317.80478 cm-1
 LBFGS: Final bulk modulus =     126.23524 GPa

 ******************************** Symmetrised Forces ********************************
 *                                                                                  *
 *                           Cartesian components (eV/A)                            *
 * -------------------------------------------------------------------------------- *
 *                         x                    y                    z              *
 *                                                                                  *
 * H               1      0.00000             -0.00000             -0.00000         *
 * H               2     -0.00000             -0.00000             -0.00000         *
 * H               3      0.00000              0.00000             -0.00000         *
 * H               4     -0.00000              0.00000             -0.00000         *
 * H               5      0.00000             -0.00000              0.00000         *
 * H               6     -0.00000              0.00000              0.00000         *
 * H               7      0.00000              0.00000             -0.00000         *
 * H               8     -0.00000             -0.00000             -0.00000         *
 * H               9      0.00000             -0.00000             -0.00000         *
 * H              10     -0.00000             -0.00000             -0.00000         *
 * H              11      0.00000              0.00000             -0.00000         *
 * H              12     -0.00000              0.00000             -0.00000         *
 * H              13      0.00000              0.00000              0.00000         *
 * H              14     -0.00000              0.00000              0.00000         *
 * H              15      0.00000              0.00000              0.00000         *
 * H              16     -0.00000             -0.00000             -0.00000         *
 *                                                                                  *
 ************************************************************************************

 *********** Symmetrised Stress Tensor ***********
 *                                               *
 *          Cartesian components (GPa)           *
 * --------------------------------------------- *
 *             x             y             z     *
 *                                               *
 *  x    -63.999998      0.000000      0.000000  *
 *  y      0.000000    -64.000002      0.000000  *
 *  z      0.000000      0.000000    -64.000000  *
 *                                               *
 *  Pressure:   64.0000                          *
 *                                               *
 *************************************************

 Pseudo atomic calculation performed for H 1s1

 Converged in 24 iterations to a total energy of -12.4843 eV

Charge spilling parameter for spin component 1 = 0.60%

            Orbital Populations       
     Ion    Atom   Orbital             Charge
  -------------------------------------------
      H     1      S                    0.999
      H     2      S                    1.000
      H     3      S                    1.000
      H     4      S                    0.999
      H     5      S                    1.001
      H     6      S                    1.001
      H     7      S                    1.001
      H     8      S                    1.001
      H     9      S                    0.999
      H    10      S                    1.000
      H    11      S                    1.000
      H    12      S                    0.999
      H    13      S                    1.001
      H    14      S                    1.001
      H    15      S                    1.001
      H    16      S                    1.001
  -------------------------------------------
                           Total:      16.000
  -------------------------------------------

     Atomic Populations (Mulliken)
     -----------------------------
Species          Ion     s      p      d      f     Total  Charge (e)
=====================================================================
  H               1     1.00   0.00   0.00   0.00   1.00     0.00
  H               2     1.00   0.00   0.00   0.00   1.00     0.00
  H               3     1.00   0.00   0.00   0.00   1.00     0.00
  H               4     1.00   0.00   0.00   0.00   1.00     0.00
  H               5     1.00   0.00   0.00   0.00   1.00    -0.00
  H               6     1.00   0.00   0.00   0.00   1.00    -0.00
  H               7     1.00   0.00   0.00   0.00   1.00    -0.00
  H               8     1.00   0.00   0.00   0.00   1.00    -0.00
  H               9     1.00   0.00   0.00   0.00   1.00     0.00
  H              10     1.00   0.00   0.00   0.00   1.00     0.00
  H              11     1.00   0.00   0.00   0.00   1.00     0.00
  H              12     1.00   0.00   0.00   0.00   1.00     0.00
  H              13     1.00   0.00   0.00   0.00   1.00    -0.00
  H              14     1.00   0.00   0.00   0.00   1.00    -0.00
  H              15     1.00   0.00   0.00   0.00   1.00    -0.00
  H              16     1.00   0.00   0.00   0.00   1.00    -0.00
=====================================================================

                 Bond                   Population      Length (A)
======================================================================
              H 6  -- H 7                    1.48        0.73081
              H 5  -- H 8                    1.48        0.73081
              H 14 -- H 15                   1.48        0.73081
              H 13 -- H 16                   1.48        0.73081
              H 2  -- H 3                    1.47        0.73306
              H 1  -- H 4                    1.47        0.73306
              H 10 -- H 11                   1.47        0.73306
              H 9  -- H 12                   1.47        0.73306
              H 8  -- H 15                  -0.22        1.56386
              H 7  -- H 16                  -0.22        1.56386
              H 6  -- H 13                  -0.22        1.56386
              H 5  -- H 14                  -0.22        1.56386
              H 2  -- H 12                  -0.26        1.62581
              H 1  -- H 11                  -0.26        1.62581
              H 4  -- H 10                  -0.26        1.62581
              H 3  -- H 9                   -0.26        1.62581
              H 8  -- H 11                  -0.11        1.65592
              H 7  -- H 12                  -0.11        1.65592
              H 6  -- H 9                   -0.11        1.65592
              H 5  -- H 10                  -0.11        1.65592
              H 8  -- H 9                   -0.11        1.65592
              H 7  -- H 10                  -0.11        1.65592
              H 6  -- H 11                  -0.11        1.65592
              H 5  -- H 12                  -0.11        1.65592
              H 4  -- H 13                  -0.11        1.65592
              H 3  -- H 16                  -0.11        1.65592
              H 3  -- H 14                  -0.11        1.65592
              H 2  -- H 15                  -0.11        1.65592
              H 1  -- H 16                  -0.11        1.65592
              H 1  -- H 14                  -0.11        1.65592
              H 4  -- H 15                  -0.11        1.65592
              H 2  -- H 13                  -0.11        1.65592
              H 4  -- H 11                  -0.29        1.72457
              H 3  -- H 12                  -0.29        1.72457
              H 2  -- H 9                   -0.29        1.72457
              H 1  -- H 10                  -0.29        1.72457
              H 11 -- H 13                  -0.12        1.78669
              H 9  -- H 15                  -0.12        1.78669
              H 4  -- H 6                   -0.12        1.78669
              H 3  -- H 5                   -0.12        1.78669
              H 2  -- H 8                   -0.12        1.78669
              H 1  -- H 7                   -0.12        1.78669
              H 12 -- H 16                  -0.12        1.78669
              H 12 -- H 14                  -0.12        1.78669
              H 11 -- H 15                  -0.12        1.78669
              H 10 -- H 16                  -0.12        1.78669
              H 10 -- H 14                  -0.12        1.78669
              H 9  -- H 13                  -0.12        1.78669
              H 4  -- H 8                   -0.12        1.78669
              H 3  -- H 7                   -0.12        1.78669
              H 2  -- H 6                   -0.12        1.78669
              H 1  -- H 5                   -0.12        1.78669
              H 4  -- H 7                   -0.13        1.86986
              H 4  -- H 5                   -0.13        1.86986
              H 3  -- H 8                   -0.13        1.86986
              H 3  -- H 6                   -0.13        1.86986
              H 2  -- H 7                   -0.13        1.86986
              H 2  -- H 5                   -0.13        1.86986
              H 1  -- H 8                   -0.13        1.86986
              H 1  -- H 6                   -0.13        1.86986
              H 12 -- H 15                  -0.13        1.86986
              H 12 -- H 13                  -0.13        1.86986
              H 11 -- H 16                  -0.13        1.86986
              H 11 -- H 14                  -0.13        1.86986
              H 10 -- H 15                  -0.13        1.86986
              H 10 -- H 13                  -0.13        1.86986
              H 9  -- H 16                  -0.13        1.86986
              H 9  -- H 14                  -0.13        1.86986
              H 4  -- H 16                  -0.14        1.90114
              H 4  -- H 14                  -0.14        1.90114
              H 3  -- H 15                  -0.14        1.90114
              H 3  -- H 13                  -0.14        1.90114
              H 2  -- H 16                  -0.14        1.90114
              H 2  -- H 14                  -0.14        1.90114
              H 1  -- H 15                  -0.14        1.90114
              H 1  -- H 13                  -0.14        1.90114
              H 8  -- H 12                  -0.14        1.90114
              H 8  -- H 10                  -0.14        1.90114
              H 7  -- H 11                  -0.14        1.90114
              H 7  -- H 9                   -0.14        1.90114
              H 6  -- H 12                  -0.14        1.90114
              H 6  -- H 10                  -0.14        1.90114
              H 5  -- H 11                  -0.14        1.90114
              H 5  -- H 9                   -0.14        1.90114
              H 8  -- H 14                  -0.33        1.99432
              H 7  -- H 13                  -0.33        1.99432
              H 6  -- H 16                  -0.33        1.99432
              H 5  -- H 15                  -0.33        1.99432
              H 14 -- H 16                   0.02        2.78979
              H 13 -- H 15                   0.02        2.78979
              H 6  -- H 8                    0.02        2.78979
              H 5  -- H 7                    0.02        2.78979
======================================================================


Writing analysis data to Hibam.castep_bin

Writing model to Hibam.check
 
 A BibTeX formatted list of references used in this run has been written to 
 Hibam.bib
 
Initialisation time =      2.54 s
Calculation time    =    812.17 s
Finalisation time   =      1.32 s
Total time          =    816.04 s
Peak Memory Use     = 520932 kB
  
Overall parallel efficiency rating: Excellent (97%)                             
  
Data was distributed by:-
k-point (16-way); efficiency rating: Excellent (97%)                            
