 +-------------------------------------------------+
 |                                                 |
 |      CCC   AA    SSS  TTTTT  EEEEE  PPPP        |
 |     C     A  A  S       T    E      P   P       |
 |     C     AAAA   SS     T    EEE    PPPP        |
 |     C     A  A     S    T    E      P           |
 |      CCC  A  A  SSS     T    EEEEE  P           |
 |                                                 |
 +-------------------------------------------------+
 |                                                 |
 | Welcome to Academic Release CASTEP version 18.1 |          
 | Ab Initio Total Energy Program                  |
 |                                                 |
 | Authors:                                        |
 | M. Segall, M. Probert, C. Pickard, P. Hasnip,   |
 | S. Clark, K. Refson, J. R. Yates, M. Payne      |
 |                                                 |
 | Contributors:                                   |
 | P. Lindan, P. Haynes, J. White, V. Milman,      |
 | N. Govind, M. Gibson, P. Tulip, V. Cocula,      |
 | B. Montanari, D. Quigley, M. Glover,            |
 | L. Bernasconi, A. Perlov, M. Plummer,           |
 | E. McNellis, J. Meyer, J. Gale, D. Jochym       |
 | J. Aarons, B. Walker, R. Gillen, D. Jones       |
 | T. Green, I. J. Bush, C. J. Armstrong,          |
 | E. J. Higgins, E. L. Brown, M. S. McFly,        |
 | J. Wilkins, B-C. Shih, P. J. P. Byrne           |
 |                                                 |
 | Copyright (c) 2000 - 2017                       |
 |                                                 |
 |     Distributed under the terms of an           |
 |     Agreement between the United Kingdom        |
 |     Car-Parrinello (UKCP) Consortium,           |
 |     Daresbury Laboratory and Accelrys, Inc.     |
 |                                                 |
 | Please cite                                     |
 |                                                 |
 |     "First principles methods using CASTEP"     |
 |                                                 |
 |         Zeitschrift fuer Kristallographie       |
 |           220(5-6) pp. 567-570 (2005)           |
 |                                                 |
 | S. J. Clark, M. D. Segall, C. J. Pickard,       |
 | P. J. Hasnip, M. J. Probert, K. Refson,         |
 | M. C. Payne                                     |
 |                                                 |
 |       in all publications arising from          |
 |              your use of CASTEP                 |
 |                                                 |
 +-------------------------------------------------+


 Compiled for linux_x86_64_gfortran4.8 on Thu, 19 Jul 2018 15:42:32 +0100
 from code version 70483bd0ad64+  Sun, 10 Dec 2017 12:18:29 +0000
 Compiler: GNU Fortran 4.8.5; Optimisation: fast
 MATHLIBS: Intel MKL(2018.0.0) (LAPACK version 3.7.0)
 FFT Lib : mkl
 Fundamental constants values: CODATA 2014

 Run started: Fri, 21 Aug 2020 12:18:56 +0100

 Atomic calculation performed for H: 1s1

 Converged in 41 iterations to an ae energy of -12.488 eV

   ============================================================                
   | Pseudopotential Report - Date of generation 21-08-2020   |                
   ------------------------------------------------------------                
   | Element: H Ionic charge:  1.00 Level of theory: PBE      |                
   | Atomic Solver: Koelling-Harmon                           |                
   |                                                          |                
   |               Reference Electronic Structure             |                
   |         Orbital         Occupation         Energy        |                
   |            1s              1.000           -0.239        |                
   |                                                          |                
   |                 Pseudopotential Definition               |                
   |        Beta     l      e      Rc     scheme   norm       |                
   |         loc     0   -0.239   0.702     qc      1         |                
   |                                                          |                
   | No charge augmentation                                   |                
   | No partial core correction                               |                
   ------------------------------------------------------------                
   | "0|0.7|2|6|8|10L(qc=10)"                                 |                
   ------------------------------------------------------------                
   |      Author: Chris J. Pickard, Cambridge University      |                
   ============================================================                

 Pseudo atomic calculation performed for H 1s1

 Converged in 24 iterations to a total energy of -12.4843 eV

 Calculation parallelised over 16 processes.
 Data is distributed by k-point(16-way)

 ************************************ Title ************************************
 

 ***************************** General Parameters ******************************
  
 output verbosity                               : normal  (1)
 write checkpoint data to                       : Hibam.check
 type of calculation                            : geometry optimization
 stress calculation                             : on
 density difference calculation                 : off
 electron localisation func (ELF) calculation   : off
 Hirshfeld analysis                             : off
 unlimited duration calculation
 timing information                             : on
 memory usage estimate                          : on
 write extra output files                       : on
 write final potential to formatted file        : off
 write final density to formatted file          : off
 write structure in CELL formatted file         : on
 write BibTeX reference list                    : on
 write OTFG pseudopotential files               : on
 write electrostatic potential file             : on
 write bands file                               : on
 checkpoint writing                             : both castep_bin and check files
  
 output         length unit                     : A
 output           mass unit                     : amu
 output           time unit                     : ps
 output         charge unit                     : e
 output           spin unit                     : hbar/2
 output         energy unit                     : eV
 output          force unit                     : eV/A
 output       velocity unit                     : A/ps
 output       pressure unit                     : GPa
 output     inv_length unit                     : 1/A
 output      frequency unit                     : cm-1
 output force constant unit                     : eV/A**2
 output         volume unit                     : A**3
 output   IR intensity unit                     : (D/A)**2/amu
 output         dipole unit                     : D
 output         efield unit                     : eV/A/e
 output        entropy unit                     : J/mol/K
  
 wavefunctions paging                           : none
 random number generator seed                   : randomised (121856340)
 data distribution                              : optimal for this architecture
 optimization strategy                          : maximize speed(+++)

 *********************** Exchange-Correlation Parameters ***********************
  
 using functional                               : Perdew Burke Ernzerhof
 relativistic treatment                         : Koelling-Harmon
 DFT+D: Semi-empirical dispersion correction    : off

 ************************* Pseudopotential Parameters **************************
  
 pseudopotential representation                 : reciprocal space
 <beta|phi> representation                      : reciprocal space
 spin-orbit coupling                            : off

 **************************** Basis Set Parameters *****************************
  
 plane wave basis set cut-off                   :  1200.0000   eV
 size of standard grid                          :     2.0000
 size of   fine   gmax                          :    35.4943   1/A
 finite basis set correction                    : automatic
 number of sample energies                      :          3
           sample  spacing                      :     5.0000   eV

 **************************** Electronic Parameters ****************************
  
 number of  electrons                           :  16.00    
 net charge of system                           :  0.000    
 treating system as non-spin-polarized
 number of bands                                :          8

 ********************* Electronic Minimization Parameters **********************
  
 Method: Treating system as non-metallic,
         and number of  SD  steps               :          1
         and number of  CG  steps               :          4
  
 total energy / atom convergence tol.           : 0.1000E-10   eV
 eigen-energy convergence tolerance             : 0.2000E-10   eV
 max force / atom convergence tol.              : ignored
 convergence tolerance window                   :          3   cycles
 max. number of SCF cycles                      :        100
 periodic dipole correction                     : NONE

 ************************** Density Mixing Parameters **************************
  
 density-mixing scheme                          : Broyden
 max. length of mixing history                  :         20
 charge density mixing amplitude                : 0.8000    
 cut-off energy for mixing                      :  1200.       eV

 *********************** Population Analysis Parameters ************************
  
 Population analysis with cutoff                :  3.000       A
 Population analysis output                     : summary and pdos components

 ********************** Geometry Optimization Parameters ***********************
  
 optimization method                            : LBFGS
 max. no. of LBFGS updates                      : unbounded
 variable cell method                           : fixed basis quality
 max. number of steps                           :         60
 estimated bulk modulus                         :  500.0       GPa
 estimated <frequency>                          :  1668.       cm-1
 geom line minimiser                            : on
 with line minimiser tolerance                  :     0.4000
 total energy convergence tolerance             : 0.1000E-08   eV/atom
        max ionic |force| tolerance             : 0.1000E-04   eV/A
 max ionic |displacement| tolerance             : 0.1000E-04   A
   max |stress component| tolerance             : 0.1000E-04   GPa
 convergence tolerance window                   :          2   steps
 backup results every                           :      14400   seconds
 write geom trajectory file                     : on

 *******************************************************************************
  

                           -------------------------------
                                      Unit Cell
                           -------------------------------
        Real Lattice(A)                      Reciprocal Lattice(1/A)
     2.9787464    -0.0000000     0.0000000        2.109338814   0.000000000   0.000000000
    -0.0000000     1.8209049     0.0000000        0.000000000   3.450584008   0.000000000
     0.0000000     0.0000000     5.6628762        0.000000000   0.000000000   1.109539586

                       Lattice parameters(A)       Cell Angles
                    a =      2.978746          alpha =   90.000000
                    b =      1.820905          beta  =   90.000000
                    c =      5.662876          gamma =   90.000000

                       Current cell volume =            30.715519       A**3
                                   density =             0.525045   AMU/A**3
                                           =             0.871858     g/cm^3

                           -------------------------------
                                     Cell Contents
                           -------------------------------
                         Total number of ions in cell =   16
                      Total number of species in cell =    1
                        Max number of any one species =   16

            xxxxxxxxxxxxxxxxxxxxxxxxxxxxxxxxxxxxxxxxxxxxxxxxxxxxxxxxxxxx
            x  Element    Atom        Fractional coordinates of atoms  x
            x            Number           u          v          w      x
            x----------------------------------------------------------x
            x  H            1         0.404939   0.372808   0.000000   x 
            x  H            2        -0.404939   0.372808   0.500000   x 
            x  H            3         0.404939  -0.372808   0.500000   x 
            x  H            4        -0.404939  -0.372808   0.000000   x 
            x  H            5         0.359896  -0.000000   0.250000   x 
            x  H            6        -0.359896   0.000000   0.750000   x 
            x  H            7         0.359896   0.000000   0.750000   x 
            x  H            8        -0.359896   0.000000   0.250000   x 
            x  H            9         0.904939   0.872808   0.500000   x 
            x  H           10        -0.904939   0.872808   0.000000   x 
            x  H           11         0.904939  -0.872808   0.000000   x 
            x  H           12        -0.904939  -0.872808   0.500000   x 
            x  H           13         0.859896   0.500000   0.750000   x 
            x  H           14        -0.859896   0.500000   0.250000   x 
            x  H           15         0.859896   0.500000   0.250000   x 
            x  H           16        -0.859896   0.500000   0.750000   x 
            xxxxxxxxxxxxxxxxxxxxxxxxxxxxxxxxxxxxxxxxxxxxxxxxxxxxxxxxxxxx


                         No user defined ionic velocities

                           -------------------------------
                                   Details of Species
                           -------------------------------

                               Mass of species in AMU
                                    H    1.0079400

                          Electric Quadrupole Moment (Barn)
                                    H    0.0028600 Isotope  2

                          Files used for pseudopotentials:
                                    H 0|0.7|2|6|8|10L(qc=10)

                           -------------------------------
                              k-Points For BZ Sampling
                           -------------------------------
                       MP grid size for SCF calculation is  8  8  8
                            with an offset of   0.000  0.000  0.000
                       Number of kpoints used =            64

                           -------------------------------
                               Symmetry and Constraints
                           -------------------------------

                      Cell is a supercell containing 2 primitive cells
                      Maximum deviation from symmetry = 0.330707E-14     ANG

                      Number of symmetry operations   =          16
                      Number of ionic constraints     =           3
                      Point group of crystal =     8: D2h, mmm, 2/m 2/m 2/m
                      Space group of crystal =    72: Ibam, -I 2 2c

             Set iprint > 1 for details on symmetry rotations/translations

                         Centre of mass is constrained
             Set iprint > 1 for details of linear ionic constraints

                         Number of cell constraints= 3
                         Cell constraints are:  1 2 3 0 0 0

                         External pressure/stress (GPa)
                        132.00000   0.00000   0.00000
                                  132.00000   0.00000
                                            132.00000
  
+---------------- MEMORY AND SCRATCH DISK ESTIMATES PER PROCESS --------------+
|                                                     Memory          Disk    |
| Baseline code, static data and system overhead      415.0 MB         0.0 MB |
| BLAS internal memory storage                          0.0 MB         0.0 MB |
| Model and support data                               36.8 MB         0.0 MB |
| Electronic energy minimisation requirements          15.0 MB         0.0 MB |
| Force calculation requirements                        6.3 MB         0.0 MB |
| Stress calculation requirements                       8.0 MB         0.0 MB |
|                                               ----------------------------- |
| Approx. total storage required per process          466.8 MB         0.0 MB |
|                                                                             |
| Requirements will fluctuate during execution and may exceed these estimates |
+-----------------------------------------------------------------------------+
Calculating finite basis set correction with  3 cut-off energies.
Calculating total energy with cut-off of 1190.000 eV.
------------------------------------------------------------------------ <-- SCF
SCF loop      Energy                           Energy gain       Timer   <-- SCF
                                               per atom          (sec)   <-- SCF
------------------------------------------------------------------------ <-- SCF
Initial   3.77492941E+002                                          3.28  <-- SCF
      1  -1.96839940E+002                    3.58958050E+001       3.90  <-- SCF
      2  -2.36617564E+002                    2.48610154E+000       4.43  <-- SCF
      3  -2.36943878E+002                    2.03945880E-002       5.43  <-- SCF
      4  -2.36932507E+002                   -7.10663012E-004       6.27  <-- SCF
      5  -2.36932898E+002                    2.44558088E-005       7.08  <-- SCF
      6  -2.36932935E+002                    2.32344272E-006       7.86  <-- SCF
      7  -2.36932936E+002                    3.20965654E-008       8.65  <-- SCF
      8  -2.36932936E+002                    9.08167093E-010       9.42  <-- SCF
      9  -2.36932936E+002                    1.61778338E-011      10.08  <-- SCF
     10  -2.36932936E+002                    1.27489185E-012      10.70  <-- SCF
     11  -2.36932936E+002                    6.43488065E-013      11.33  <-- SCF
------------------------------------------------------------------------ <-- SCF
 
Final energy =  -236.9329359940     eV
(energy not corrected for finite basis set)
 
Calculating total energy with cut-off of 1195.000 eV.
------------------------------------------------------------------------ <-- SCF
SCF loop      Energy                           Energy gain       Timer   <-- SCF
                                               per atom          (sec)   <-- SCF
------------------------------------------------------------------------ <-- SCF
Initial  -2.36932936E+002                                         11.90  <-- SCF
      1  -2.36934140E+002                    7.52808988E-005      12.43  <-- SCF
      2  -2.36934140E+002                    1.29585808E-010      13.26  <-- SCF
      3  -2.36934141E+002                    2.78858302E-008      14.07  <-- SCF
      4  -2.36934141E+002                    1.38044202E-009      14.84  <-- SCF
      5  -2.36934141E+002                    6.99377874E-012      15.47  <-- SCF
      6  -2.36934141E+002                    3.02107073E-014      16.09  <-- SCF
------------------------------------------------------------------------ <-- SCF
 
Final energy =  -236.9341409588     eV
(energy not corrected for finite basis set)
 
Calculating total energy with cut-off of 1200.000 eV.
------------------------------------------------------------------------ <-- SCF
SCF loop      Energy                           Energy gain       Timer   <-- SCF
                                               per atom          (sec)   <-- SCF
------------------------------------------------------------------------ <-- SCF
Initial  -2.36934141E+002                                         16.65  <-- SCF
      1  -2.36935343E+002                    7.51163539E-005      17.14  <-- SCF
      2  -2.36935343E+002                    1.29404544E-010      17.92  <-- SCF
      3  -2.36935343E+002                    2.76316857E-008      18.70  <-- SCF
      4  -2.36935343E+002                    1.33231938E-009      19.48  <-- SCF
      5  -2.36935343E+002                    6.18413178E-012      20.11  <-- SCF
      6  -2.36935343E+002                    7.82457319E-013      20.73  <-- SCF
------------------------------------------------------------------------ <-- SCF
 
Final energy =  -236.9353432861     eV
(energy not corrected for finite basis set)
 
 For future reference: finite basis dEtot/dlog(Ecut) =      -0.290035eV
 Total energy corrected for finite basis set =    -236.935334 eV
 
+---------------- MEMORY AND SCRATCH DISK ESTIMATES PER PROCESS --------------+
|                                                     Memory          Disk    |
| Model and support data                               45.2 MB         0.0 MB |
| Electronic energy minimisation requirements          15.0 MB         0.0 MB |
| Geometry minimisation requirements                   17.4 MB         0.0 MB |
|                                               ----------------------------- |
| Approx. total storage required per process           77.7 MB         0.0 MB |
|                                                                             |
| Requirements will fluctuate during execution and may exceed these estimates |
+-----------------------------------------------------------------------------+
 

 ******************************** Symmetrised Forces ********************************
 *                                                                                  *
 *                           Cartesian components (eV/A)                            *
 * -------------------------------------------------------------------------------- *
 *                         x                    y                    z              *
 *                                                                                  *
 * H               1     -0.00000             -0.00000             -0.00000         *
 * H               2      0.00000             -0.00000             -0.00000         *
 * H               3     -0.00000              0.00000             -0.00000         *
 * H               4      0.00000              0.00000             -0.00000         *
 * H               5      0.00000              0.00000             -0.00000         *
 * H               6     -0.00000              0.00000              0.00000         *
 * H               7      0.00000              0.00000              0.00000         *
 * H               8     -0.00000              0.00000             -0.00000         *
 * H               9     -0.00000             -0.00000             -0.00000         *
 * H              10      0.00000             -0.00000             -0.00000         *
 * H              11     -0.00000              0.00000             -0.00000         *
 * H              12      0.00000              0.00000             -0.00000         *
 * H              13      0.00000              0.00000             -0.00000         *
 * H              14     -0.00000              0.00000             -0.00000         *
 * H              15      0.00000              0.00000             -0.00000         *
 * H              16     -0.00000              0.00000             -0.00000         *
 *                                                                                  *
 ************************************************************************************

 *********** Symmetrised Stress Tensor ***********
 *                                               *
 *          Cartesian components (GPa)           *
 * --------------------------------------------- *
 *             x             y             z     *
 *                                               *
 *  x   -148.997657      0.000000      0.000000  *
 *  y      0.000000   -148.997665      0.000000  *
 *  z      0.000000      0.000000   -148.997663  *
 *                                               *
 *  Pressure:  148.9977                          *
 *                                               *
 *************************************************
 LBFGS: finished iteration     0 with enthalpy= -2.11629457E+002 eV
  
 +-----------+-----------------+-----------------+------------+-----+ <-- LBFGS
 | Parameter |      value      |    tolerance    |    units   | OK? | <-- LBFGS
 +-----------+-----------------+-----------------+------------+-----+ <-- LBFGS
 |  dE/ion   |   0.000000E+000 |   1.000000E-009 |         eV | No  | <-- LBFGS
 |  |F|max   |   1.720734E-007 |   1.000000E-005 |       eV/A | Yes | <-- LBFGS
 |  |dR|max  |   0.000000E+000 |   1.000000E-005 |          A | No  | <-- LBFGS
 |   Smax    |   1.699766E+001 |   1.000000E-005 |        GPa | No  | <-- LBFGS
 +-----------+-----------------+-----------------+------------+-----+ <-- LBFGS
  

================================================================================
 Starting LBFGS iteration          1 ...
================================================================================
  
 +------------+-------------+-------------+-----------------+ <-- min LBFGS
 |    Step    |   lambda    |   F.delta'  |    enthalpy     | <-- min LBFGS
 +------------+-------------+-------------+-----------------+ <-- min LBFGS
 |  previous  |    0.000000 |    0.207418 |     -211.629457 | <-- min LBFGS
 +------------+-------------+-------------+-----------------+ <-- min LBFGS
  

--------------------------------------------------------------------------------
 LBFGS: starting iteration         1 with trial guess (lambda=  1.000000)
--------------------------------------------------------------------------------
 
+---------------- MEMORY AND SCRATCH DISK ESTIMATES PER PROCESS --------------+
|                                                     Memory          Disk    |
| Model and support data                               46.4 MB         0.0 MB |
| Electronic energy minimisation requirements          16.0 MB         0.0 MB |
| Geometry minimisation requirements                   18.6 MB         0.0 MB |
|                                               ----------------------------- |
| Approx. total storage required per process           81.0 MB         0.0 MB |
|                                                                             |
| Requirements will fluctuate during execution and may exceed these estimates |
+-----------------------------------------------------------------------------+
 

                           -------------------------------
                                      Unit Cell
                           -------------------------------
        Real Lattice(A)              Reciprocal Lattice(1/A)
     3.0125008    -0.0000000     0.0000000        2.085704091   0.000000000   0.000000000
    -0.0000000     1.8415390     0.0000000        0.000000000   3.411920883   0.000000000
     0.0000000     0.0000000     5.7270466        0.000000000   0.000000000   1.097107411

                       Lattice parameters(A)       Cell Angles
                    a =      3.012501          alpha =   90.000000
                    b =      1.841539          beta  =   90.000000
                    c =      5.727047          gamma =   90.000000

                Current cell volume =            31.771580 A**3

                           -------------------------------
                                     Cell Contents
                           -------------------------------

            xxxxxxxxxxxxxxxxxxxxxxxxxxxxxxxxxxxxxxxxxxxxxxxxxxxxxxxxxxxxxxxxx
            x  Element         Atom        Fractional coordinates of atoms  x
            x                 Number           u          v          w      x
            x---------------------------------------------------------------x
            x  H                 1         0.404939   0.372808   0.000000   x
            x  H                 2        -0.404939   0.372808   0.500000   x
            x  H                 3         0.404939  -0.372808   0.500000   x
            x  H                 4        -0.404939  -0.372808   0.000000   x
            x  H                 5         0.359896   0.000000   0.250000   x
            x  H                 6        -0.359896  -0.000000   0.750000   x
            x  H                 7         0.359896   0.000000   0.750000   x
            x  H                 8        -0.359896  -0.000000   0.250000   x
            x  H                 9         0.904939   0.872808   0.500000   x
            x  H                10        -0.904939   0.872808   0.000000   x
            x  H                11         0.904939  -0.872808   0.000000   x
            x  H                12        -0.904939  -0.872808   0.500000   x
            x  H                13         0.859896   0.500000   0.750000   x
            x  H                14        -0.859896   0.500000   0.250000   x
            x  H                15         0.859896   0.500000   0.250000   x
            x  H                16        -0.859896   0.500000   0.750000   x
            xxxxxxxxxxxxxxxxxxxxxxxxxxxxxxxxxxxxxxxxxxxxxxxxxxxxxxxxxxxxxxxxx


------------------------------------------------------------------------ <-- SCF
SCF loop      Energy                           Energy gain       Timer   <-- SCF
                                               per atom          (sec)   <-- SCF
------------------------------------------------------------------------ <-- SCF
Initial  -2.37848061E+002                                         22.85  <-- SCF
      1  -2.37868191E+002                    1.25811232E-003      23.41  <-- SCF
      2  -2.37868280E+002                    5.57748585E-006      24.34  <-- SCF
      3  -2.37868091E+002                   -1.17786036E-005      25.26  <-- SCF
      4  -2.37868089E+002                   -1.27638607E-007      26.17  <-- SCF
      5  -2.37868090E+002                    1.69604633E-008      27.10  <-- SCF
      6  -2.37868090E+002                    1.59004995E-009      28.00  <-- SCF
      7  -2.37868090E+002                    3.93645516E-012      28.77  <-- SCF
      8  -2.37868090E+002                    4.80350246E-013      29.47  <-- SCF
------------------------------------------------------------------------ <-- SCF
 
Final energy =  -237.8680896922     eV
(energy not corrected for finite basis set)
 

 ******************************** Symmetrised Forces ********************************
 *                                                                                  *
 *                           Cartesian components (eV/A)                            *
 * -------------------------------------------------------------------------------- *
 *                         x                    y                    z              *
 *                                                                                  *
 * H               1      0.16908              0.14223              0.00000         *
 * H               2     -0.16908              0.14223              0.00000         *
 * H               3      0.16908             -0.14223              0.00000         *
 * H               4     -0.16908             -0.14223              0.00000         *
 * H               5      0.12138              0.00000              0.00000         *
 * H               6     -0.12138              0.00000             -0.00000         *
 * H               7      0.12138              0.00000             -0.00000         *
 * H               8     -0.12138              0.00000              0.00000         *
 * H               9      0.16908              0.14223              0.00000         *
 * H              10     -0.16908              0.14223              0.00000         *
 * H              11      0.16908             -0.14223              0.00000         *
 * H              12     -0.16908             -0.14223              0.00000         *
 * H              13      0.12138              0.00000              0.00000         *
 * H              14     -0.12138              0.00000             -0.00000         *
 * H              15      0.12138              0.00000             -0.00000         *
 * H              16     -0.12138              0.00000              0.00000         *
 *                                                                                  *
 ************************************************************************************

 *********** Symmetrised Stress Tensor ***********
 *                                               *
 *          Cartesian components (GPa)           *
 * --------------------------------------------- *
 *             x             y             z     *
 *                                               *
 *  x   -131.348575      0.000000      0.000000  *
 *  y      0.000000   -134.504257      0.000000  *
 *  z      0.000000      0.000000   -137.318260  *
 *                                               *
 *  Pressure:  134.3904                          *
 *                                               *
 *************************************************
  
 +------------+-------------+-------------+-----------------+ <-- min LBFGS
 |    Step    |   lambda    |   F.delta'  |    enthalpy     | <-- min LBFGS
 +------------+-------------+-------------+-----------------+ <-- min LBFGS
 |  previous  |    0.000000 |    0.207418 |     -211.629457 | <-- min LBFGS
 | trial step |    1.000000 |    0.029834 |     -211.692163 | <-- min LBFGS
 +------------+-------------+-------------+-----------------+ <-- min LBFGS
  
 LBFGS: finished iteration     1 with enthalpy= -2.11692163E+002 eV
  
 +-----------+-----------------+-----------------+------------+-----+ <-- LBFGS
 | Parameter |      value      |    tolerance    |    units   | OK? | <-- LBFGS
 +-----------+-----------------+-----------------+------------+-----+ <-- LBFGS
 |  dE/ion   |   3.919170E-003 |   1.000000E-009 |         eV | No  | <-- LBFGS
 |  |F|max   |   2.209479E-001 |   1.000000E-005 |       eV/A | No  | <-- LBFGS
 |  |dR|max  |   1.687851E-008 |   1.000000E-005 |          A | Yes | <-- LBFGS
 |   Smax    |   5.318260E+000 |   1.000000E-005 |        GPa | No  | <-- LBFGS
 +-----------+-----------------+-----------------+------------+-----+ <-- LBFGS
  

================================================================================
 Starting LBFGS iteration          2 ...
================================================================================
  
 +------------+-------------+-------------+-----------------+ <-- min LBFGS
 |    Step    |   lambda    |   F.delta'  |    enthalpy     | <-- min LBFGS
 +------------+-------------+-------------+-----------------+ <-- min LBFGS
 |  previous  |    0.000000 |    0.072812 |     -211.692163 | <-- min LBFGS
 +------------+-------------+-------------+-----------------+ <-- min LBFGS
  

--------------------------------------------------------------------------------
 LBFGS: starting iteration         2 with trial guess (lambda=  1.000000)
--------------------------------------------------------------------------------
 
+---------------- MEMORY AND SCRATCH DISK ESTIMATES PER PROCESS --------------+
|                                                     Memory          Disk    |
| Model and support data                               46.5 MB         0.0 MB |
| Electronic energy minimisation requirements          16.3 MB         0.0 MB |
| Geometry minimisation requirements                   18.9 MB         0.0 MB |
|                                               ----------------------------- |
| Approx. total storage required per process           81.7 MB         0.0 MB |
|                                                                             |
| Requirements will fluctuate during execution and may exceed these estimates |
+-----------------------------------------------------------------------------+
 

                           -------------------------------
                                      Unit Cell
                           -------------------------------
        Real Lattice(A)              Reciprocal Lattice(1/A)
     3.0329111    -0.0000000     0.0000000        2.071668149   0.000000000   0.000000000
    -0.0000000     1.8585921     0.0000000        0.000000000   3.380615517   0.000000000
     0.0000000     0.0000000     5.7927717        0.000000000   0.000000000   1.084659583

                       Lattice parameters(A)       Cell Angles
                    a =      3.032911          alpha =   90.000000
                    b =      1.858592          beta  =   90.000000
                    c =      5.792772          gamma =   90.000000

                Current cell volume =            32.653533 A**3

                           -------------------------------
                                     Cell Contents
                           -------------------------------

            xxxxxxxxxxxxxxxxxxxxxxxxxxxxxxxxxxxxxxxxxxxxxxxxxxxxxxxxxxxxxxxxx
            x  Element         Atom        Fractional coordinates of atoms  x
            x                 Number           u          v          w      x
            x---------------------------------------------------------------x
            x  H                 1         0.411442   0.381756   0.000000   x
            x  H                 2        -0.411442   0.381756   0.500000   x
            x  H                 3         0.411442  -0.381756   0.500000   x
            x  H                 4        -0.411442  -0.381756   0.000000   x
            x  H                 5         0.364564  -0.000000   0.250000   x
            x  H                 6        -0.364564   0.000000   0.750000   x
            x  H                 7         0.364564  -0.000000   0.750000   x
            x  H                 8        -0.364564   0.000000   0.250000   x
            x  H                 9         0.911442   0.881756   0.500000   x
            x  H                10        -0.911442   0.881756   0.000000   x
            x  H                11         0.911442  -0.881756   0.000000   x
            x  H                12        -0.911442  -0.881756   0.500000   x
            x  H                13         0.864564   0.500000   0.750000   x
            x  H                14        -0.864564   0.500000   0.250000   x
            x  H                15         0.864564   0.500000   0.250000   x
            x  H                16        -0.864564   0.500000   0.750000   x
            xxxxxxxxxxxxxxxxxxxxxxxxxxxxxxxxxxxxxxxxxxxxxxxxxxxxxxxxxxxxxxxxx


------------------------------------------------------------------------ <-- SCF
SCF loop      Energy                           Energy gain       Timer   <-- SCF
                                               per atom          (sec)   <-- SCF
------------------------------------------------------------------------ <-- SCF
Initial  -2.37811558E+002                                         31.77  <-- SCF
      1  -2.38546571E+002                    4.59383176E-002      32.36  <-- SCF
      2  -2.38550016E+002                    2.15356283E-004      33.28  <-- SCF
      3  -2.38503501E+002                   -2.90720497E-003      34.21  <-- SCF
      4  -2.38501732E+002                   -1.10567021E-004      35.14  <-- SCF
      5  -2.38501732E+002                    2.12890927E-009      36.07  <-- SCF
      6  -2.38501732E+002                    1.76681370E-008      37.01  <-- SCF
      7  -2.38501732E+002                    4.33635429E-010      37.94  <-- SCF
      8  -2.38501732E+002                    5.38173540E-011      38.65  <-- SCF
      9  -2.38501732E+002                    4.92434529E-013      39.35  <-- SCF
     10  -2.38501732E+002                   -3.95760266E-013      40.05  <-- SCF
------------------------------------------------------------------------ <-- SCF
 
Final energy =  -238.5017322949     eV
(energy not corrected for finite basis set)
 

 ******************************** Symmetrised Forces ********************************
 *                                                                                  *
 *                           Cartesian components (eV/A)                            *
 * -------------------------------------------------------------------------------- *
 *                         x                    y                    z              *
 *                                                                                  *
 * H               1     -1.08241             -0.90701              0.00000         *
 * H               2      1.08241             -0.90701              0.00000         *
 * H               3     -1.08241              0.90701              0.00000         *
 * H               4      1.08241              0.90701              0.00000         *
 * H               5      0.06541              0.00000             -0.00000         *
 * H               6     -0.06541             -0.00000              0.00000         *
 * H               7      0.06541              0.00000             -0.00000         *
 * H               8     -0.06541              0.00000              0.00000         *
 * H               9     -1.08241             -0.90701              0.00000         *
 * H              10      1.08241             -0.90701              0.00000         *
 * H              11     -1.08241              0.90701              0.00000         *
 * H              12      1.08241              0.90701              0.00000         *
 * H              13      0.06541             -0.00000              0.00000         *
 * H              14     -0.06541              0.00000             -0.00000         *
 * H              15      0.06541              0.00000             -0.00000         *
 * H              16     -0.06541              0.00000              0.00000         *
 *                                                                                  *
 ************************************************************************************

 *********** Symmetrised Stress Tensor ***********
 *                                               *
 *          Cartesian components (GPa)           *
 * --------------------------------------------- *
 *             x             y             z     *
 *                                               *
 *  x   -137.406306      0.000000      0.000000  *
 *  y      0.000000   -135.312092      0.000000  *
 *  z      0.000000      0.000000   -127.293803  *
 *                                               *
 *  Pressure:  133.3374                          *
 *                                               *
 *************************************************
  
 +------------+-------------+-------------+-----------------+ <-- min LBFGS
 |    Step    |   lambda    |   F.delta'  |    enthalpy     | <-- min LBFGS
 +------------+-------------+-------------+-----------------+ <-- min LBFGS
 |  previous  |    0.000000 |    0.072812 |     -211.692163 | <-- min LBFGS
 | trial step |    1.000000 |   -0.274113 |     -211.599174 | <-- min LBFGS
 +------------+-------------+-------------+-----------------+ <-- min LBFGS
  

--------------------------------------------------------------------------------
 LBFGS: improving iteration         2 with line minimization (lambda=  0.209880)
--------------------------------------------------------------------------------

                           -------------------------------
                                      Unit Cell
                           -------------------------------
        Real Lattice(A)              Reciprocal Lattice(1/A)
     3.0167845    -0.0000000     0.0000000        2.082742487   0.000000000   0.000000000
    -0.0000000     1.8451181     0.0000000        0.000000000   3.405302547   0.000000000
     0.0000000     0.0000000     5.7408410        0.000000000   0.000000000   1.094471234

                       Lattice parameters(A)       Cell Angles
                    a =      3.016785          alpha =   90.000000
                    b =      1.845118          beta  =   90.000000
                    c =      5.740841          gamma =   90.000000

                Current cell volume =            31.955379 A**3

                           -------------------------------
                                     Cell Contents
                           -------------------------------

            xxxxxxxxxxxxxxxxxxxxxxxxxxxxxxxxxxxxxxxxxxxxxxxxxxxxxxxxxxxxxxxxx
            x  Element         Atom        Fractional coordinates of atoms  x
            x                 Number           u          v          w      x
            x---------------------------------------------------------------x
            x  H                 1         0.406304   0.374686   0.000000   x
            x  H                 2        -0.406304   0.374686   0.500000   x
            x  H                 3         0.406304  -0.374686   0.500000   x
            x  H                 4        -0.406304  -0.374686   0.000000   x
            x  H                 5         0.360876  -0.000000   0.250000   x
            x  H                 6        -0.360876   0.000000   0.750000   x
            x  H                 7         0.360876  -0.000000   0.750000   x
            x  H                 8        -0.360876   0.000000   0.250000   x
            x  H                 9         0.906304   0.874686   0.500000   x
            x  H                10        -0.906304   0.874686   0.000000   x
            x  H                11         0.906304  -0.874686   0.000000   x
            x  H                12        -0.906304  -0.874686   0.500000   x
            x  H                13         0.860876   0.500000   0.750000   x
            x  H                14        -0.860876   0.500000   0.250000   x
            x  H                15         0.860876   0.500000   0.250000   x
            x  H                16        -0.860876   0.500000   0.750000   x
            xxxxxxxxxxxxxxxxxxxxxxxxxxxxxxxxxxxxxxxxxxxxxxxxxxxxxxxxxxxxxxxxx


------------------------------------------------------------------------ <-- SCF
SCF loop      Energy                           Energy gain       Timer   <-- SCF
                                               per atom          (sec)   <-- SCF
------------------------------------------------------------------------ <-- SCF
Initial  -2.37582848E+002                                         42.31  <-- SCF
      1  -2.38057603E+002                    2.96721457E-002      42.89  <-- SCF
      2  -2.38060062E+002                    1.53694279E-004      43.80  <-- SCF
      3  -2.38029599E+002                   -1.90391361E-003      44.72  <-- SCF
      4  -2.38028486E+002                   -6.95611882E-005      45.65  <-- SCF
      5  -2.38028486E+002                   -3.74284471E-008      46.57  <-- SCF
      6  -2.38028486E+002                    7.82780876E-009      47.51  <-- SCF
      7  -2.38028486E+002                    2.97373055E-010      48.35  <-- SCF
      8  -2.38028486E+002                    2.54615841E-011      49.08  <-- SCF
      9  -2.38028486E+002                    8.00583743E-013      49.78  <-- SCF
     10  -2.38028486E+002                   -2.50748871E-013      50.47  <-- SCF
------------------------------------------------------------------------ <-- SCF
 
Final energy =  -238.0284857033     eV
(energy not corrected for finite basis set)
 

 ******************************** Symmetrised Forces ********************************
 *                                                                                  *
 *                           Cartesian components (eV/A)                            *
 * -------------------------------------------------------------------------------- *
 *                         x                    y                    z              *
 *                                                                                  *
 * H               1     -0.05291             -0.04503             -0.00000         *
 * H               2      0.05291             -0.04503             -0.00000         *
 * H               3     -0.05291              0.04503             -0.00000         *
 * H               4      0.05291              0.04503             -0.00000         *
 * H               5      0.11027             -0.00000              0.00000         *
 * H               6     -0.11027             -0.00000              0.00000         *
 * H               7      0.11027             -0.00000             -0.00000         *
 * H               8     -0.11027              0.00000              0.00000         *
 * H               9     -0.05291             -0.04503             -0.00000         *
 * H              10      0.05291             -0.04503             -0.00000         *
 * H              11     -0.05291              0.04503             -0.00000         *
 * H              12      0.05291              0.04503             -0.00000         *
 * H              13      0.11027              0.00000             -0.00000         *
 * H              14     -0.11027              0.00000              0.00000         *
 * H              15      0.11027             -0.00000              0.00000         *
 * H              16     -0.11027             -0.00000              0.00000         *
 *                                                                                  *
 ************************************************************************************

 *********** Symmetrised Stress Tensor ***********
 *                                               *
 *          Cartesian components (GPa)           *
 * --------------------------------------------- *
 *             x             y             z     *
 *                                               *
 *  x   -132.338974     -0.000000      0.000000  *
 *  y     -0.000000   -134.419467      0.000000  *
 *  z      0.000000      0.000000   -135.132162  *
 *                                               *
 *  Pressure:  133.9635                          *
 *                                               *
 *************************************************
  
 +------------+-------------+-------------+-----------------+ <-- min LBFGS
 |    Step    |   lambda    |   F.delta'  |    enthalpy     | <-- min LBFGS
 +------------+-------------+-------------+-----------------+ <-- min LBFGS
 |  previous  |    0.000000 |    0.072812 |     -211.692163 | <-- min LBFGS
 | trial step |    1.000000 |   -0.274113 |     -211.599174 | <-- min LBFGS
 |  line step |    0.209880 |    0.009977 |     -211.701110 | <-- min LBFGS
 +------------+-------------+-------------+-----------------+ <-- min LBFGS
  
 LBFGS: finished iteration     2 with enthalpy= -2.11701110E+002 eV
  
 +-----------+-----------------+-----------------+------------+-----+ <-- LBFGS
 | Parameter |      value      |    tolerance    |    units   | OK? | <-- LBFGS
 +-----------+-----------------+-----------------+------------+-----+ <-- LBFGS
 |  dE/ion   |   5.591808E-004 |   1.000000E-009 |         eV | No  | <-- LBFGS
 |  |F|max   |   1.102727E-001 |   1.000000E-005 |       eV/A | No  | <-- LBFGS
 |  |dR|max  |   5.381793E-003 |   1.000000E-005 |          A | No  | <-- LBFGS
 |   Smax    |   3.132162E+000 |   1.000000E-005 |        GPa | No  | <-- LBFGS
 +-----------+-----------------+-----------------+------------+-----+ <-- LBFGS
  

================================================================================
 Starting LBFGS iteration          3 ...
================================================================================
  
 +------------+-------------+-------------+-----------------+ <-- min LBFGS
 |    Step    |   lambda    |   F.delta'  |    enthalpy     | <-- min LBFGS
 +------------+-------------+-------------+-----------------+ <-- min LBFGS
 |  previous  |    0.000000 |    0.044085 |     -211.701110 | <-- min LBFGS
 +------------+-------------+-------------+-----------------+ <-- min LBFGS
  

--------------------------------------------------------------------------------
 LBFGS: starting iteration         3 with trial guess (lambda=  1.000000)
--------------------------------------------------------------------------------

                           -------------------------------
                                      Unit Cell
                           -------------------------------
        Real Lattice(A)              Reciprocal Lattice(1/A)
     3.0232957    -0.0000000     0.0000000        2.078256931   0.000000000   0.000000000
    -0.0000000     1.8534236     0.0000000        0.000000000   3.390042743   0.000000000
     0.0000000     0.0000000     5.7735278        0.000000000   0.000000000   1.088274886

                       Lattice parameters(A)       Cell Angles
                    a =      3.023296          alpha =   90.000000
                    b =      1.853424          beta  =   90.000000
                    c =      5.773528          gamma =   90.000000

                Current cell volume =            32.351661 A**3

                           -------------------------------
                                     Cell Contents
                           -------------------------------

            xxxxxxxxxxxxxxxxxxxxxxxxxxxxxxxxxxxxxxxxxxxxxxxxxxxxxxxxxxxxxxxxx
            x  Element         Atom        Fractional coordinates of atoms  x
            x                 Number           u          v          w      x
            x---------------------------------------------------------------x
            x  H                 1         0.406158   0.374452   0.000000   x
            x  H                 2        -0.406158   0.374452   0.500000   x
            x  H                 3         0.406158  -0.374452   0.500000   x
            x  H                 4        -0.406158  -0.374452   0.000000   x
            x  H                 5         0.366437  -0.000000   0.250000   x
            x  H                 6        -0.366437   0.000000   0.750000   x
            x  H                 7         0.366437   0.000000   0.750000   x
            x  H                 8        -0.366437  -0.000000   0.250000   x
            x  H                 9         0.906158   0.874452   0.500000   x
            x  H                10        -0.906158   0.874452   0.000000   x
            x  H                11         0.906158  -0.874452   0.000000   x
            x  H                12        -0.906158  -0.874452   0.500000   x
            x  H                13         0.866437   0.500000   0.750000   x
            x  H                14        -0.866437   0.500000   0.250000   x
            x  H                15         0.866437   0.500000   0.250000   x
            x  H                16        -0.866437   0.500000   0.750000   x
            xxxxxxxxxxxxxxxxxxxxxxxxxxxxxxxxxxxxxxxxxxxxxxxxxxxxxxxxxxxxxxxxx


------------------------------------------------------------------------ <-- SCF
SCF loop      Energy                           Energy gain       Timer   <-- SCF
                                               per atom          (sec)   <-- SCF
------------------------------------------------------------------------ <-- SCF
Initial  -2.38136693E+002                                         52.74  <-- SCF
      1  -2.38375909E+002                    1.49510179E-002      53.34  <-- SCF
      2  -2.38377081E+002                    7.32225626E-005      54.26  <-- SCF
      3  -2.38363071E+002                   -8.75641456E-004      55.23  <-- SCF
      4  -2.38362505E+002                   -3.53663517E-005      56.18  <-- SCF
      5  -2.38362504E+002                   -6.64883016E-008      57.11  <-- SCF
      6  -2.38362504E+002                    4.09346625E-009      58.04  <-- SCF
      7  -2.38362504E+002                    1.28791266E-010      58.87  <-- SCF
      8  -2.38362504E+002                    2.07849666E-011      59.57  <-- SCF
      9  -2.38362504E+002                    6.85783056E-013      60.27  <-- SCF
     10  -2.38362504E+002                    2.26580305E-013      60.97  <-- SCF
------------------------------------------------------------------------ <-- SCF
 
Final energy =  -238.3625037614     eV
(energy not corrected for finite basis set)
 

 ******************************** Symmetrised Forces ********************************
 *                                                                                  *
 *                           Cartesian components (eV/A)                            *
 * -------------------------------------------------------------------------------- *
 *                         x                    y                    z              *
 *                                                                                  *
 * H               1      0.00163              0.02837             -0.00000         *
 * H               2     -0.00163              0.02837             -0.00000         *
 * H               3      0.00163             -0.02837             -0.00000         *
 * H               4     -0.00163             -0.02837             -0.00000         *
 * H               5     -0.05152              0.00000             -0.00000         *
 * H               6      0.05152              0.00000              0.00000         *
 * H               7     -0.05152              0.00000              0.00000         *
 * H               8      0.05152              0.00000             -0.00000         *
 * H               9      0.00163              0.02837             -0.00000         *
 * H              10     -0.00163              0.02837             -0.00000         *
 * H              11      0.00163             -0.02837             -0.00000         *
 * H              12     -0.00163             -0.02837             -0.00000         *
 * H              13     -0.05152              0.00000              0.00000         *
 * H              14      0.05152              0.00000             -0.00000         *
 * H              15     -0.05152              0.00000              0.00000         *
 * H              16      0.05152              0.00000              0.00000         *
 *                                                                                  *
 ************************************************************************************

 *********** Symmetrised Stress Tensor ***********
 *                                               *
 *          Cartesian components (GPa)           *
 * --------------------------------------------- *
 *             x             y             z     *
 *                                               *
 *  x   -132.027437      0.000000      0.000000  *
 *  y      0.000000   -132.449184      0.000000  *
 *  z      0.000000      0.000000   -131.218848  *
 *                                               *
 *  Pressure:  131.8985                          *
 *                                               *
 *************************************************
  
 +------------+-------------+-------------+-----------------+ <-- min LBFGS
 |    Step    |   lambda    |   F.delta'  |    enthalpy     | <-- min LBFGS
 +------------+-------------+-------------+-----------------+ <-- min LBFGS
 |  previous  |    0.000000 |    0.044085 |     -211.701110 | <-- min LBFGS
 | trial step |    1.000000 |   -0.015749 |     -211.708659 | <-- min LBFGS
 +------------+-------------+-------------+-----------------+ <-- min LBFGS
  
 LBFGS: finished iteration     3 with enthalpy= -2.11708659E+002 eV
  
 +-----------+-----------------+-----------------+------------+-----+ <-- LBFGS
 | Parameter |      value      |    tolerance    |    units   | OK? | <-- LBFGS
 +-----------+-----------------+-----------------+------------+-----+ <-- LBFGS
 |  dE/ion   |   4.718215E-004 |   1.000000E-009 |         eV | No  | <-- LBFGS
 |  |F|max   |   5.151686E-002 |   1.000000E-005 |       eV/A | No  | <-- LBFGS
 |  |dR|max  |   1.681272E-002 |   1.000000E-005 |          A | No  | <-- LBFGS
 |   Smax    |   7.811525E-001 |   1.000000E-005 |        GPa | No  | <-- LBFGS
 +-----------+-----------------+-----------------+------------+-----+ <-- LBFGS
  

================================================================================
 Starting LBFGS iteration          4 ...
================================================================================
  
 +------------+-------------+-------------+-----------------+ <-- min LBFGS
 |    Step    |   lambda    |   F.delta'  |    enthalpy     | <-- min LBFGS
 +------------+-------------+-------------+-----------------+ <-- min LBFGS
 |  previous  |    0.000000 |    0.017103 |     -211.708659 | <-- min LBFGS
 +------------+-------------+-------------+-----------------+ <-- min LBFGS
  

--------------------------------------------------------------------------------
 LBFGS: starting iteration         4 with trial guess (lambda=  1.000000)
--------------------------------------------------------------------------------

                           -------------------------------
                                      Unit Cell
                           -------------------------------
        Real Lattice(A)              Reciprocal Lattice(1/A)
     3.0217884    -0.0000000     0.0000000        2.079293619   0.000000000   0.000000000
    -0.0000000     1.8526265     0.0000000        0.000000000   3.391501374   0.000000000
     0.0000000     0.0000000     5.7668229        0.000000000   0.000000000   1.089540184

                       Lattice parameters(A)       Cell Angles
                    a =      3.021788          alpha =   90.000000
                    b =      1.852626          beta  =   90.000000
                    c =      5.766823          gamma =   90.000000

                Current cell volume =            32.284089 A**3

                           -------------------------------
                                     Cell Contents
                           -------------------------------

            xxxxxxxxxxxxxxxxxxxxxxxxxxxxxxxxxxxxxxxxxxxxxxxxxxxxxxxxxxxxxxxxx
            x  Element         Atom        Fractional coordinates of atoms  x
            x                 Number           u          v          w      x
            x---------------------------------------------------------------x
            x  H                 1         0.405880   0.375148   0.000000   x
            x  H                 2        -0.405880   0.375148   0.500000   x
            x  H                 3         0.405880  -0.375148   0.500000   x
            x  H                 4        -0.405880  -0.375148   0.000000   x
            x  H                 5         0.364900  -0.000000   0.250000   x
            x  H                 6        -0.364900   0.000000   0.750000   x
            x  H                 7         0.364900   0.000000   0.750000   x
            x  H                 8        -0.364900  -0.000000   0.250000   x
            x  H                 9         0.905880   0.875148   0.500000   x
            x  H                10        -0.905880   0.875148   0.000000   x
            x  H                11         0.905880  -0.875148   0.000000   x
            x  H                12        -0.905880  -0.875148   0.500000   x
            x  H                13         0.864900   0.500000   0.750000   x
            x  H                14        -0.864900   0.500000   0.250000   x
            x  H                15         0.864900   0.500000   0.250000   x
            x  H                16        -0.864900   0.500000   0.750000   x
            xxxxxxxxxxxxxxxxxxxxxxxxxxxxxxxxxxxxxxxxxxxxxxxxxxxxxxxxxxxxxxxxx


------------------------------------------------------------------------ <-- SCF
SCF loop      Energy                           Energy gain       Timer   <-- SCF
                                               per atom          (sec)   <-- SCF
------------------------------------------------------------------------ <-- SCF
Initial  -2.38290317E+002                                         63.22  <-- SCF
      1  -2.38309000E+002                    1.16768558E-003      63.81  <-- SCF
      2  -2.38309094E+002                    5.83630464E-006      64.72  <-- SCF
      3  -2.38307985E+002                   -6.92613890E-005      65.65  <-- SCF
      4  -2.38307942E+002                   -2.70895403E-006      66.59  <-- SCF
      5  -2.38307942E+002                   -5.85776551E-009      67.51  <-- SCF
      6  -2.38307942E+002                    2.37583044E-010      68.49  <-- SCF
      7  -2.38307942E+002                    1.26462021E-011      69.20  <-- SCF
      8  -2.38307942E+002                    1.03622726E-012      69.90  <-- SCF
      9  -2.38307942E+002                    6.88804126E-013      70.60  <-- SCF
------------------------------------------------------------------------ <-- SCF
 
Final energy =  -238.3079420017     eV
(energy not corrected for finite basis set)
 

 ******************************** Symmetrised Forces ********************************
 *                                                                                  *
 *                           Cartesian components (eV/A)                            *
 * -------------------------------------------------------------------------------- *
 *                         x                    y                    z              *
 *                                                                                  *
 * H               1     -0.00796              0.01005              0.00000         *
 * H               2      0.00796              0.01005              0.00000         *
 * H               3     -0.00796             -0.01005              0.00000         *
 * H               4      0.00796             -0.01005              0.00000         *
 * H               5      0.00975              0.00000              0.00000         *
 * H               6     -0.00975             -0.00000              0.00000         *
 * H               7      0.00975             -0.00000              0.00000         *
 * H               8     -0.00975              0.00000             -0.00000         *
 * H               9     -0.00796              0.01005              0.00000         *
 * H              10      0.00796              0.01005              0.00000         *
 * H              11     -0.00796             -0.01005              0.00000         *
 * H              12      0.00796             -0.01005              0.00000         *
 * H              13      0.00975             -0.00000              0.00000         *
 * H              14     -0.00975              0.00000              0.00000         *
 * H              15      0.00975              0.00000             -0.00000         *
 * H              16     -0.00975             -0.00000             -0.00000         *
 *                                                                                  *
 ************************************************************************************

 *********** Symmetrised Stress Tensor ***********
 *                                               *
 *          Cartesian components (GPa)           *
 * --------------------------------------------- *
 *             x             y             z     *
 *                                               *
 *  x   -131.519920      0.000000      0.000000  *
 *  y      0.000000   -132.340699      0.000000  *
 *  z      0.000000      0.000000   -131.826971  *
 *                                               *
 *  Pressure:  131.8959                          *
 *                                               *
 *************************************************
  
 +------------+-------------+-------------+-----------------+ <-- min LBFGS
 |    Step    |   lambda    |   F.delta'  |    enthalpy     | <-- min LBFGS
 +------------+-------------+-------------+-----------------+ <-- min LBFGS
 |  previous  |    0.000000 |    0.017103 |     -211.708659 | <-- min LBFGS
 | trial step |    1.000000 |   -0.001066 |     -211.709751 | <-- min LBFGS
 +------------+-------------+-------------+-----------------+ <-- min LBFGS
  
 LBFGS: finished iteration     4 with enthalpy= -2.11709751E+002 eV
  
 +-----------+-----------------+-----------------+------------+-----+ <-- LBFGS
 | Parameter |      value      |    tolerance    |    units   | OK? | <-- LBFGS
 +-----------+-----------------+-----------------+------------+-----+ <-- LBFGS
 |  dE/ion   |   6.822720E-005 |   1.000000E-009 |         eV | No  | <-- LBFGS
 |  |F|max   |   1.282212E-002 |   1.000000E-005 |       eV/A | No  | <-- LBFGS
 |  |dR|max  |   4.643583E-003 |   1.000000E-005 |          A | No  | <-- LBFGS
 |   Smax    |   4.800799E-001 |   1.000000E-005 |        GPa | No  | <-- LBFGS
 +-----------+-----------------+-----------------+------------+-----+ <-- LBFGS
  

================================================================================
 Starting LBFGS iteration          5 ...
================================================================================
  
 +------------+-------------+-------------+-----------------+ <-- min LBFGS
 |    Step    |   lambda    |   F.delta'  |    enthalpy     | <-- min LBFGS
 +------------+-------------+-------------+-----------------+ <-- min LBFGS
 |  previous  |    0.000000 |    0.004283 |     -211.709751 | <-- min LBFGS
 +------------+-------------+-------------+-----------------+ <-- min LBFGS
  

--------------------------------------------------------------------------------
 LBFGS: starting iteration         5 with trial guess (lambda=  1.000000)
--------------------------------------------------------------------------------

                           -------------------------------
                                      Unit Cell
                           -------------------------------
        Real Lattice(A)              Reciprocal Lattice(1/A)
     3.0210953    -0.0000000     0.0000000        2.079770630   0.000000000   0.000000000
    -0.0000000     1.8532566     0.0000000        0.000000000   3.390348280   0.000000000
     0.0000000     0.0000000     5.7663584        0.000000000   0.000000000   1.089627958

                       Lattice parameters(A)       Cell Angles
                    a =      3.021095          alpha =   90.000000
                    b =      1.853257          beta  =   90.000000
                    c =      5.766358          gamma =   90.000000

                Current cell volume =            32.285061 A**3

                           -------------------------------
                                     Cell Contents
                           -------------------------------

            xxxxxxxxxxxxxxxxxxxxxxxxxxxxxxxxxxxxxxxxxxxxxxxxxxxxxxxxxxxxxxxxx
            x  Element         Atom        Fractional coordinates of atoms  x
            x                 Number           u          v          w      x
            x---------------------------------------------------------------x
            x  H                 1         0.405580   0.375750   0.000000   x
            x  H                 2        -0.405580   0.375750   0.500000   x
            x  H                 3         0.405580  -0.375750   0.500000   x
            x  H                 4        -0.405580  -0.375750   0.000000   x
            x  H                 5         0.365058  -0.000000   0.250000   x
            x  H                 6        -0.365058   0.000000   0.750000   x
            x  H                 7         0.365058   0.000000   0.750000   x
            x  H                 8        -0.365058  -0.000000   0.250000   x
            x  H                 9         0.905580   0.875750   0.500000   x
            x  H                10        -0.905580   0.875750   0.000000   x
            x  H                11         0.905580  -0.875750   0.000000   x
            x  H                12        -0.905580  -0.875750   0.500000   x
            x  H                13         0.865058   0.500000   0.750000   x
            x  H                14        -0.865058   0.500000   0.250000   x
            x  H                15         0.865058   0.500000   0.250000   x
            x  H                16        -0.865058   0.500000   0.750000   x
            xxxxxxxxxxxxxxxxxxxxxxxxxxxxxxxxxxxxxxxxxxxxxxxxxxxxxxxxxxxxxxxxx


------------------------------------------------------------------------ <-- SCF
SCF loop      Energy                           Energy gain       Timer   <-- SCF
                                               per atom          (sec)   <-- SCF
------------------------------------------------------------------------ <-- SCF
Initial  -2.38307865E+002                                         72.87  <-- SCF
      1  -2.38308917E+002                    6.57554007E-005      73.45  <-- SCF
      2  -2.38308923E+002                    3.38440654E-007      74.38  <-- SCF
      3  -2.38308929E+002                    4.12137227E-007      75.31  <-- SCF
      4  -2.38308930E+002                    5.88990759E-008      76.22  <-- SCF
      5  -2.38308930E+002                    3.76857426E-010      77.15  <-- SCF
      6  -2.38308930E+002                    4.97268242E-011      77.87  <-- SCF
      7  -2.38308930E+002                    7.19014834E-013      78.57  <-- SCF
      8  -2.38308930E+002                    1.20842829E-013      79.27  <-- SCF
------------------------------------------------------------------------ <-- SCF
 
Final energy =  -238.3089304139     eV
(energy not corrected for finite basis set)
 

 ******************************** Symmetrised Forces ********************************
 *                                                                                  *
 *                           Cartesian components (eV/A)                            *
 * -------------------------------------------------------------------------------- *
 *                         x                    y                    z              *
 *                                                                                  *
 * H               1     -0.00950              0.00748             -0.00000         *
 * H               2      0.00950              0.00748             -0.00000         *
 * H               3     -0.00950             -0.00748             -0.00000         *
 * H               4      0.00950             -0.00748             -0.00000         *
 * H               5      0.00493              0.00000             -0.00000         *
 * H               6     -0.00493              0.00000             -0.00000         *
 * H               7      0.00493             -0.00000              0.00000         *
 * H               8     -0.00493              0.00000              0.00000         *
 * H               9     -0.00950              0.00748             -0.00000         *
 * H              10      0.00950              0.00748             -0.00000         *
 * H              11     -0.00950             -0.00748             -0.00000         *
 * H              12      0.00950             -0.00748             -0.00000         *
 * H              13      0.00493              0.00000              0.00000         *
 * H              14     -0.00493             -0.00000             -0.00000         *
 * H              15      0.00493             -0.00000             -0.00000         *
 * H              16     -0.00493              0.00000             -0.00000         *
 *                                                                                  *
 ************************************************************************************

 *********** Symmetrised Stress Tensor ***********
 *                                               *
 *          Cartesian components (GPa)           *
 * --------------------------------------------- *
 *             x             y             z     *
 *                                               *
 *  x   -131.800157      0.000000      0.000000  *
 *  y      0.000000   -132.307121      0.000000  *
 *  z      0.000000      0.000000   -131.857162  *
 *                                               *
 *  Pressure:  131.9881                          *
 *                                               *
 *************************************************
  
 +------------+-------------+-------------+-----------------+ <-- min LBFGS
 |    Step    |   lambda    |   F.delta'  |    enthalpy     | <-- min LBFGS
 +------------+-------------+-------------+-----------------+ <-- min LBFGS
 |  previous  |    0.000000 |    0.004283 |     -211.709751 | <-- min LBFGS
 | trial step |    1.000000 |    0.003439 |     -211.709955 | <-- min LBFGS
 +------------+-------------+-------------+-----------------+ <-- min LBFGS
  

--------------------------------------------------------------------------------
 LBFGS: improving iteration         5 with line minimization (lambda=  5.073571)
--------------------------------------------------------------------------------

                           -------------------------------
                                      Unit Cell
                           -------------------------------
        Real Lattice(A)              Reciprocal Lattice(1/A)
     3.0182720    -0.0000000     0.0000000        2.081716032   0.000000000   0.000000000
    -0.0000000     1.8558233     0.0000000        0.000000000   3.385659159   0.000000000
     0.0000000     0.0000000     5.7644660        0.000000000   0.000000000   1.089985656

                       Lattice parameters(A)       Cell Angles
                    a =      3.018272          alpha =   90.000000
                    b =      1.855823          beta  =   90.000000
                    c =      5.764466          gamma =   90.000000

                Current cell volume =            32.288963 A**3

                           -------------------------------
                                     Cell Contents
                           -------------------------------

            xxxxxxxxxxxxxxxxxxxxxxxxxxxxxxxxxxxxxxxxxxxxxxxxxxxxxxxxxxxxxxxxx
            x  Element         Atom        Fractional coordinates of atoms  x
            x                 Number           u          v          w      x
            x---------------------------------------------------------------x
            x  H                 1         0.404356   0.378198   0.000000   x
            x  H                 2        -0.404356   0.378198   0.500000   x
            x  H                 3         0.404356  -0.378198   0.500000   x
            x  H                 4        -0.404356  -0.378198   0.000000   x
            x  H                 5         0.365699  -0.000000   0.250000   x
            x  H                 6        -0.365699   0.000000   0.750000   x
            x  H                 7         0.365699   0.000000   0.750000   x
            x  H                 8        -0.365699  -0.000000   0.250000   x
            x  H                 9         0.904356   0.878198   0.500000   x
            x  H                10        -0.904356   0.878198   0.000000   x
            x  H                11         0.904356  -0.878198   0.000000   x
            x  H                12        -0.904356  -0.878198   0.500000   x
            x  H                13         0.865699   0.500000   0.750000   x
            x  H                14        -0.865699   0.500000   0.250000   x
            x  H                15         0.865699   0.500000   0.250000   x
            x  H                16        -0.865699   0.500000   0.750000   x
            xxxxxxxxxxxxxxxxxxxxxxxxxxxxxxxxxxxxxxxxxxxxxxxxxxxxxxxxxxxxxxxxx


[...]
            x---------------------------------------------------------------x
            x  H                 1         0.402635   0.381626   0.000000   x
            x  H                 2        -0.402635   0.381626   0.500000   x
            x  H                 3         0.402635  -0.381626   0.500000   x
            x  H                 4        -0.402635  -0.381626   0.000000   x
            x  H                 5         0.365733  -0.000000   0.250000   x
            x  H                 6        -0.365733   0.000000   0.750000   x
            x  H                 7         0.365733   0.000000   0.750000   x
            x  H                 8        -0.365733  -0.000000   0.250000   x
            x  H                 9         0.902635   0.881626   0.500000   x
            x  H                10        -0.902635   0.881626   0.000000   x
            x  H                11         0.902635  -0.881626   0.000000   x
            x  H                12        -0.902635  -0.881626   0.500000   x
            x  H                13         0.865733   0.500000   0.750000   x
            x  H                14        -0.865733   0.500000   0.250000   x
            x  H                15         0.865733   0.500000   0.250000   x
            x  H                16        -0.865733   0.500000   0.750000   x
            xxxxxxxxxxxxxxxxxxxxxxxxxxxxxxxxxxxxxxxxxxxxxxxxxxxxxxxxxxxxxxxxx


------------------------------------------------------------------------ <-- SCF
SCF loop      Energy                           Energy gain       Timer   <-- SCF
                                               per atom          (sec)   <-- SCF
------------------------------------------------------------------------ <-- SCF
Initial  -2.38327270E+002                                        171.40  <-- SCF
      1  -2.38327270E+002                    9.45595138E-013     171.77  <-- SCF
      2  -2.38327270E+002                    1.81264244E-014     172.46  <-- SCF
      3  -2.38327270E+002                    1.20842829E-014     173.16  <-- SCF
      4  -2.38327270E+002                   -6.04214146E-014     173.85  <-- SCF
------------------------------------------------------------------------ <-- SCF
 
Final energy =  -238.3272700448     eV
(energy not corrected for finite basis set)
 

 ******************************** Symmetrised Forces ********************************
 *                                                                                  *
 *                           Cartesian components (eV/A)                            *
 * -------------------------------------------------------------------------------- *
 *                         x                    y                    z              *
 *                                                                                  *
 * H               1      0.00000              0.00000              0.00000         *
 * H               2     -0.00000              0.00000              0.00000         *
 * H               3      0.00000             -0.00000              0.00000         *
 * H               4     -0.00000             -0.00000              0.00000         *
 * H               5     -0.00000              0.00000              0.00000         *
 * H               6      0.00000              0.00000             -0.00000         *
 * H               7     -0.00000              0.00000              0.00000         *
 * H               8      0.00000              0.00000              0.00000         *
 * H               9      0.00000              0.00000              0.00000         *
 * H              10     -0.00000              0.00000              0.00000         *
 * H              11      0.00000             -0.00000              0.00000         *
 * H              12     -0.00000             -0.00000              0.00000         *
 * H              13     -0.00000              0.00000             -0.00000         *
 * H              14      0.00000             -0.00000              0.00000         *
 * H              15     -0.00000              0.00000              0.00000         *
 * H              16      0.00000             -0.00000             -0.00000         *
 *                                                                                  *
 ************************************************************************************

 *********** Symmetrised Stress Tensor ***********
 *                                               *
 *          Cartesian components (GPa)           *
 * --------------------------------------------- *
 *             x             y             z     *
 *                                               *
 *  x   -132.000004      0.000000      0.000000  *
 *  y      0.000000   -131.999996      0.000000  *
 *  z      0.000000      0.000000   -132.000003  *
 *                                               *
 *  Pressure:  132.0000                          *
 *                                               *
 *************************************************
  
 +------------+-------------+-------------+-----------------+ <-- min LBFGS
 |    Step    |   lambda    |   F.delta'  |    enthalpy     | <-- min LBFGS
 +------------+-------------+-------------+-----------------+ <-- min LBFGS
 |  previous  |    0.000000 |  8.250E-008 |     -211.710679 | <-- min LBFGS
 | trial step |    1.000000 | -5.020E-008 |     -211.710679 | <-- min LBFGS
 +------------+-------------+-------------+-----------------+ <-- min LBFGS
  
 LBFGS: finished iteration    13 with enthalpy= -2.11710679E+002 eV
  
 +-----------+-----------------+-----------------+------------+-----+ <-- LBFGS
 | Parameter |      value      |    tolerance    |    units   | OK? | <-- LBFGS
 +-----------+-----------------+-----------------+------------+-----+ <-- LBFGS
 |  dE/ion   |   1.691800E-013 |   1.000000E-009 |         eV | Yes | <-- LBFGS
 |  |F|max   |   4.816332E-007 |   1.000000E-005 |       eV/A | Yes | <-- LBFGS
 |  |dR|max  |   1.867963E-007 |   1.000000E-005 |          A | Yes | <-- LBFGS
 |   Smax    |   4.406559E-006 |   1.000000E-005 |        GPa | Yes | <-- LBFGS
 +-----------+-----------------+-----------------+------------+-----+ <-- LBFGS
  
 LBFGS: Geometry optimization completed successfully.

================================================================================
 LBFGS: Final Configuration:
================================================================================

                           -------------------------------
                                      Unit Cell
                           -------------------------------
        Real Lattice(A)              Reciprocal Lattice(1/A)
     3.0211186    -0.0000000     0.0000000        2.079754628   0.000000000   0.000000000
    -0.0000000     1.8555166     0.0000000        0.000000000   3.386218908   0.000000000
     0.0000000     0.0000000     5.7631028        0.000000000   0.000000000   1.090243483

                       Lattice parameters(A)       Cell Angles
                    a =      3.021119          alpha =   90.000000
                    b =      1.855517          beta  =   90.000000
                    c =      5.763103          gamma =   90.000000

                Current cell volume =            32.306430 A**3

                           -------------------------------
                                     Cell Contents
                           -------------------------------

            xxxxxxxxxxxxxxxxxxxxxxxxxxxxxxxxxxxxxxxxxxxxxxxxxxxxxxxxxxxxxxxxx
            x  Element         Atom        Fractional coordinates of atoms  x
            x                 Number           u          v          w      x
            x---------------------------------------------------------------x
            x  H                 1         0.402635   0.381626   0.000000   x
            x  H                 2        -0.402635   0.381626   0.500000   x
            x  H                 3         0.402635  -0.381626   0.500000   x
            x  H                 4        -0.402635  -0.381626   0.000000   x
            x  H                 5         0.365733  -0.000000   0.250000   x
            x  H                 6        -0.365733   0.000000   0.750000   x
            x  H                 7         0.365733   0.000000   0.750000   x
            x  H                 8        -0.365733  -0.000000   0.250000   x
            x  H                 9         0.902635   0.881626   0.500000   x
            x  H                10        -0.902635   0.881626   0.000000   x
            x  H                11         0.902635  -0.881626   0.000000   x
            x  H                12        -0.902635  -0.881626   0.500000   x
            x  H                13         0.865733   0.500000   0.750000   x
            x  H                14        -0.865733   0.500000   0.250000   x
            x  H                15         0.865733   0.500000   0.250000   x
            x  H                16        -0.865733   0.500000   0.750000   x
            xxxxxxxxxxxxxxxxxxxxxxxxxxxxxxxxxxxxxxxxxxxxxxxxxxxxxxxxxxxxxxxxx


 LBFGS: Final Enthalpy     = -2.11710679E+002 eV
 LBFGS: Final <frequency>  =     525.24942 cm-1
 LBFGS: Final bulk modulus =     315.60430 GPa

 ******************************** Symmetrised Forces ********************************
 *                                                                                  *
 *                           Cartesian components (eV/A)                            *
 * -------------------------------------------------------------------------------- *
 *                         x                    y                    z              *
 *                                                                                  *
 * H               1      0.00000              0.00000              0.00000         *
 * H               2     -0.00000              0.00000              0.00000         *
 * H               3      0.00000             -0.00000              0.00000         *
 * H               4     -0.00000             -0.00000              0.00000         *
 * H               5     -0.00000              0.00000              0.00000         *
 * H               6      0.00000              0.00000             -0.00000         *
 * H               7     -0.00000              0.00000              0.00000         *
 * H               8      0.00000              0.00000              0.00000         *
 * H               9      0.00000              0.00000              0.00000         *
 * H              10     -0.00000              0.00000              0.00000         *
 * H              11      0.00000             -0.00000              0.00000         *
 * H              12     -0.00000             -0.00000              0.00000         *
 * H              13     -0.00000              0.00000             -0.00000         *
 * H              14      0.00000             -0.00000              0.00000         *
 * H              15     -0.00000              0.00000              0.00000         *
 * H              16      0.00000             -0.00000             -0.00000         *
 *                                                                                  *
 ************************************************************************************

 *********** Symmetrised Stress Tensor ***********
 *                                               *
 *          Cartesian components (GPa)           *
 * --------------------------------------------- *
 *             x             y             z     *
 *                                               *
 *  x   -132.000004      0.000000      0.000000  *
 *  y      0.000000   -131.999996      0.000000  *
 *  z      0.000000      0.000000   -132.000003  *
 *                                               *
 *  Pressure:  132.0000                          *
 *                                               *
 *************************************************

 Pseudo atomic calculation performed for H 1s1

 Converged in 24 iterations to a total energy of -12.4843 eV

Charge spilling parameter for spin component 1 = 0.55%

            Orbital Populations       
     Ion    Atom   Orbital             Charge
  -------------------------------------------
      H     1      S                    1.005
      H     2      S                    1.003
      H     3      S                    1.003
      H     4      S                    1.005
      H     5      S                    0.996
      H     6      S                    0.996
      H     7      S                    0.996
      H     8      S                    0.996
      H     9      S                    1.005
      H    10      S                    1.003
      H    11      S                    1.003
      H    12      S                    1.005
      H    13      S                    0.996
      H    14      S                    0.996
      H    15      S                    0.996
      H    16      S                    0.996
  -------------------------------------------
                           Total:      16.000
  -------------------------------------------

     Atomic Populations (Mulliken)
     -----------------------------
Species          Ion     s      p      d      f     Total  Charge (e)
=====================================================================
  H               1     1.00   0.00   0.00   0.00   1.00    -0.00
  H               2     1.00   0.00   0.00   0.00   1.00    -0.00
  H               3     1.00   0.00   0.00   0.00   1.00    -0.00
  H               4     1.00   0.00   0.00   0.00   1.00    -0.00
  H               5     1.00   0.00   0.00   0.00   1.00     0.00
  H               6     1.00   0.00   0.00   0.00   1.00     0.00
  H               7     1.00   0.00   0.00   0.00   1.00     0.00
  H               8     1.00   0.00   0.00   0.00   1.00     0.00
  H               9     1.00   0.00   0.00   0.00   1.00    -0.00
  H              10     1.00   0.00   0.00   0.00   1.00    -0.00
  H              11     1.00   0.00   0.00   0.00   1.00    -0.00
  H              12     1.00   0.00   0.00   0.00   1.00    -0.00
  H              13     1.00   0.00   0.00   0.00   1.00     0.00
  H              14     1.00   0.00   0.00   0.00   1.00     0.00
  H              15     1.00   0.00   0.00   0.00   1.00     0.00
  H              16     1.00   0.00   0.00   0.00   1.00     0.00
=====================================================================

                 Bond                   Population      Length (A)
======================================================================
              H 2  -- H 3                    1.41        0.73422
              H 1  -- H 4                    1.41        0.73422
              H 10 -- H 11                   1.41        0.73422
              H 9  -- H 12                   1.41        0.73422
              H 6  -- H 7                    0.74        0.81128
              H 5  -- H 8                    0.74        0.81128
              H 14 -- H 15                   0.74        0.81128
              H 13 -- H 16                   0.74        0.81128
              H 8  -- H 15                   0.50        1.16178
              H 7  -- H 16                   0.50        1.16178
              H 6  -- H 13                   0.50        1.16178
              H 5  -- H 14                   0.50        1.16178
              H 4  -- H 11                  -0.22        1.30816
              H 3  -- H 12                  -0.22        1.30816
              H 2  -- H 9                   -0.22        1.30816
              H 1  -- H 10                  -0.22        1.30816
              H 4  -- H 10                  -0.56        1.58757
              H 3  -- H 9                   -0.56        1.58757
              H 2  -- H 12                  -0.56        1.58757
              H 1  -- H 11                  -0.56        1.58757
              H 12 -- H 14                  -0.12        1.60925
              H 11 -- H 13                  -0.12        1.60925
              H 10 -- H 16                  -0.12        1.60925
              H 9  -- H 15                  -0.12        1.60925
              H 12 -- H 16                  -0.12        1.60925
              H 11 -- H 15                  -0.12        1.60925
              H 10 -- H 14                  -0.12        1.60925
              H 9  -- H 13                  -0.12        1.60925
              H 4  -- H 6                   -0.12        1.60925
              H 3  -- H 5                   -0.12        1.60925
              H 2  -- H 8                   -0.12        1.60925
              H 2  -- H 6                   -0.12        1.60925
              H 1  -- H 7                   -0.12        1.60925
              H 1  -- H 5                   -0.12        1.60925
              H 4  -- H 8                   -0.12        1.60925
              H 3  -- H 7                   -0.12        1.60925
              H 8  -- H 11                  -0.06        1.66776
              H 7  -- H 12                  -0.06        1.66776
              H 6  -- H 9                   -0.06        1.66776
              H 5  -- H 10                  -0.06        1.66776
              H 8  -- H 9                   -0.06        1.66776
              H 7  -- H 10                  -0.06        1.66776
              H 6  -- H 11                  -0.06        1.66776
              H 5  -- H 12                  -0.06        1.66776
              H 4  -- H 13                  -0.06        1.66776
              H 3  -- H 14                  -0.06        1.66776
              H 2  -- H 15                  -0.06        1.66776
              H 1  -- H 16                  -0.06        1.66776
              H 4  -- H 15                  -0.06        1.66776
              H 3  -- H 16                  -0.06        1.66776
              H 2  -- H 13                  -0.06        1.66776
              H 1  -- H 14                  -0.06        1.66776
              H 4  -- H 7                   -0.20        1.75127
              H 3  -- H 8                   -0.20        1.75127
              H 2  -- H 7                   -0.20        1.75127
              H 2  -- H 5                   -0.20        1.75127
              H 1  -- H 8                   -0.20        1.75127
              H 1  -- H 6                   -0.20        1.75127
              H 4  -- H 5                   -0.20        1.75127
              H 3  -- H 6                   -0.20        1.75127
              H 12 -- H 15                  -0.20        1.75127
              H 11 -- H 16                  -0.20        1.75127
              H 10 -- H 13                  -0.20        1.75127
              H 9  -- H 14                  -0.20        1.75127
              H 12 -- H 13                  -0.20        1.75127
              H 11 -- H 14                  -0.20        1.75127
              H 10 -- H 15                  -0.20        1.75127
              H 9  -- H 16                  -0.20        1.75127
              H 8  -- H 14                  -0.64        1.77272
              H 7  -- H 13                  -0.64        1.77272
              H 6  -- H 16                  -0.64        1.77272
              H 5  -- H 15                  -0.64        1.77272
======================================================================


Writing analysis data to Hibam.castep_bin

Writing model to Hibam.check
 
 A BibTeX formatted list of references used in this run has been written to 
 Hibam.bib
 
Initialisation time =      2.47 s
Calculation time    =    174.68 s
Finalisation time   =      1.22 s
Total time          =    178.37 s
Peak Memory Use     = 494352 kB
  
Overall parallel efficiency rating: Excellent (95%)                             
  
Data was distributed by:-
k-point (16-way); efficiency rating: Excellent (95%)                            
  
Parallel notes:
1) Calculation only took 177.2 s, so efficiency estimates may be inaccurate.    
