 +-------------------------------------------------+
 |                                                 |
 |      CCC   AA    SSS  TTTTT  EEEEE  PPPP        |
 |     C     A  A  S       T    E      P   P       |
 |     C     AAAA   SS     T    EEE    PPPP        |
 |     C     A  A     S    T    E      P           |
 |      CCC  A  A  SSS     T    EEEEE  P           |
 |                                                 |
 +-------------------------------------------------+
 |                                                 |
 | Welcome to Academic Release CASTEP version 18.1 |          
 | Ab Initio Total Energy Program                  |
 |                                                 |
 | Authors:                                        |
 | M. Segall, M. Probert, C. Pickard, P. Hasnip,   |
 | S. Clark, K. Refson, J. R. Yates, M. Payne      |
 |                                                 |
 | Contributors:                                   |
 | P. Lindan, P. Haynes, J. White, V. Milman,      |
 | N. Govind, M. Gibson, P. Tulip, V. Cocula,      |
 | B. Montanari, D. Quigley, M. Glover,            |
 | L. Bernasconi, A. Perlov, M. Plummer,           |
 | E. McNellis, J. Meyer, J. Gale, D. Jochym       |
 | J. Aarons, B. Walker, R. Gillen, D. Jones       |
 | T. Green, I. J. Bush, C. J. Armstrong,          |
 | E. J. Higgins, E. L. Brown, M. S. McFly,        |
 | J. Wilkins, B-C. Shih, P. J. P. Byrne           |
 |                                                 |
 | Copyright (c) 2000 - 2017                       |
 |                                                 |
 |     Distributed under the terms of an           |
 |     Agreement between the United Kingdom        |
 |     Car-Parrinello (UKCP) Consortium,           |
 |     Daresbury Laboratory and Accelrys, Inc.     |
 |                                                 |
 | Please cite                                     |
 |                                                 |
 |     "First principles methods using CASTEP"     |
 |                                                 |
 |         Zeitschrift fuer Kristallographie       |
 |           220(5-6) pp. 567-570 (2005)           |
 |                                                 |
 | S. J. Clark, M. D. Segall, C. J. Pickard,       |
 | P. J. Hasnip, M. J. Probert, K. Refson,         |
 | M. C. Payne                                     |
 |                                                 |
 |       in all publications arising from          |
 |              your use of CASTEP                 |
 |                                                 |
 +-------------------------------------------------+


 Compiled for linux_x86_64_gfortran4.8 on Thu, 19 Jul 2018 15:42:32 +0100
 from code version 70483bd0ad64+  Sun, 10 Dec 2017 12:18:29 +0000
 Compiler: GNU Fortran 4.8.5; Optimisation: fast
 MATHLIBS: Intel MKL(2018.0.0) (LAPACK version 3.7.0)
 FFT Lib : mkl
 Fundamental constants values: CODATA 2014

 Run started: Fri, 14 Aug 2020 01:18:11 +0100

 Atomic calculation performed for H: 1s1

 Converged in 41 iterations to an ae energy of -12.488 eV

   ============================================================                
   | Pseudopotential Report - Date of generation 14-08-2020   |                
   ------------------------------------------------------------                
   | Element: H Ionic charge:  1.00 Level of theory: PBE      |                
   | Atomic Solver: Koelling-Harmon                           |                
   |                                                          |                
   |               Reference Electronic Structure             |                
   |         Orbital         Occupation         Energy        |                
   |            1s              1.000           -0.239        |                
   |                                                          |                
   |                 Pseudopotential Definition               |                
   |        Beta     l      e      Rc     scheme   norm       |                
   |          1      0   -0.239   0.599     qc      0         |                
   |          2      0    0.250   0.599     qc      0         |                
   |         loc     1    0.000   0.599     pn      0         |                
   |                                                          |                
   | Augmentation charge Rinner = 0.421                       |                
   | No partial core correction                               |                
   ------------------------------------------------------------                
   | "1|0.6|13|15|17|10(qc=8)"                                |                
   ------------------------------------------------------------                
   |      Author: Chris J. Pickard, Cambridge University      |                
   ============================================================                

 Pseudo atomic calculation performed for H 1s1

 Converged in 24 iterations to a total energy of -12.4866 eV

 Calculation parallelised over 16 processes.
 Data is distributed by k-point(16-way)

 ************************************ Title ************************************
 

 ***************************** General Parameters ******************************
  
 output verbosity                               : normal  (1)
 write checkpoint data to                       : Cmca-12.check
 type of calculation                            : geometry optimization
 stress calculation                             : on
 density difference calculation                 : off
 electron localisation func (ELF) calculation   : off
 Hirshfeld analysis                             : off
 unlimited duration calculation
 timing information                             : on
 memory usage estimate                          : on
 write extra output files                       : on
 write final potential to formatted file        : off
 write final density to formatted file          : off
 write structure in CELL formatted file         : on
 write BibTeX reference list                    : on
 write OTFG pseudopotential files               : on
 write electrostatic potential file             : on
 write bands file                               : on
 checkpoint writing                             : both castep_bin and check files
  
 output         length unit                     : A
 output           mass unit                     : amu
 output           time unit                     : ps
 output         charge unit                     : e
 output           spin unit                     : hbar/2
 output         energy unit                     : eV
 output          force unit                     : eV/A
 output       velocity unit                     : A/ps
 output       pressure unit                     : GPa
 output     inv_length unit                     : 1/A
 output      frequency unit                     : cm-1
 output force constant unit                     : eV/A**2
 output         volume unit                     : A**3
 output   IR intensity unit                     : (D/A)**2/amu
 output         dipole unit                     : D
 output         efield unit                     : eV/A/e
 output        entropy unit                     : J/mol/K
  
 wavefunctions paging                           : none
 random number generator seed                   : randomised (11811488)
 data distribution                              : optimal for this architecture
 optimization strategy                          : maximize speed(+++)

 *********************** Exchange-Correlation Parameters ***********************
  
 using functional                               : Perdew Burke Ernzerhof
 relativistic treatment                         : Koelling-Harmon
 DFT+D: Semi-empirical dispersion correction    : off

 ************************* Pseudopotential Parameters **************************
  
 pseudopotential representation                 : reciprocal space
 <beta|phi> representation                      : reciprocal space
 spin-orbit coupling                            : off

 **************************** Basis Set Parameters *****************************
  
 plane wave basis set cut-off                   :  1200.0000   eV
 size of standard grid                          :     2.0000
 size of   fine   gmax                          :    35.4943   1/A
 finite basis set correction                    : automatic
 number of sample energies                      :          3
           sample  spacing                      :     5.0000   eV

 **************************** Electronic Parameters ****************************
  
 number of  electrons                           :  24.00    
 net charge of system                           :  0.000    
 treating system as non-spin-polarized
 number of bands                                :         12

 ********************* Electronic Minimization Parameters **********************
  
 Method: Treating system as non-metallic,
         and number of  SD  steps               :          1
         and number of  CG  steps               :          4
  
 total energy / atom convergence tol.           : 0.1000E-10   eV
 eigen-energy convergence tolerance             : 0.2000E-10   eV
 max force / atom convergence tol.              : ignored
 convergence tolerance window                   :          3   cycles
 max. number of SCF cycles                      :        100
 periodic dipole correction                     : NONE

 ************************** Density Mixing Parameters **************************
  
 density-mixing scheme                          : Broyden
 max. length of mixing history                  :         20
 charge density mixing amplitude                : 0.8000    
 cut-off energy for mixing                      :  1200.       eV

 *********************** Population Analysis Parameters ************************
  
 Population analysis with cutoff                :  3.000       A
 Population analysis output                     : summary and pdos components

 ********************** Geometry Optimization Parameters ***********************
  
 optimization method                            : LBFGS
 max. no. of LBFGS updates                      : unbounded
 variable cell method                           : fixed basis quality
 max. number of steps                           :        200
 estimated bulk modulus                         :  500.0       GPa
 estimated <frequency>                          :  1668.       cm-1
 geom line minimiser                            : on
 with line minimiser tolerance                  :     0.4000
 total energy convergence tolerance             : 0.1000E-08   eV/atom
        max ionic |force| tolerance             : 0.1000E-04   eV/A
 max ionic |displacement| tolerance             : 0.1000E-04   A
   max |stress component| tolerance             : 0.1000E-04   GPa
 convergence tolerance window                   :          2   steps
 backup results every                           :      14400   seconds
 write geom trajectory file                     : on

 *******************************************************************************
  

                           -------------------------------
                                      Unit Cell
                           -------------------------------
        Real Lattice(A)                      Reciprocal Lattice(1/A)
     2.7506323     0.0000000     0.0000000        2.284269426  -0.000000000   0.000000000
     0.0000000     5.0979334     0.0000000       -0.000000000   1.232496549  -0.000000001
    -0.0000000     0.0000000     3.0637590       -0.000000000  -0.000000001   2.050809245

                       Lattice parameters(A)       Cell Angles
                    a =      2.750632          alpha =   90.000000
                    b =      5.097933          beta  =   90.000000
                    c =      3.063759          gamma =   90.000000

                       Current cell volume =            42.961684       A**3
                                   density =             0.563073   AMU/A**3
                                           =             0.935005     g/cm^3

                           -------------------------------
                                     Cell Contents
                           -------------------------------
                         Total number of ions in cell =   24
                      Total number of species in cell =    1
                        Max number of any one species =   24

            xxxxxxxxxxxxxxxxxxxxxxxxxxxxxxxxxxxxxxxxxxxxxxxxxxxxxxxxxxxx
            x  Element    Atom        Fractional coordinates of atoms  x
            x            Number           u          v          w      x
            x----------------------------------------------------------x
            x  H            1         0.000000   0.000726   0.124886   x 
            x  H            2        -0.000000   0.133068   0.455219   x 
            x  H            3         0.000000   0.257687   0.323338   x 
            x  H            4         0.500000   0.257687   0.176662   x 
            x  H            5         0.500000   0.133068   0.044781   x 
            x  H            6         0.500000   0.000726   0.375114   x 
            x  H            7         0.500000   0.242313   0.676662   x 
            x  H            8         0.500000   0.366932   0.544781   x 
            x  H            9         0.500000   0.499274   0.875114   x 
            x  H           10         0.500000   0.742313   0.823338   x 
            x  H           11         0.500000   0.866932   0.955219   x 
            x  H           12         0.500000   0.999274   0.624886   x 
            x  H           13         0.500000   0.757687   0.323338   x 
            x  H           14         0.500000   0.633068   0.455219   x 
            x  H           15         0.500000   0.500726   0.124886   x 
            x  H           16        -0.000000   0.757687   0.176662   x 
            x  H           17         0.000000   0.633068   0.044781   x 
            x  H           18         0.000000   0.500726   0.375114   x 
            x  H           19        -0.000000   0.742313   0.676662   x 
            x  H           20         0.000000   0.866932   0.544781   x 
            x  H           21        -0.000000   0.999274   0.875114   x 
            x  H           22         0.000000   0.242313   0.823338   x 
            x  H           23        -0.000000   0.366932   0.955219   x 
            x  H           24        -0.000000   0.499274   0.624886   x 
            xxxxxxxxxxxxxxxxxxxxxxxxxxxxxxxxxxxxxxxxxxxxxxxxxxxxxxxxxxxx


                         No user defined ionic velocities

                           -------------------------------
                                   Details of Species
                           -------------------------------

                               Mass of species in AMU
                                    H    1.0078250

                          Electric Quadrupole Moment (Barn)
                                    H    0.0028600 Isotope  2

                          Files used for pseudopotentials:
                                    H 1|0.6|13|15|17|10(qc=8)

                           -------------------------------
                              k-Points For BZ Sampling
                           -------------------------------
                       MP grid size for SCF calculation is 10 10 10
                            with an offset of   0.000  0.000  0.000
                       Number of kpoints used =           500

                           -------------------------------
                               Symmetry and Constraints
                           -------------------------------

                      Cell is a supercell containing 2 primitive cells
                      Maximum deviation from symmetry =  0.00000         ANG

                      Number of symmetry operations   =           1
                      Number of ionic constraints     =           3
                      Point group of crystal =     1: C1, 1, 1
                      Space group of crystal =    64: Cmce, -C 2bc 2

             Set iprint > 1 for details on symmetry rotations/translations

                         Centre of mass is constrained
             Set iprint > 1 for details of linear ionic constraints

                         Number of cell constraints= 0
                         Cell constraints are:  1 2 3 4 5 6

                         External pressure/stress (GPa)
                        150.00000   0.00000   0.00000
                                  150.00000   0.00000
                                            150.00000
  
+---------------- MEMORY AND SCRATCH DISK ESTIMATES PER PROCESS --------------+
|                                                     Memory          Disk    |
| Baseline code, static data and system overhead      411.0 MB         0.0 MB |
| BLAS internal memory storage                          0.0 MB         0.0 MB |
| Model and support data                               76.3 MB         0.0 MB |
| Electronic energy minimisation requirements          66.8 MB         0.0 MB |
| Force calculation requirements                        7.9 MB         0.0 MB |
| Stress calculation requirements                      10.0 MB         0.0 MB |
|                                               ----------------------------- |
| Approx. total storage required per process          554.1 MB         0.0 MB |
|                                                                             |
| Requirements will fluctuate during execution and may exceed these estimates |
+-----------------------------------------------------------------------------+
Calculating finite basis set correction with  3 cut-off energies.
Calculating total energy with cut-off of 1190.000 eV.
------------------------------------------------------------------------ <-- SCF
SCF loop      Energy                           Energy gain       Timer   <-- SCF
                                               per atom          (sec)   <-- SCF
------------------------------------------------------------------------ <-- SCF
Initial   5.72346024E+002                                          7.66  <-- SCF
      1  -2.95681898E+002                    3.61678301E+001      25.28  <-- SCF
      2  -3.53275748E+002                    2.39974375E+000      38.67  <-- SCF
      3  -3.52906890E+002                   -1.53690768E-002      55.91  <-- SCF
      4  -3.52880069E+002                   -1.11755667E-003      72.66  <-- SCF
      5  -3.52880634E+002                    2.35504852E-005      88.45  <-- SCF
      6  -3.52880680E+002                    1.93374830E-006     104.47  <-- SCF
      7  -3.52880680E+002                    2.04112199E-009     120.35  <-- SCF
      8  -3.52880680E+002                    2.60609645E-010     136.33  <-- SCF
      9  -3.52880680E+002                    6.67858036E-012     148.40  <-- SCF
     10  -3.52880680E+002                    4.55174657E-013     160.43  <-- SCF
------------------------------------------------------------------------ <-- SCF
 
Final energy =  -352.8806804190     eV
(energy not corrected for finite basis set)
 
Calculating total energy with cut-off of 1195.000 eV.
------------------------------------------------------------------------ <-- SCF
SCF loop      Energy                           Energy gain       Timer   <-- SCF
                                               per atom          (sec)   <-- SCF
------------------------------------------------------------------------ <-- SCF
Initial  -3.52880680E+002                                        165.24  <-- SCF
      1  -3.52880716E+002                    1.50035081E-006     180.44  <-- SCF
      2  -3.52880716E+002                    9.84869058E-013     191.84  <-- SCF
      3  -3.52880716E+002                    4.47893876E-010     203.14  <-- SCF
      4  -3.52880716E+002                    8.22335453E-012     214.13  <-- SCF
      5  -3.52880716E+002                    0.00000000E+000     225.14  <-- SCF
------------------------------------------------------------------------ <-- SCF
 
Final energy =  -352.8807164384     eV
(energy not corrected for finite basis set)
 
Calculating total energy with cut-off of 1200.000 eV.
------------------------------------------------------------------------ <-- SCF
SCF loop      Energy                           Energy gain       Timer   <-- SCF
                                               per atom          (sec)   <-- SCF
------------------------------------------------------------------------ <-- SCF
Initial  -3.52880716E+002                                        229.52  <-- SCF
      1  -3.52880753E+002                    1.52747959E-006     244.13  <-- SCF
      2  -3.52880753E+002                    1.18425973E-012     254.88  <-- SCF
      3  -3.52880753E+002                    4.54451614E-010     267.05  <-- SCF
      4  -3.52880753E+002                    7.85276985E-012     279.26  <-- SCF
      5  -3.52880753E+002                    2.41685658E-014     291.42  <-- SCF
------------------------------------------------------------------------ <-- SCF
 
Final energy =  -352.8807531090     eV
(energy not corrected for finite basis set)
 
 For future reference: finite basis dEtot/dlog(Ecut) =      -0.008718eV
 Total energy corrected for finite basis set =    -352.880753 eV
 
+---------------- MEMORY AND SCRATCH DISK ESTIMATES PER PROCESS --------------+
|                                                     Memory          Disk    |
| Model and support data                               84.1 MB         0.0 MB |
| Electronic energy minimisation requirements          66.8 MB         0.0 MB |
| Geometry minimisation requirements                   92.6 MB         0.0 MB |
|                                               ----------------------------- |
| Approx. total storage required per process          243.5 MB         0.0 MB |
|                                                                             |
| Requirements will fluctuate during execution and may exceed these estimates |
+-----------------------------------------------------------------------------+
 

 ************************************** Forces **************************************
 *                                                                                  *
 *                           Cartesian components (eV/A)                            *
 * -------------------------------------------------------------------------------- *
 *                         x                    y                    z              *
 *                                                                                  *
 * H               1     -0.00000              0.00000              0.00000         *
 * H               2      0.00000              0.00000             -0.00000         *
 * H               3     -0.00000             -0.00000              0.00000         *
 * H               4      0.00000             -0.00000             -0.00000         *
 * H               5     -0.00000              0.00000              0.00000         *
 * H               6      0.00000              0.00000              0.00000         *
 * H               7     -0.00000             -0.00000              0.00000         *
 * H               8      0.00000              0.00000             -0.00000         *
 * H               9      0.00000              0.00000              0.00000         *
 * H              10      0.00000             -0.00000             -0.00000         *
 * H              11     -0.00000              0.00000             -0.00000         *
 * H              12     -0.00000              0.00000             -0.00000         *
 * H              13      0.00000              0.00000              0.00000         *
 * H              14     -0.00000             -0.00000             -0.00000         *
 * H              15     -0.00000             -0.00000             -0.00000         *
 * H              16      0.00000              0.00000              0.00000         *
 * H              17     -0.00000             -0.00000             -0.00000         *
 * H              18     -0.00000             -0.00000             -0.00000         *
 * H              19      0.00000              0.00000             -0.00000         *
 * H              20     -0.00000             -0.00000              0.00000         *
 * H              21      0.00000              0.00000              0.00000         *
 * H              22      0.00000             -0.00000             -0.00000         *
 * H              23      0.00000              0.00000              0.00000         *
 * H              24      0.00000              0.00000              0.00000         *
 *                                                                                  *
 ************************************************************************************

 ***************** Stress Tensor *****************
 *                                               *
 *          Cartesian components (GPa)           *
 * --------------------------------------------- *
 *             x             y             z     *
 *                                               *
 *  x   -179.997633     -0.000000      0.000000  *
 *  y     -0.000000   -179.997639     -0.000001  *
 *  z      0.000000     -0.000001   -179.997643  *
 *                                               *
 *  Pressure:  179.9976                          *
 *                                               *
 *************************************************
 LBFGS: finished iteration     0 with enthalpy= -3.12658892E+002 eV
  
 +-----------+-----------------+-----------------+------------+-----+ <-- LBFGS
 | Parameter |      value      |    tolerance    |    units   | OK? | <-- LBFGS
 +-----------+-----------------+-----------------+------------+-----+ <-- LBFGS
 |  dE/ion   |   0.000000E+000 |   1.000000E-009 |         eV | No  | <-- LBFGS
 |  |F|max   |   1.777904E-006 |   1.000000E-005 |       eV/A | Yes | <-- LBFGS
 |  |dR|max  |   0.000000E+000 |   1.000000E-005 |          A | No  | <-- LBFGS
 |   Smax    |   2.999764E+001 |   1.000000E-005 |        GPa | No  | <-- LBFGS
 +-----------+-----------------+-----------------+------------+-----+ <-- LBFGS
  

================================================================================
 Starting LBFGS iteration          1 ...
================================================================================
  
 +------------+-------------+-------------+-----------------+ <-- min LBFGS
 |    Step    |   lambda    |   F.delta'  |    enthalpy     | <-- min LBFGS
 +------------+-------------+-------------+-----------------+ <-- min LBFGS
 |  previous  |    0.000000 |    0.511998 |     -312.658892 | <-- min LBFGS
 +------------+-------------+-------------+-----------------+ <-- min LBFGS
  

--------------------------------------------------------------------------------
 LBFGS: starting iteration         1 with trial guess (lambda=  1.000000)
--------------------------------------------------------------------------------
 
+---------------- MEMORY AND SCRATCH DISK ESTIMATES PER PROCESS --------------+
|                                                     Memory          Disk    |
| Model and support data                               86.8 MB         0.0 MB |
| Electronic energy minimisation requirements          70.4 MB         0.0 MB |
| Geometry minimisation requirements                   97.6 MB         0.0 MB |
|                                               ----------------------------- |
| Approx. total storage required per process          254.9 MB         0.0 MB |
|                                                                             |
| Requirements will fluctuate during execution and may exceed these estimates |
+-----------------------------------------------------------------------------+
 

                           -------------------------------
                                      Unit Cell
                           -------------------------------
        Real Lattice(A)              Reciprocal Lattice(1/A)
     2.8056406     0.0000000    -0.0000000        2.239483295  -0.000000000   0.000000000
     0.0000000     5.1998840     0.0000000       -0.000000000   1.208331814  -0.000000001
    -0.0000000     0.0000000     3.1250294        0.000000000  -0.000000002   2.010600397

                       Lattice parameters(A)       Cell Angles
                    a =      2.805641          alpha =   90.000000
                    b =      5.199884          beta  =   90.000000
                    c =      3.125029          gamma =   90.000000

                Current cell volume =            45.591072 A**3

                           -------------------------------
                                     Cell Contents
                           -------------------------------

            xxxxxxxxxxxxxxxxxxxxxxxxxxxxxxxxxxxxxxxxxxxxxxxxxxxxxxxxxxxxxxxxx
            x  Element         Atom        Fractional coordinates of atoms  x
            x                 Number           u          v          w      x
            x---------------------------------------------------------------x
            x  H                 1        -0.000000   0.000726   0.124886   x
            x  H                 2        -0.000000   0.133068   0.455219   x
            x  H                 3         0.000000   0.257687   0.323338   x
            x  H                 4         0.500000   0.257687   0.176662   x
            x  H                 5         0.500000   0.133068   0.044781   x
            x  H                 6         0.500000   0.000726   0.375114   x
            x  H                 7         0.500000   0.242313   0.676662   x
            x  H                 8         0.500000   0.366932   0.544781   x
            x  H                 9         0.500000   0.499274   0.875114   x
            x  H                10         0.500000   0.742313   0.823338   x
            x  H                11         0.500000   0.866932   0.955219   x
            x  H                12         0.500000   0.999274   0.624886   x
            x  H                13         0.500000   0.757687   0.323338   x
            x  H                14         0.500000   0.633068   0.455219   x
            x  H                15         0.500000   0.500726   0.124886   x
            x  H                16        -0.000000   0.757687   0.176662   x
            x  H                17         0.000000   0.633068   0.044781   x
            x  H                18         0.000000   0.500726   0.375114   x
            x  H                19         0.000000   0.742313   0.676662   x
            x  H                20        -0.000000   0.866932   0.544781   x
            x  H                21         0.000000   0.999274   0.875114   x
            x  H                22         0.000000   0.242313   0.823338   x
            x  H                23        -0.000000   0.366932   0.955219   x
            x  H                24        -0.000000   0.499274   0.624886   x
            xxxxxxxxxxxxxxxxxxxxxxxxxxxxxxxxxxxxxxxxxxxxxxxxxxxxxxxxxxxxxxxxx


------------------------------------------------------------------------ <-- SCF
SCF loop      Energy                           Energy gain       Timer   <-- SCF
                                               per atom          (sec)   <-- SCF
------------------------------------------------------------------------ <-- SCF
Initial  -3.55516840E+002                                        324.74  <-- SCF
      1  -3.55590503E+002                    3.06930114E-003     341.68  <-- SCF
      2  -3.55590698E+002                    8.15416157E-006     360.61  <-- SCF
      3  -3.55589487E+002                   -5.04763159E-005     378.87  <-- SCF
      4  -3.55589470E+002                   -7.10024572E-007     397.30  <-- SCF
      5  -3.55589471E+002                    4.00567313E-008     415.59  <-- SCF
      6  -3.55589471E+002                    3.80831141E-009     433.50  <-- SCF
      7  -3.55589471E+002                    2.07124609E-011     445.13  <-- SCF
      8  -3.55589471E+002                    1.56290059E-012     457.77  <-- SCF
      9  -3.55589471E+002                    8.05618861E-014     470.48  <-- SCF
------------------------------------------------------------------------ <-- SCF
 
Final energy =  -355.5894710136     eV
(energy not corrected for finite basis set)
 

 ************************************** Forces **************************************
 *                                                                                  *
 *                           Cartesian components (eV/A)                            *
 * -------------------------------------------------------------------------------- *
 *                         x                    y                    z              *
 *                                                                                  *
 * H               1      0.00000              0.00332             -0.33913         *
 * H               2     -0.00000              0.29991             -0.19939         *
 * H               3     -0.00000             -0.29453              0.18313         *
 * H               4      0.00000             -0.29453             -0.18313         *
 * H               5     -0.00000              0.29991              0.19939         *
 * H               6      0.00000              0.00332              0.33913         *
 * H               7      0.00000              0.29454             -0.18313         *
 * H               8     -0.00000             -0.29992              0.19940         *
 * H               9     -0.00000             -0.00332              0.33913         *
 * H              10      0.00000              0.29454              0.18313         *
 * H              11      0.00000             -0.29991             -0.19939         *
 * H              12      0.00000             -0.00332             -0.33913         *
 * H              13      0.00000             -0.29453              0.18313         *
 * H              14     -0.00000              0.29991             -0.19939         *
 * H              15      0.00000              0.00332             -0.33913         *
 * H              16     -0.00000             -0.29454             -0.18313         *
 * H              17     -0.00000              0.29992              0.19939         *
 * H              18     -0.00000              0.00332              0.33913         *
 * H              19     -0.00000              0.29453             -0.18313         *
 * H              20      0.00000             -0.29991              0.19939         *
 * H              21     -0.00000             -0.00332              0.33913         *
 * H              22     -0.00000              0.29454              0.18313         *
 * H              23      0.00000             -0.29992             -0.19939         *
 * H              24      0.00000             -0.00332             -0.33913         *
 *                                                                                  *
 ************************************************************************************

 ***************** Stress Tensor *****************
 *                                               *
 *          Cartesian components (GPa)           *
 * --------------------------------------------- *
 *             x             y             z     *
 *                                               *
 *  x   -155.928998     -0.000000     -0.000000  *
 *  y     -0.000000   -148.969311      0.000007  *
 *  z     -0.000000      0.000007   -148.241315  *
 *                                               *
 *  Pressure:  151.0465                          *
 *                                               *
 *************************************************
  
 +------------+-------------+-------------+-----------------+ <-- min LBFGS
 |    Step    |   lambda    |   F.delta'  |    enthalpy     | <-- min LBFGS
 +------------+-------------+-------------+-----------------+ <-- min LBFGS
 |  previous  |    0.000000 |    0.511998 |     -312.658892 | <-- min LBFGS
 | trial step |    1.000000 |    0.018584 |     -312.905907 | <-- min LBFGS
 +------------+-------------+-------------+-----------------+ <-- min LBFGS
  
 LBFGS: finished iteration     1 with enthalpy= -3.12905907E+002 eV
  
 +-----------+-----------------+-----------------+------------+-----+ <-- LBFGS
 | Parameter |      value      |    tolerance    |    units   | OK? | <-- LBFGS
 +-----------+-----------------+-----------------+------------+-----+ <-- LBFGS
 |  dE/ion   |   1.029229E-002 |   1.000000E-009 |         eV | No  | <-- LBFGS
 |  |F|max   |   3.601542E-001 |   1.000000E-005 |       eV/A | No  | <-- LBFGS
 |  |dR|max  |   1.759075E-007 |   1.000000E-005 |          A | Yes | <-- LBFGS
 |   Smax    |   5.928998E+000 |   1.000000E-005 |        GPa | No  | <-- LBFGS
 +-----------+-----------------+-----------------+------------+-----+ <-- LBFGS
  

================================================================================
 Starting LBFGS iteration          2 ...
================================================================================
  
 +------------+-------------+-------------+-----------------+ <-- min LBFGS
 |    Step    |   lambda    |   F.delta'  |    enthalpy     | <-- min LBFGS
 +------------+-------------+-------------+-----------------+ <-- min LBFGS
 |  previous  |    0.000000 |    0.222506 |     -312.905907 | <-- min LBFGS
 +------------+-------------+-------------+-----------------+ <-- min LBFGS
  

--------------------------------------------------------------------------------
 LBFGS: starting iteration         2 with trial guess (lambda=  1.000000)
--------------------------------------------------------------------------------
 
+---------------- MEMORY AND SCRATCH DISK ESTIMATES PER PROCESS --------------+
|                                                     Memory          Disk    |
| Model and support data                               90.4 MB         0.0 MB |
| Electronic energy minimisation requirements          73.8 MB         0.0 MB |
| Geometry minimisation requirements                  102.3 MB         0.0 MB |
|                                               ----------------------------- |
| Approx. total storage required per process          266.5 MB         0.0 MB |
|                                                                             |
| Requirements will fluctuate during execution and may exceed these estimates |
+-----------------------------------------------------------------------------+
 

                           -------------------------------
                                      Unit Cell
                           -------------------------------
        Real Lattice(A)              Reciprocal Lattice(1/A)
     2.8544032     0.0000000    -0.0000000        2.201225606  -0.000000000   0.000000000
     0.0000000     5.2647232    -0.0000000       -0.000000000   1.193450263   0.000000004
    -0.0000000    -0.0000000     3.1623912        0.000000000   0.000000007   1.986846314

                       Lattice parameters(A)       Cell Angles
                    a =      2.854403          alpha =   90.000000
                    b =      5.264723          beta  =   90.000000
                    c =      3.162391          gamma =   90.000000

                Current cell volume =            47.523285 A**3

                           -------------------------------
                                     Cell Contents
                           -------------------------------

            xxxxxxxxxxxxxxxxxxxxxxxxxxxxxxxxxxxxxxxxxxxxxxxxxxxxxxxxxxxxxxxxx
            x  Element         Atom        Fractional coordinates of atoms  x
            x                 Number           u          v          w      x
            x---------------------------------------------------------------x
            x  H                 1        -0.000000   0.000793   0.113522   x
            x  H                 2        -0.000000   0.139108   0.448537   x
            x  H                 3         0.000000   0.251755   0.329474   x
            x  H                 4         0.500000   0.251755   0.170526   x
            x  H                 5         0.500000   0.139108   0.051463   x
            x  H                 6         0.500000   0.000793   0.386478   x
            x  H                 7         0.500000   0.248245   0.670525   x
            x  H                 8         0.500000   0.360892   0.551463   x
            x  H                 9         0.500000   0.499207   0.886478   x
            x  H                10         0.500000   0.748245   0.829474   x
            x  H                11         0.500000   0.860892   0.948537   x
            x  H                12         0.500000   0.999207   0.613522   x
            x  H                13         0.500000   0.751755   0.329474   x
            x  H                14         0.500000   0.639108   0.448537   x
            x  H                15         0.500000   0.500793   0.113522   x
            x  H                16        -0.000000   0.751755   0.170526   x
            x  H                17        -0.000000   0.639108   0.051463   x
            x  H                18        -0.000000   0.500793   0.386478   x
            x  H                19         0.000000   0.748245   0.670526   x
            x  H                20        -0.000000   0.860892   0.551463   x
            x  H                21         0.000000   0.999207   0.886478   x
            x  H                22         0.000000   0.248245   0.829474   x
            x  H                23        -0.000000   0.360892   0.948537   x
            x  H                24         0.000000   0.499207   0.613522   x
            xxxxxxxxxxxxxxxxxxxxxxxxxxxxxxxxxxxxxxxxxxxxxxxxxxxxxxxxxxxxxxxxx


------------------------------------------------------------------------ <-- SCF
SCF loop      Energy                           Energy gain       Timer   <-- SCF
                                               per atom          (sec)   <-- SCF
------------------------------------------------------------------------ <-- SCF
Initial  -3.54045870E+002                                        507.13  <-- SCF
      1  -3.57439200E+002                    1.41388744E-001     524.50  <-- SCF
      2  -3.57454009E+002                    6.17055189E-004     543.33  <-- SCF
      3  -3.57029322E+002                   -1.76953125E-002     561.63  <-- SCF
      4  -3.57014635E+002                   -6.11956851E-004     579.47  <-- SCF
      5  -3.57014645E+002                    4.06804491E-007     596.23  <-- SCF
      6  -3.57014647E+002                    1.00631437E-007     614.92  <-- SCF
      7  -3.57014647E+002                    2.12866255E-009     634.21  <-- SCF
      8  -3.57014647E+002                    2.85648280E-010     652.27  <-- SCF
      9  -3.57014647E+002                    2.83175030E-012     665.17  <-- SCF
     10  -3.57014647E+002                    1.40983301E-014     677.82  <-- SCF
------------------------------------------------------------------------ <-- SCF
 
Final energy =  -357.0146471733     eV
(energy not corrected for finite basis set)
 

 ************************************** Forces **************************************
 *                                                                                  *
 *                           Cartesian components (eV/A)                            *
 * -------------------------------------------------------------------------------- *
 *                         x                    y                    z              *
 *                                                                                  *
 * H               1     -0.00000             -0.00798              1.18659         *
 * H               2     -0.00000             -1.41553              0.90287         *
 * H               3     -0.00000              1.20280             -0.74718         *
 * H               4     -0.00000              1.20282              0.74719         *
 * H               5      0.00000             -1.41554             -0.90288         *
 * H               6     -0.00000             -0.00798             -1.18658         *
 * H               7     -0.00000             -1.20288              0.74723         *
 * H               8      0.00000              1.41561             -0.90292         *
 * H               9      0.00000              0.00799             -1.18658         *
 * H              10     -0.00000             -1.20284             -0.74720         *
 * H              11      0.00000              1.41557              0.90289         *
 * H              12      0.00000              0.00799              1.18658         *
 * H              13     -0.00000              1.20284             -0.74720         *
 * H              14     -0.00000             -1.41557              0.90289         *
 * H              15     -0.00000             -0.00799              1.18658         *
 * H              16      0.00000              1.20285              0.74721         *
 * H              17     -0.00000             -1.41558             -0.90290         *
 * H              18     -0.00000             -0.00799             -1.18659         *
 * H              19     -0.00000             -1.20282              0.74719         *
 * H              20      0.00000              1.41555             -0.90288         *
 * H              21     -0.00000              0.00799             -1.18659         *
 * H              22     -0.00000             -1.20286             -0.74721         *
 * H              23      0.00000              1.41558              0.90290         *
 * H              24      0.00000              0.00799              1.18659         *
 *                                                                                  *
 ************************************************************************************

 ***************** Stress Tensor *****************
 *                                               *
 *          Cartesian components (GPa)           *
 * --------------------------------------------- *
 *             x             y             z     *
 *                                               *
 *  x   -136.791159     -0.000000     -0.000000  *
 *  y     -0.000000   -163.775612     -0.000040  *
 *  z     -0.000000     -0.000040   -161.050648  *
 *                                               *
 *  Pressure:  153.8725                          *
 *                                               *
 *************************************************
  
 +------------+-------------+-------------+-----------------+ <-- min LBFGS
 |    Step    |   lambda    |   F.delta'  |    enthalpy     | <-- min LBFGS
 +------------+-------------+-------------+-----------------+ <-- min LBFGS
 |  previous  |    0.000000 |    0.222506 |     -312.905907 | <-- min LBFGS
 | trial step |    1.000000 |   -0.853372 |     -312.522095 | <-- min LBFGS
 +------------+-------------+-------------+-----------------+ <-- min LBFGS
  

--------------------------------------------------------------------------------
 LBFGS: improving iteration         2 with line minimization (lambda=  0.206814)
--------------------------------------------------------------------------------

                           -------------------------------
                                      Unit Cell
                           -------------------------------
        Real Lattice(A)              Reciprocal Lattice(1/A)
     2.8157254     0.0000000    -0.0000000        2.231462399  -0.000000000   0.000000000
     0.0000000     5.2132937     0.0000000       -0.000000000   1.205223745  -0.000000000
    -0.0000000     0.0000000     3.1327563        0.000000000  -0.000000000   2.005641257

                       Lattice parameters(A)       Cell Angles
                    a =      2.815725          alpha =   90.000000
                    b =      5.213294          beta  =   90.000000
                    c =      3.132756          gamma =   90.000000

                Current cell volume =            45.986367 A**3

                           -------------------------------
                                     Cell Contents
                           -------------------------------

            xxxxxxxxxxxxxxxxxxxxxxxxxxxxxxxxxxxxxxxxxxxxxxxxxxxxxxxxxxxxxxxxx
            x  Element         Atom        Fractional coordinates of atoms  x
            x                 Number           u          v          w      x
            x---------------------------------------------------------------x
            x  H                 1        -0.000000   0.000740   0.122536   x
            x  H                 2        -0.000000   0.134317   0.453837   x
            x  H                 3         0.000000   0.256460   0.324607   x
            x  H                 4         0.500000   0.256460   0.175393   x
            x  H                 5         0.500000   0.134317   0.046163   x
            x  H                 6         0.500000   0.000740   0.377464   x
            x  H                 7         0.500000   0.243540   0.675393   x
            x  H                 8         0.500000   0.365683   0.546163   x
            x  H                 9         0.500000   0.499260   0.877464   x
            x  H                10         0.500000   0.743540   0.824607   x
            x  H                11         0.500000   0.865683   0.953837   x
            x  H                12         0.500000   0.999260   0.622536   x
            x  H                13         0.500000   0.756460   0.324607   x
            x  H                14         0.500000   0.634317   0.453837   x
            x  H                15         0.500000   0.500740   0.122536   x
            x  H                16        -0.000000   0.756460   0.175393   x
            x  H                17         0.000000   0.634317   0.046163   x
            x  H                18         0.000000   0.500740   0.377464   x
            x  H                19         0.000000   0.743540   0.675393   x
            x  H                20        -0.000000   0.865683   0.546163   x
            x  H                21         0.000000   0.999260   0.877464   x
            x  H                22         0.000000   0.243540   0.824607   x
            x  H                23        -0.000000   0.365683   0.953837   x
            x  H                24        -0.000000   0.499260   0.622536   x
            xxxxxxxxxxxxxxxxxxxxxxxxxxxxxxxxxxxxxxxxxxxxxxxxxxxxxxxxxxxxxxxxx


------------------------------------------------------------------------ <-- SCF
SCF loop      Energy                           Energy gain       Timer   <-- SCF
                                               per atom          (sec)   <-- SCF
------------------------------------------------------------------------ <-- SCF
Initial  -3.54043319E+002                                        715.17  <-- SCF
      1  -3.56275823E+002                    9.30210014E-002     731.79  <-- SCF
      2  -3.56285549E+002                    4.05255459E-004     750.36  <-- SCF
      3  -3.56009811E+002                   -1.14890846E-002     768.29  <-- SCF
      4  -3.56001266E+002                   -3.56033995E-004     786.33  <-- SCF
      5  -3.56001258E+002                   -3.60774990E-007     804.15  <-- SCF
      6  -3.56001258E+002                    3.04818786E-008     821.90  <-- SCF
      7  -3.56001258E+002                    1.32511413E-009     839.75  <-- SCF
      8  -3.56001258E+002                    9.72402106E-011     852.29  <-- SCF
      9  -3.56001258E+002                    6.56579372E-013     864.97  <-- SCF
     10  -3.56001258E+002                   -1.24870923E-013     877.64  <-- SCF
------------------------------------------------------------------------ <-- SCF
 
Final energy =  -356.0012582868     eV
(energy not corrected for finite basis set)
 

 ************************************** Forces **************************************
 *                                                                                  *
 *                           Cartesian components (eV/A)                            *
 * -------------------------------------------------------------------------------- *
 *                         x                    y                    z              *
 *                                                                                  *
 * H               1      0.00000             -0.00094             -0.10088         *
 * H               2     -0.00000              0.01876             -0.02081         *
 * H               3     -0.00000             -0.06348              0.03936         *
 * H               4      0.00000             -0.06348             -0.03936         *
 * H               5      0.00000              0.01876              0.02081         *
 * H               6      0.00000             -0.00094              0.10088         *
 * H               7      0.00000              0.06348             -0.03936         *
 * H               8     -0.00000             -0.01876              0.02081         *
 * H               9     -0.00000              0.00094              0.10088         *
 * H              10      0.00000              0.06348              0.03936         *
 * H              11      0.00000             -0.01876             -0.02081         *
 * H              12      0.00000              0.00094             -0.10088         *
 * H              13     -0.00000             -0.06348              0.03936         *
 * H              14      0.00000              0.01876             -0.02081         *
 * H              15      0.00000             -0.00094             -0.10088         *
 * H              16     -0.00000             -0.06348             -0.03936         *
 * H              17     -0.00000              0.01876              0.02081         *
 * H              18     -0.00000             -0.00094              0.10088         *
 * H              19     -0.00000              0.06348             -0.03936         *
 * H              20      0.00000             -0.01876              0.02081         *
 * H              21     -0.00000              0.00094              0.10088         *
 * H              22     -0.00000              0.06348              0.03936         *
 * H              23      0.00000             -0.01876             -0.02081         *
 * H              24      0.00000              0.00094             -0.10088         *
 *                                                                                  *
 ************************************************************************************

 ***************** Stress Tensor *****************
 *                                               *
 *          Cartesian components (GPa)           *
 * --------------------------------------------- *
 *             x             y             z     *
 *                                               *
 *  x   -151.841019      0.000000     -0.000000  *
 *  y      0.000000   -151.224589     -0.000001  *
 *  z     -0.000000     -0.000001   -150.081056  *
 *                                               *
 *  Pressure:  151.0489                          *
 *                                               *
 *************************************************
  
 +------------+-------------+-------------+-----------------+ <-- min LBFGS
 |    Step    |   lambda    |   F.delta'  |    enthalpy     | <-- min LBFGS
 +------------+-------------+-------------+-----------------+ <-- min LBFGS
 |  previous  |    0.000000 |    0.222506 |     -312.905907 | <-- min LBFGS
 | trial step |    1.000000 |   -0.853372 |     -312.522095 | <-- min LBFGS
 |  line step |    0.206814 |    0.049561 |     -312.947609 | <-- min LBFGS
 +------------+-------------+-------------+-----------------+ <-- min LBFGS
  
 LBFGS: finished iteration     2 with enthalpy= -3.12947609E+002 eV
  
 +-----------+-----------------+-----------------+------------+-----+ <-- LBFGS
 | Parameter |      value      |    tolerance    |    units   | OK? | <-- LBFGS
 +-----------+-----------------+-----------------+------------+-----+ <-- LBFGS
 |  dE/ion   |   1.737606E-003 |   1.000000E-009 |         eV | No  | <-- LBFGS
 |  |F|max   |   1.008880E-001 |   1.000000E-005 |       eV/A | No  | <-- LBFGS
 |  |dR|max  |   7.819928E-003 |   1.000000E-005 |          A | No  | <-- LBFGS
 |   Smax    |   1.841019E+000 |   1.000000E-005 |        GPa | No  | <-- LBFGS
 +-----------+-----------------+-----------------+------------+-----+ <-- LBFGS
  

================================================================================
 Starting LBFGS iteration          3 ...
================================================================================
  
 +------------+-------------+-------------+-----------------+ <-- min LBFGS
 |    Step    |   lambda    |   F.delta'  |    enthalpy     | <-- min LBFGS
 +------------+-------------+-------------+-----------------+ <-- min LBFGS
 |  previous  |    0.000000 |    0.043654 |     -312.947609 | <-- min LBFGS
 +------------+-------------+-------------+-----------------+ <-- min LBFGS
  

--------------------------------------------------------------------------------
 LBFGS: starting iteration         3 with trial guess (lambda=  1.000000)
--------------------------------------------------------------------------------

                           -------------------------------
                                      Unit Cell
                           -------------------------------
        Real Lattice(A)              Reciprocal Lattice(1/A)
     2.8210327    -0.0000000    -0.0000000        2.227264274   0.000000000   0.000000000
    -0.0000000     5.2245205     0.0000000        0.000000000   1.202633871  -0.000000002
    -0.0000000     0.0000000     3.1366223        0.000000000  -0.000000004   2.003169254

                       Lattice parameters(A)       Cell Angles
                    a =      2.821033          alpha =   90.000000
                    b =      5.224520          beta  =   90.000000
                    c =      3.136622          gamma =   90.000000

                Current cell volume =            46.229242 A**3

                           -------------------------------
                                     Cell Contents
                           -------------------------------

            xxxxxxxxxxxxxxxxxxxxxxxxxxxxxxxxxxxxxxxxxxxxxxxxxxxxxxxxxxxxxxxxx
            x  Element         Atom        Fractional coordinates of atoms  x
            x                 Number           u          v          w      x
            x---------------------------------------------------------------x
            x  H                 1        -0.000000   0.000705   0.120205   x
            x  H                 2        -0.000000   0.133792   0.454070   x
            x  H                 3         0.000000   0.255848   0.325236   x
            x  H                 4         0.500000   0.255848   0.174764   x
            x  H                 5         0.500000   0.133792   0.045930   x
            x  H                 6         0.500000   0.000705   0.379795   x
            x  H                 7         0.500000   0.244152   0.674764   x
            x  H                 8         0.500000   0.366208   0.545930   x
            x  H                 9         0.500000   0.499295   0.879795   x
            x  H                10         0.500000   0.744152   0.825236   x
            x  H                11         0.500000   0.866208   0.954070   x
            x  H                12         0.500000   0.999295   0.620205   x
            x  H                13         0.500000   0.755848   0.325236   x
            x  H                14         0.500000   0.633792   0.454070   x
            x  H                15         0.500000   0.500705   0.120205   x
            x  H                16        -0.000000   0.755848   0.174764   x
            x  H                17         0.000000   0.633792   0.045930   x
            x  H                18         0.000000   0.500705   0.379795   x
            x  H                19         0.000000   0.744152   0.674764   x
            x  H                20        -0.000000   0.866208   0.545930   x
            x  H                21         0.000000   0.999295   0.879795   x
            x  H                22         0.000000   0.244152   0.825236   x
            x  H                23        -0.000000   0.366208   0.954070   x
            x  H                24        -0.000000   0.499295   0.620205   x
            xxxxxxxxxxxxxxxxxxxxxxxxxxxxxxxxxxxxxxxxxxxxxxxxxxxxxxxxxxxxxxxxx


------------------------------------------------------------------------ <-- SCF
SCF loop      Energy                           Energy gain       Timer   <-- SCF
                                               per atom          (sec)   <-- SCF
------------------------------------------------------------------------ <-- SCF
Initial  -3.56187157E+002                                        914.26  <-- SCF
      1  -3.56230804E+002                    1.81863925E-003     930.79  <-- SCF
      2  -3.56230962E+002                    6.59513367E-006     948.01  <-- SCF
      3  -3.56226722E+002                   -1.76693474E-004     965.48  <-- SCF
      4  -3.56226651E+002                   -2.95999717E-006     982.67  <-- SCF
      5  -3.56226651E+002                   -1.80922057E-009     998.81  <-- SCF
      6  -3.56226651E+002                    9.04421972E-010    1013.91  <-- SCF
      7  -3.56226651E+002                    4.85667330E-011    1024.55  <-- SCF
      8  -3.56226651E+002                    1.56491464E-012    1035.79  <-- SCF
      9  -3.56226651E+002                    1.20842829E-014    1046.40  <-- SCF
------------------------------------------------------------------------ <-- SCF
 
Final energy =  -356.2266506488     eV
(energy not corrected for finite basis set)
 

 ************************************** Forces **************************************
 *                                                                                  *
 *                           Cartesian components (eV/A)                            *
 * -------------------------------------------------------------------------------- *
 *                         x                    y                    z              *
 *                                                                                  *
 * H               1     -0.00000              0.00706              0.26327         *
 * H               2      0.00000              0.07729             -0.03814         *
 * H               3     -0.00000             -0.11551              0.05680         *
 * H               4     -0.00000             -0.11551             -0.05680         *
 * H               5     -0.00000              0.07729              0.03815         *
 * H               6      0.00000              0.00706             -0.26327         *
 * H               7      0.00000              0.11553             -0.05681         *
 * H               8     -0.00000             -0.07731              0.03815         *
 * H               9     -0.00000             -0.00706             -0.26327         *
 * H              10      0.00000              0.11552              0.05681         *
 * H              11     -0.00000             -0.07730             -0.03815         *
 * H              12      0.00000             -0.00706              0.26327         *
 * H              13     -0.00000             -0.11552              0.05681         *
 * H              14     -0.00000              0.07730             -0.03815         *
 * H              15      0.00000              0.00706              0.26327         *
 * H              16      0.00000             -0.11552             -0.05681         *
 * H              17      0.00000              0.07730              0.03815         *
 * H              18     -0.00000              0.00706             -0.26327         *
 * H              19     -0.00000              0.11551             -0.05680         *
 * H              20      0.00000             -0.07729              0.03814         *
 * H              21     -0.00000             -0.00706             -0.26327         *
 * H              22     -0.00000              0.11552              0.05681         *
 * H              23      0.00000             -0.07731             -0.03815         *
 * H              24      0.00000             -0.00706              0.26327         *
 *                                                                                  *
 ************************************************************************************

 ***************** Stress Tensor *****************
 *                                               *
 *          Cartesian components (GPa)           *
 * --------------------------------------------- *
 *             x             y             z     *
 *                                               *
 *  x   -150.028850     -0.000000     -0.000000  *
 *  y     -0.000000   -148.330428      0.000015  *
 *  z     -0.000000      0.000015   -152.071975  *
 *                                               *
 *  Pressure:  150.1438                          *
 *                                               *
 *************************************************
  
 +------------+-------------+-------------+-----------------+ <-- min LBFGS
 |    Step    |   lambda    |   F.delta'  |    enthalpy     | <-- min LBFGS
 +------------+-------------+-------------+-----------------+ <-- min LBFGS
 |  previous  |    0.000000 |    0.043654 |     -312.947609 | <-- min LBFGS
 | trial step |    1.000000 |   -0.063969 |     -312.945615 | <-- min LBFGS
 +------------+-------------+-------------+-----------------+ <-- min LBFGS
  

--------------------------------------------------------------------------------
 LBFGS: improving iteration         3 with line minimization (lambda=  0.405621)
--------------------------------------------------------------------------------

                           -------------------------------
                                      Unit Cell
                           -------------------------------
        Real Lattice(A)              Reciprocal Lattice(1/A)
     2.8178781    -0.0000000    -0.0000000        2.229757645   0.000000000   0.000000000
    -0.0000000     5.2178475     0.0000000        0.000000000   1.204171894  -0.000000001
    -0.0000000     0.0000000     3.1343244        0.000000000  -0.000000002   2.004637826

                       Lattice parameters(A)       Cell Angles
                    a =      2.817878          alpha =   90.000000
                    b =      5.217847          beta  =   90.000000
                    c =      3.134324          gamma =   90.000000

                Current cell volume =            46.084782 A**3

                           -------------------------------
                                     Cell Contents
                           -------------------------------

            xxxxxxxxxxxxxxxxxxxxxxxxxxxxxxxxxxxxxxxxxxxxxxxxxxxxxxxxxxxxxxxxx
            x  Element         Atom        Fractional coordinates of atoms  x
            x                 Number           u          v          w      x
            x---------------------------------------------------------------x
            x  H                 1        -0.000000   0.000726   0.121590   x
            x  H                 2        -0.000000   0.134104   0.453931   x
            x  H                 3         0.000000   0.256212   0.324862   x
            x  H                 4         0.500000   0.256212   0.175138   x
            x  H                 5         0.500000   0.134104   0.046069   x
            x  H                 6         0.500000   0.000726   0.378410   x
            x  H                 7         0.500000   0.243788   0.675138   x
            x  H                 8         0.500000   0.365896   0.546069   x
            x  H                 9         0.500000   0.499274   0.878410   x
            x  H                10         0.500000   0.743788   0.824862   x
            x  H                11         0.500000   0.865896   0.953931   x
            x  H                12         0.500000   0.999274   0.621590   x
            x  H                13         0.500000   0.756212   0.324862   x
            x  H                14         0.500000   0.634104   0.453931   x
            x  H                15         0.500000   0.500726   0.121590   x
            x  H                16        -0.000000   0.756212   0.175138   x
            x  H                17         0.000000   0.634104   0.046069   x
            x  H                18         0.000000   0.500726   0.378410   x
            x  H                19         0.000000   0.743788   0.675138   x
            x  H                20        -0.000000   0.865896   0.546069   x
            x  H                21         0.000000   0.999274   0.878410   x
            x  H                22         0.000000   0.243788   0.824862   x
            x  H                23        -0.000000   0.365896   0.953931   x
            x  H                24        -0.000000   0.499274   0.621590   x
            xxxxxxxxxxxxxxxxxxxxxxxxxxxxxxxxxxxxxxxxxxxxxxxxxxxxxxxxxxxxxxxxx


------------------------------------------------------------------------ <-- SCF
SCF loop      Energy                           Energy gain       Timer   <-- SCF
                                               per atom          (sec)   <-- SCF
------------------------------------------------------------------------ <-- SCF
Initial  -3.56081307E+002                                       1082.26  <-- SCF
      1  -3.56096851E+002                    6.47646987E-004    1098.53  <-- SCF
      2  -3.56096908E+002                    2.39458392E-006    1114.99  <-- SCF
      3  -3.56095393E+002                   -6.31301984E-005    1130.79  <-- SCF
      4  -3.56095368E+002                   -1.04192153E-006    1146.92  <-- SCF
      5  -3.56095368E+002                   -1.18419326E-009    1164.01  <-- SCF
      6  -3.56095368E+002                    2.94822264E-010    1177.72  <-- SCF
      7  -3.56095368E+002                    1.73590724E-011    1189.50  <-- SCF
      8  -3.56095368E+002                    5.23652260E-013    1201.72  <-- SCF
      9  -3.56095368E+002                    4.02809431E-015    1213.82  <-- SCF
------------------------------------------------------------------------ <-- SCF
 
Final energy =  -356.0953682515     eV
(energy not corrected for finite basis set)
 

 ************************************** Forces **************************************
 *                                                                                  *
 *                           Cartesian components (eV/A)                            *
 * -------------------------------------------------------------------------------- *
 *                         x                    y                    z              *
 *                                                                                  *
 * H               1      0.00000              0.00230              0.04197         *
 * H               2     -0.00000              0.04259             -0.02787         *
 * H               3     -0.00000             -0.08468              0.04640         *
 * H               4     -0.00000             -0.08468             -0.04640         *
 * H               5     -0.00000              0.04259              0.02787         *
 * H               6      0.00000              0.00230             -0.04197         *
 * H               7      0.00000              0.08469             -0.04640         *
 * H               8     -0.00000             -0.04259              0.02787         *
 * H               9     -0.00000             -0.00230             -0.04197         *
 * H              10      0.00000              0.08468              0.04640         *
 * H              11      0.00000             -0.04259             -0.02787         *
 * H              12      0.00000             -0.00230              0.04197         *
 * H              13      0.00000             -0.08468              0.04640         *
 * H              14     -0.00000              0.04259             -0.02787         *
 * H              15      0.00000              0.00230              0.04197         *
 * H              16      0.00000             -0.08468             -0.04640         *
 * H              17     -0.00000              0.04259              0.02787         *
 * H              18     -0.00000              0.00230             -0.04197         *
 * H              19     -0.00000              0.08468             -0.04640         *
 * H              20      0.00000             -0.04259              0.02787         *
 * H              21     -0.00000             -0.00230             -0.04197         *
 * H              22     -0.00000              0.08468              0.04640         *
 * H              23      0.00000             -0.04259             -0.02787         *
 * H              24      0.00000             -0.00230              0.04197         *
 *                                                                                  *
 ************************************************************************************

 ***************** Stress Tensor *****************
 *                                               *
 *          Cartesian components (GPa)           *
 * --------------------------------------------- *
 *             x             y             z     *
 *                                               *
 *  x   -151.102771     -0.000000     -0.000000  *
 *  y     -0.000000   -150.045863      0.000006  *
 *  z     -0.000000      0.000006   -150.858233  *
 *                                               *
 *  Pressure:  150.6690                          *
 *                                               *
 *************************************************
  
 +------------+-------------+-------------+-----------------+ <-- min LBFGS
 |    Step    |   lambda    |   F.delta'  |    enthalpy     | <-- min LBFGS
 +------------+-------------+-------------+-----------------+ <-- min LBFGS
 |  previous  |    0.000000 |    0.043654 |     -312.947609 | <-- min LBFGS
 | trial step |    1.000000 |   -0.063969 |     -312.945615 | <-- min LBFGS
 |  line step |    0.405621 |    0.001282 |     -312.949581 | <-- min LBFGS
 +------------+-------------+-------------+-----------------+ <-- min LBFGS
  
 LBFGS: finished iteration     3 with enthalpy= -3.12949581E+002 eV
  
 +-----------+-----------------+-----------------+------------+-----+ <-- LBFGS
 | Parameter |      value      |    tolerance    |    units   | OK? | <-- LBFGS
 +-----------+-----------------+-----------------+------------+-----+ <-- LBFGS
 |  dE/ion   |   8.215032E-005 |   1.000000E-009 |         eV | No  | <-- LBFGS
 |  |F|max   |   9.656420E-002 |   1.000000E-005 |       eV/A | No  | <-- LBFGS
 |  |dR|max  |   2.964827E-003 |   1.000000E-005 |          A | No  | <-- LBFGS
 |   Smax    |   1.102771E+000 |   1.000000E-005 |        GPa | No  | <-- LBFGS
 +-----------+-----------------+-----------------+------------+-----+ <-- LBFGS
  

================================================================================
 Starting LBFGS iteration          4 ...
================================================================================
  
 +------------+-------------+-------------+-----------------+ <-- min LBFGS
 |    Step    |   lambda    |   F.delta'  |    enthalpy     | <-- min LBFGS
 +------------+-------------+-------------+-----------------+ <-- min LBFGS
 |  previous  |    0.000000 |    0.040460 |     -312.949581 | <-- min LBFGS
 +------------+-------------+-------------+-----------------+ <-- min LBFGS
  

--------------------------------------------------------------------------------
 LBFGS: starting iteration         4 with trial guess (lambda=  1.000000)
--------------------------------------------------------------------------------

                           -------------------------------
                                      Unit Cell
                           -------------------------------
        Real Lattice(A)              Reciprocal Lattice(1/A)
     2.8256201    -0.0000000    -0.0000000        2.223648329   0.000000000   0.000000000
    -0.0000000     5.2320608    -0.0000000        0.000000000   1.200900661   0.000000001
    -0.0000000    -0.0000000     3.1415659        0.000000000   0.000000002   2.000017010

                       Lattice parameters(A)       Cell Angles
                    a =      2.825620          alpha =   90.000000
                    b =      5.232061          beta  =   90.000000
                    c =      3.141566          gamma =   90.000000

                Current cell volume =            46.444333 A**3

                           -------------------------------
                                     Cell Contents
                           -------------------------------

            xxxxxxxxxxxxxxxxxxxxxxxxxxxxxxxxxxxxxxxxxxxxxxxxxxxxxxxxxxxxxxxxx
            x  Element         Atom        Fractional coordinates of atoms  x
            x                 Number           u          v          w      x
            x---------------------------------------------------------------x
            x  H                 1        -0.000000   0.000728   0.121348   x
            x  H                 2        -0.000000   0.133855   0.453833   x
            x  H                 3         0.000000   0.254332   0.326592   x
            x  H                 4         0.500000   0.254332   0.173408   x
            x  H                 5         0.500000   0.133855   0.046167   x
            x  H                 6         0.500000   0.000728   0.378652   x
            x  H                 7         0.500000   0.245668   0.673408   x
            x  H                 8         0.500000   0.366145   0.546167   x
            x  H                 9         0.500000   0.499272   0.878652   x
            x  H                10         0.500000   0.745668   0.826592   x
            x  H                11         0.500000   0.866145   0.953833   x
            x  H                12         0.500000   0.999272   0.621348   x
            x  H                13         0.500000   0.754332   0.326592   x
            x  H                14         0.500000   0.633855   0.453833   x
            x  H                15         0.500000   0.500728   0.121348   x
            x  H                16        -0.000000   0.754332   0.173408   x
            x  H                17        -0.000000   0.633855   0.046167   x
            x  H                18         0.000000   0.500728   0.378652   x
            x  H                19        -0.000000   0.745668   0.673408   x
            x  H                20        -0.000000   0.866145   0.546167   x
            x  H                21         0.000000   0.999272   0.878652   x
            x  H                22        -0.000000   0.245668   0.826592   x
            x  H                23        -0.000000   0.366145   0.953833   x
            x  H                24         0.000000   0.499272   0.621348   x
            xxxxxxxxxxxxxxxxxxxxxxxxxxxxxxxxxxxxxxxxxxxxxxxxxxxxxxxxxxxxxxxxx


------------------------------------------------------------------------ <-- SCF
[...]
      H     1      S                    1.000
      H     2      S                    1.026
      H     3      S                    0.974
      H     4      S                    0.974
      H     5      S                    1.026
      H     6      S                    1.000
      H     7      S                    0.974
      H     8      S                    1.026
      H     9      S                    1.000
      H    10      S                    0.974
      H    11      S                    1.026
      H    12      S                    1.000
      H    13      S                    0.974
      H    14      S                    1.026
      H    15      S                    1.000
      H    16      S                    0.974
      H    17      S                    1.026
      H    18      S                    1.000
      H    19      S                    0.974
      H    20      S                    1.026
      H    21      S                    1.000
      H    22      S                    0.974
      H    23      S                    1.026
      H    24      S                    1.000
  -------------------------------------------
                           Total:      24.000
  -------------------------------------------

     Atomic Populations (Mulliken)
     -----------------------------
Species          Ion     s      p      d      f     Total  Charge (e)
=====================================================================
  H               1     1.00   0.00   0.00   0.00   1.00     0.00
  H               2     1.03   0.00   0.00   0.00   1.03    -0.03
  H               3     0.97   0.00   0.00   0.00   0.97     0.03
  H               4     0.97   0.00   0.00   0.00   0.97     0.03
  H               5     1.03   0.00   0.00   0.00   1.03    -0.03
  H               6     1.00   0.00   0.00   0.00   1.00     0.00
  H               7     0.97   0.00   0.00   0.00   0.97     0.03
  H               8     1.03   0.00   0.00   0.00   1.03    -0.03
  H               9     1.00   0.00   0.00   0.00   1.00     0.00
  H              10     0.97   0.00   0.00   0.00   0.97     0.03
  H              11     1.03   0.00   0.00   0.00   1.03    -0.03
  H              12     1.00   0.00   0.00   0.00   1.00     0.00
  H              13     0.97   0.00   0.00   0.00   0.97     0.03
  H              14     1.03   0.00   0.00   0.00   1.03    -0.03
  H              15     1.00   0.00   0.00   0.00   1.00     0.00
  H              16     0.97   0.00   0.00   0.00   0.97     0.03
  H              17     1.03   0.00   0.00   0.00   1.03    -0.03
  H              18     1.00   0.00   0.00   0.00   1.00     0.00
  H              19     0.97   0.00   0.00   0.00   0.97     0.03
  H              20     1.03   0.00   0.00   0.00   1.03    -0.03
  H              21     1.00   0.00   0.00   0.00   1.00     0.00
  H              22     0.97   0.00   0.00   0.00   0.97     0.03
  H              23     1.03   0.00   0.00   0.00   1.03    -0.03
  H              24     1.00   0.00   0.00   0.00   1.00     0.00
=====================================================================

                 Bond                   Population      Length (A)
======================================================================
              H 13 -- H 14                   1.60        0.75118
              H 22 -- H 23                   1.60        0.75118
              H 4  -- H 5                    1.60        0.75118
              H 2  -- H 3                    1.60        0.75118
              H 16 -- H 17                   1.60        0.75118
              H 19 -- H 20                   1.60        0.75118
              H 7  -- H 8                    1.60        0.75118
              H 10 -- H 11                   1.60        0.75118
              H 6  -- H 12                   1.46        0.76206
              H 1  -- H 21                   1.46        0.76206
              H 9  -- H 15                   1.46        0.76206
              H 18 -- H 24                   1.46        0.76206
              H 17 -- H 18                   0.06        1.25875
              H 1  -- H 2                    0.06        1.25875
              H 8  -- H 9                    0.06        1.25875
              H 11 -- H 12                   0.06        1.25875
              H 23 -- H 24                   0.06        1.25875
              H 20 -- H 21                   0.06        1.25875
              H 14 -- H 15                   0.06        1.25875
              H 5  -- H 6                    0.06        1.25875
              H 4  -- H 15                   0.12        1.29599
              H 19 -- H 24                   0.12        1.29599
              H 6  -- H 13                   0.11        1.29599
              H 21 -- H 22                   0.12        1.29599
              H 1  -- H 16                   0.11        1.29599
              H 9  -- H 10                   0.12        1.29599
              H 7  -- H 12                   0.12        1.29599
              H 3  -- H 18                   0.12        1.29599
              H 5  -- H 7                   -0.11        1.30110
              H 16 -- H 20                  -0.11        1.30110
              H 3  -- H 23                  -0.11        1.30110
              H 10 -- H 14                  -0.11        1.30110
              H 17 -- H 19                  -0.11        1.30110
              H 4  -- H 8                   -0.11        1.30110
              H 2  -- H 22                  -0.11        1.30110
              H 11 -- H 13                  -0.11        1.30110
              H 2  -- H 20                  -0.04        1.42354
              H 5  -- H 11                  -0.04        1.42354
              H 17 -- H 23                  -0.04        1.42354
              H 8  -- H 14                  -0.04        1.42354
              H 16 -- H 18                  -0.09        1.47526
              H 10 -- H 12                  -0.09        1.47526
              H 1  -- H 3                   -0.09        1.47526
              H 22 -- H 24                  -0.09        1.47526
              H 4  -- H 6                   -0.09        1.47526
              H 7  -- H 9                   -0.09        1.47526
              H 13 -- H 15                  -0.09        1.47526
              H 19 -- H 21                  -0.09        1.47526
              H 3  -- H 4                    0.01        1.48890
              H 13 -- H 16                   0.01        1.48890
              H 10 -- H 19                   0.01        1.48890
              H 7  -- H 22                   0.01        1.48890
              H 1  -- H 20                  -0.21        1.49920
              H 6  -- H 11                  -0.21        1.49920
              H 8  -- H 15                  -0.21        1.49920
              H 18 -- H 23                  -0.21        1.49920
              H 17 -- H 24                  -0.21        1.49920
              H 2  -- H 21                  -0.21        1.49920
              H 5  -- H 12                  -0.21        1.49920
              H 9  -- H 14                  -0.21        1.49920
              H 16 -- H 19                  -0.26        1.56888
              H 10 -- H 13                  -0.26        1.56888
              H 3  -- H 22                  -0.26        1.56888
              H 4  -- H 7                   -0.26        1.56888
              H 12 -- H 13                  -0.17        1.58151
              H 18 -- H 19                  -0.17        1.58151
              H 3  -- H 24                  -0.17        1.58151
              H 6  -- H 7                   -0.17        1.58151
              H 4  -- H 9                   -0.17        1.58151
              H 1  -- H 22                  -0.17        1.58151
              H 16 -- H 21                  -0.17        1.58151
              H 10 -- H 15                  -0.17        1.58151
              H 12 -- H 20                  -0.13        1.59118
              H 11 -- H 21                  -0.13        1.59118
              H 8  -- H 24                  -0.13        1.59118
              H 2  -- H 6                   -0.13        1.59118
              H 9  -- H 23                  -0.13        1.59118
              H 14 -- H 18                  -0.13        1.59118
              H 15 -- H 17                  -0.13        1.59118
              H 1  -- H 5                   -0.13        1.59118
              H 15 -- H 18                  -0.16        1.62420
              H 1  -- H 6                   -0.16        1.62420
              H 9  -- H 24                  -0.16        1.62420
              H 12 -- H 21                  -0.16        1.62420
              H 1  -- H 11                  -0.13        1.65772
              H 6  -- H 20                  -0.13        1.65772
              H 9  -- H 17                  -0.13        1.65772
              H 5  -- H 21                  -0.13        1.65772
              H 2  -- H 12                  -0.13        1.65772
              H 15 -- H 23                  -0.13        1.65772
              H 8  -- H 18                  -0.13        1.65772
              H 14 -- H 24                  -0.13        1.65772
              H 5  -- H 22                  -0.18        1.67286
              H 14 -- H 19                  -0.18        1.67286
              H 4  -- H 23                  -0.18        1.67286
              H 2  -- H 7                   -0.18        1.67286
              H 13 -- H 20                  -0.18        1.67286
              H 10 -- H 17                  -0.18        1.67286
              H 3  -- H 8                   -0.18        1.67286
              H 11 -- H 16                  -0.18        1.67286
              H 14 -- H 16                  -0.25        1.78039
              H 3  -- H 5                   -0.25        1.78039
              H 7  -- H 23                  -0.25        1.78039
              H 2  -- H 4                   -0.25        1.78039
              H 10 -- H 20                  -0.25        1.78039
              H 8  -- H 22                  -0.25        1.78039
              H 13 -- H 17                  -0.25        1.78039
              H 11 -- H 19                  -0.25        1.78039
              H 13 -- H 19                  -0.29        1.78279
              H 4  -- H 22                  -0.29        1.78279
              H 3  -- H 7                   -0.29        1.78279
              H 10 -- H 16                  -0.28        1.78279
              H 5  -- H 23                  -0.21        1.88339
              H 14 -- H 20                  -0.21        1.88339
              H 2  -- H 8                   -0.21        1.88339
              H 11 -- H 17                  -0.21        1.88339
              H 8  -- H 23                  -0.41        1.91175
              H 14 -- H 17                  -0.41        1.91175
              H 11 -- H 20                  -0.41        1.91175
              H 2  -- H 5                   -0.41        1.91175
              H 5  -- H 15                  -0.13        1.93261
              H 6  -- H 14                  -0.13        1.93261
              H 21 -- H 23                  -0.13        1.93261
              H 1  -- H 17                  -0.13        1.93261
              H 9  -- H 11                  -0.13        1.93261
              H 8  -- H 12                  -0.13        1.93261
              H 2  -- H 18                  -0.13        1.93261
              H 20 -- H 24                  -0.13        1.93261
              H 3  -- H 21                  -0.31        1.93526
              H 16 -- H 24                  -0.31        1.93526
              H 6  -- H 10                  -0.31        1.93526
              H 7  -- H 15                  -0.31        1.93526
              H 4  -- H 12                  -0.31        1.93526
              H 9  -- H 13                  -0.31        1.93526
              H 1  -- H 19                  -0.31        1.93526
              H 18 -- H 22                  -0.31        1.93526
              H 13 -- H 18                  -0.24        1.94396
              H 12 -- H 19                  -0.24        1.94396
              H 10 -- H 21                  -0.24        1.94396
              H 3  -- H 6                   -0.24        1.94396
              H 9  -- H 22                  -0.24        1.94396
              H 7  -- H 24                  -0.24        1.94396
              H 1  -- H 4                   -0.24        1.94396
              H 15 -- H 16                  -0.24        1.94396
              H 12 -- H 14                  -0.21        1.98311
              H 5  -- H 9                   -0.21        1.98311
              H 17 -- H 21                  -0.21        1.98311
              H 2  -- H 24                  -0.21        1.98311
              H 1  -- H 23                  -0.21        1.98311
              H 18 -- H 20                  -0.21        1.98311
              H 6  -- H 8                   -0.21        1.98311
              H 11 -- H 15                  -0.21        1.98311
              H 11 -- H 14                  -0.27        1.98530
              H 5  -- H 8                   -0.27        1.98530
              H 2  -- H 23                  -0.27        1.98530
              H 17 -- H 20                  -0.27        1.98530
              H 3  -- H 15                  -0.06        2.01327
              H 6  -- H 16                  -0.06        2.01327
              H 7  -- H 21                  -0.06        2.01327
              H 9  -- H 19                  -0.06        2.01327
              H 4  -- H 18                  -0.06        2.01327
              H 1  -- H 13                  -0.06        2.01327
              H 10 -- H 24                  -0.06        2.01327
              H 12 -- H 22                  -0.06        2.01327
              H 1  -- H 12                  -0.29        2.10889
              H 9  -- H 18                  -0.29        2.10889
              H 6  -- H 21                  -0.29        2.10889
              H 15 -- H 24                  -0.29        2.10889
              H 4  -- H 11                  -0.09        2.14017
              H 8  -- H 13                  -0.09        2.14017
              H 3  -- H 20                  -0.09        2.14017
              H 17 -- H 22                  -0.09        2.14017
              H 2  -- H 19                  -0.09        2.14017
              H 5  -- H 10                  -0.09        2.14017
              H 16 -- H 23                  -0.09        2.14017
              H 7  -- H 14                  -0.09        2.14017
              H 15 -- H 22                  -0.20        2.14918
              H 4  -- H 21                  -0.20        2.14918
              H 13 -- H 24                  -0.20        2.14918
              H 6  -- H 19                  -0.20        2.14918
              H 9  -- H 16                  -0.20        2.14918
              H 1  -- H 10                  -0.20        2.14918
              H 3  -- H 12                  -0.20        2.14918
              H 7  -- H 18                  -0.20        2.14918
              H 7  -- H 11                  -0.05        2.17041
              H 8  -- H 10                  -0.05        2.17041
              H 20 -- H 22                  -0.05        2.17041
              H 2  -- H 16                  -0.05        2.17041
              H 3  -- H 17                  -0.05        2.17041
              H 19 -- H 23                  -0.05        2.17041
              H 4  -- H 14                  -0.05        2.17041
              H 5  -- H 13                  -0.05        2.17041
              H 12 -- H 16                  -0.09        2.36721
              H 4  -- H 24                  -0.09        2.36721
              H 3  -- H 9                   -0.09        2.36721
              H 10 -- H 18                  -0.09        2.36721
              H 13 -- H 21                  -0.09        2.36721
              H 1  -- H 7                   -0.09        2.36721
              H 6  -- H 22                  -0.09        2.36721
              H 15 -- H 19                  -0.09        2.36721
              H 7  -- H 20                  -0.01        2.46606
              H 8  -- H 19                  -0.01        2.46606
              H 11 -- H 22                  -0.01        2.46606
              H 2  -- H 13                  -0.01        2.46606
              H 4  -- H 17                  -0.01        2.46606
              H 10 -- H 23                  -0.01        2.46606
              H 3  -- H 14                  -0.01        2.46606
              H 5  -- H 16                  -0.01        2.46606
              H 2  -- H 11                  -0.03        2.52923
              H 8  -- H 17                  -0.03        2.52923
              H 5  -- H 20                  -0.03        2.52923
              H 14 -- H 23                  -0.03        2.52923
              H 1  -- H 14                   0.05        2.60074
              H 2  -- H 15                   0.05        2.60074
              H 5  -- H 18                   0.05        2.60074
              H 6  -- H 17                   0.05        2.60074
              H 12 -- H 23                   0.05        2.60074
              H 8  -- H 21                   0.05        2.60074
              H 9  -- H 20                   0.05        2.60074
              H 11 -- H 24                   0.05        2.60074
              H 7  -- H 10                  -0.03        2.65712
              H 3  -- H 16                  -0.03        2.65712
              H 4  -- H 13                  -0.03        2.65712
              H 19 -- H 22                  -0.03        2.65712
              H 5  -- H 24                   0.04        2.72187
              H 11 -- H 18                   0.04        2.72187
              H 14 -- H 21                   0.04        2.72187
              H 6  -- H 23                   0.04        2.72187
              H 12 -- H 17                   0.04        2.72187
              H 1  -- H 8                    0.04        2.72187
              H 2  -- H 9                    0.04        2.72187
              H 15 -- H 20                   0.04        2.72187
              H 3  -- H 11                   0.05        2.72965
              H 8  -- H 16                   0.05        2.72965
              H 4  -- H 20                   0.05        2.72965
              H 2  -- H 10                   0.05        2.72965
              H 7  -- H 17                   0.05        2.72965
              H 13 -- H 23                   0.05        2.72965
              H 5  -- H 19                   0.05        2.72965
              H 14 -- H 22                   0.05        2.72965
              H 1  -- H 18                   0.01        2.73522
              H 6  -- H 15                   0.01        2.73522
              H 9  -- H 12                   0.01        2.73522
              H 21 -- H 24                   0.01        2.73522
              H 3  -- H 19                  -0.02        2.78941
              H 7  -- H 13                  -0.02        2.78941
              H 4  -- H 10                  -0.02        2.78941
              H 16 -- H 22                  -0.02        2.78941
======================================================================


Writing analysis data to Cmca-12.castep_bin

Writing model to Cmca-12.check
 
 A BibTeX formatted list of references used in this run has been written to 
 Cmca-12.bib
 
Initialisation time =      4.94 s
Calculation time    =   4751.91 s
Finalisation time   =      7.82 s
Total time          =   4764.66 s
Peak Memory Use     = 681156 kB
  
Overall parallel efficiency rating: Very good (87%)                             
  
Data was distributed by:-
k-point (16-way); efficiency rating: Very good (87%)                            
