 +-------------------------------------------------+
 |                                                 |
 |      CCC   AA    SSS  TTTTT  EEEEE  PPPP        |
 |     C     A  A  S       T    E      P   P       |
 |     C     AAAA   SS     T    EEE    PPPP        |
 |     C     A  A     S    T    E      P           |
 |      CCC  A  A  SSS     T    EEEEE  P           |
 |                                                 |
 +-------------------------------------------------+
 |                                                 |
 | Welcome to Academic Release CASTEP version 18.1 |          
 | Ab Initio Total Energy Program                  |
 |                                                 |
 | Authors:                                        |
 | M. Segall, M. Probert, C. Pickard, P. Hasnip,   |
 | S. Clark, K. Refson, J. R. Yates, M. Payne      |
 |                                                 |
 | Contributors:                                   |
 | P. Lindan, P. Haynes, J. White, V. Milman,      |
 | N. Govind, M. Gibson, P. Tulip, V. Cocula,      |
 | B. Montanari, D. Quigley, M. Glover,            |
 | L. Bernasconi, A. Perlov, M. Plummer,           |
 | E. McNellis, J. Meyer, J. Gale, D. Jochym       |
 | J. Aarons, B. Walker, R. Gillen, D. Jones       |
 | T. Green, I. J. Bush, C. J. Armstrong,          |
 | E. J. Higgins, E. L. Brown, M. S. McFly,        |
 | J. Wilkins, B-C. Shih, P. J. P. Byrne           |
 |                                                 |
 | Copyright (c) 2000 - 2017                       |
 |                                                 |
 |     Distributed under the terms of an           |
 |     Agreement between the United Kingdom        |
 |     Car-Parrinello (UKCP) Consortium,           |
 |     Daresbury Laboratory and Accelrys, Inc.     |
 |                                                 |
 | Please cite                                     |
 |                                                 |
 |     "First principles methods using CASTEP"     |
 |                                                 |
 |         Zeitschrift fuer Kristallographie       |
 |           220(5-6) pp. 567-570 (2005)           |
 |                                                 |
 | S. J. Clark, M. D. Segall, C. J. Pickard,       |
 | P. J. Hasnip, M. J. Probert, K. Refson,         |
 | M. C. Payne                                     |
 |                                                 |
 |       in all publications arising from          |
 |              your use of CASTEP                 |
 |                                                 |
 +-------------------------------------------------+


 Compiled for linux_x86_64_gfortran4.8 on Thu, 19 Jul 2018 15:42:32 +0100
 from code version 70483bd0ad64+  Sun, 10 Dec 2017 12:18:29 +0000
 Compiler: GNU Fortran 4.8.5; Optimisation: fast
 MATHLIBS: Intel MKL(2018.0.0) (LAPACK version 3.7.0)
 FFT Lib : mkl
 Fundamental constants values: CODATA 2014

 Run started: Thu, 13 Aug 2020 20:39:33 +0100

 Atomic calculation performed for H: 1s1

 Converged in 41 iterations to an ae energy of -12.488 eV

   ============================================================                
   | Pseudopotential Report - Date of generation 13-08-2020   |                
   ------------------------------------------------------------                
   | Element: H Ionic charge:  1.00 Level of theory: PBE      |                
   | Atomic Solver: Koelling-Harmon                           |                
   |                                                          |                
   |               Reference Electronic Structure             |                
   |         Orbital         Occupation         Energy        |                
   |            1s              1.000           -0.239        |                
   |                                                          |                
   |                 Pseudopotential Definition               |                
   |        Beta     l      e      Rc     scheme   norm       |                
   |          1      0   -0.239   0.599     qc      0         |                
   |          2      0    0.250   0.599     qc      0         |                
   |         loc     1    0.000   0.599     pn      0         |                
   |                                                          |                
   | Augmentation charge Rinner = 0.421                       |                
   | No partial core correction                               |                
   ------------------------------------------------------------                
   | "1|0.6|13|15|17|10(qc=8)"                                |                
   ------------------------------------------------------------                
   |      Author: Chris J. Pickard, Cambridge University      |                
   ============================================================                

 Pseudo atomic calculation performed for H 1s1

 Converged in 24 iterations to a total energy of -12.4866 eV

 Calculation parallelised over 16 processes.
 Data is distributed by k-point(16-way)

 ************************************ Title ************************************
 

 ***************************** General Parameters ******************************
  
 output verbosity                               : normal  (1)
 write checkpoint data to                       : Cmca-12.check
 type of calculation                            : geometry optimization
 stress calculation                             : on
 density difference calculation                 : off
 electron localisation func (ELF) calculation   : off
 Hirshfeld analysis                             : off
 unlimited duration calculation
 timing information                             : on
 memory usage estimate                          : on
 write extra output files                       : on
 write final potential to formatted file        : off
 write final density to formatted file          : off
 write structure in CELL formatted file         : on
 write BibTeX reference list                    : on
 write OTFG pseudopotential files               : on
 write electrostatic potential file             : on
 write bands file                               : on
 checkpoint writing                             : both castep_bin and check files
  
 output         length unit                     : A
 output           mass unit                     : amu
 output           time unit                     : ps
 output         charge unit                     : e
 output           spin unit                     : hbar/2
 output         energy unit                     : eV
 output          force unit                     : eV/A
 output       velocity unit                     : A/ps
 output       pressure unit                     : GPa
 output     inv_length unit                     : 1/A
 output      frequency unit                     : cm-1
 output force constant unit                     : eV/A**2
 output         volume unit                     : A**3
 output   IR intensity unit                     : (D/A)**2/amu
 output         dipole unit                     : D
 output         efield unit                     : eV/A/e
 output        entropy unit                     : J/mol/K
  
 wavefunctions paging                           : none
 random number generator seed                   : randomised (203933308)
 data distribution                              : optimal for this architecture
 optimization strategy                          : maximize speed(+++)

 *********************** Exchange-Correlation Parameters ***********************
  
 using functional                               : Perdew Burke Ernzerhof
 relativistic treatment                         : Koelling-Harmon
 DFT+D: Semi-empirical dispersion correction    : off

 ************************* Pseudopotential Parameters **************************
  
 pseudopotential representation                 : reciprocal space
 <beta|phi> representation                      : reciprocal space
 spin-orbit coupling                            : off

 **************************** Basis Set Parameters *****************************
  
 plane wave basis set cut-off                   :  1200.0000   eV
 size of standard grid                          :     2.0000
 size of   fine   gmax                          :    35.4943   1/A
 finite basis set correction                    : automatic
 number of sample energies                      :          3
           sample  spacing                      :     5.0000   eV

 **************************** Electronic Parameters ****************************
  
 number of  electrons                           :  24.00    
 net charge of system                           :  0.000    
 treating system as non-spin-polarized
 number of bands                                :         12

 ********************* Electronic Minimization Parameters **********************
  
 Method: Treating system as non-metallic,
         and number of  SD  steps               :          1
         and number of  CG  steps               :          4
  
 total energy / atom convergence tol.           : 0.1000E-10   eV
 eigen-energy convergence tolerance             : 0.2000E-10   eV
 max force / atom convergence tol.              : ignored
 convergence tolerance window                   :          3   cycles
 max. number of SCF cycles                      :        100
 periodic dipole correction                     : NONE

 ************************** Density Mixing Parameters **************************
  
 density-mixing scheme                          : Broyden
 max. length of mixing history                  :         20
 charge density mixing amplitude                : 0.8000    
 cut-off energy for mixing                      :  1200.       eV

 *********************** Population Analysis Parameters ************************
  
 Population analysis with cutoff                :  3.000       A
 Population analysis output                     : summary and pdos components

 ********************** Geometry Optimization Parameters ***********************
  
 optimization method                            : LBFGS
 max. no. of LBFGS updates                      : unbounded
 variable cell method                           : fixed basis quality
 max. number of steps                           :        200
 estimated bulk modulus                         :  500.0       GPa
 estimated <frequency>                          :  1668.       cm-1
 geom line minimiser                            : on
 with line minimiser tolerance                  :     0.4000
 total energy convergence tolerance             : 0.1000E-08   eV/atom
        max ionic |force| tolerance             : 0.1000E-04   eV/A
 max ionic |displacement| tolerance             : 0.1000E-04   A
   max |stress component| tolerance             : 0.1000E-04   GPa
 convergence tolerance window                   :          2   steps
 backup results every                           :      14400   seconds
 write geom trajectory file                     : on

 *******************************************************************************
  

                           -------------------------------
                                      Unit Cell
                           -------------------------------
        Real Lattice(A)                      Reciprocal Lattice(1/A)
     2.5594654     0.0000000    -0.0000000        2.454881885  -0.000000000   0.000000000
     0.0000000     4.7558297     0.0000000       -0.000000000   1.321154381  -0.000000001
    -0.0000000     0.0000000     2.8664934        0.000000000  -0.000000001   2.191941306

                       Lattice parameters(A)       Cell Angles
                    a =      2.559465          alpha =   90.000000
                    b =      4.755830          beta  =   90.000000
                    c =      2.866493          gamma =   90.000000

                       Current cell volume =            34.892052       A**3
                                   density =             0.693297   AMU/A**3
                                           =             1.151247     g/cm^3

                           -------------------------------
                                     Cell Contents
                           -------------------------------
                         Total number of ions in cell =   24
                      Total number of species in cell =    1
                        Max number of any one species =   24

            xxxxxxxxxxxxxxxxxxxxxxxxxxxxxxxxxxxxxxxxxxxxxxxxxxxxxxxxxxxx
            x  Element    Atom        Fractional coordinates of atoms  x
            x            Number           u          v          w      x
            x----------------------------------------------------------x
            x  H            1        -0.000000   0.003912   0.134698   x 
            x  H            2        -0.000000   0.131909   0.455340   x 
            x  H            3         0.000000   0.267114   0.316651   x 
            x  H            4         0.500000   0.267114   0.183349   x 
            x  H            5         0.500000   0.131909   0.044660   x 
            x  H            6         0.500000   0.003912   0.365302   x 
            x  H            7         0.500000   0.232886   0.683349   x 
            x  H            8         0.500000   0.368091   0.544660   x 
            x  H            9         0.500000   0.496088   0.865302   x 
            x  H           10         0.500000   0.732886   0.816651   x 
            x  H           11         0.500000   0.868091   0.955340   x 
            x  H           12         0.500000   0.996088   0.634698   x 
            x  H           13         0.500000   0.767114   0.316651   x 
            x  H           14         0.500000   0.631909   0.455340   x 
            x  H           15         0.500000   0.503912   0.134698   x 
            x  H           16        -0.000000   0.767114   0.183349   x 
            x  H           17         0.000000   0.631909   0.044660   x 
            x  H           18         0.000000   0.503912   0.365302   x 
            x  H           19        -0.000000   0.732886   0.683349   x 
            x  H           20         0.000000   0.868091   0.544660   x 
            x  H           21         0.000000   0.996088   0.865302   x 
            x  H           22        -0.000000   0.232886   0.816651   x 
            x  H           23         0.000000   0.368091   0.955340   x 
            x  H           24        -0.000000   0.496088   0.634698   x 
            xxxxxxxxxxxxxxxxxxxxxxxxxxxxxxxxxxxxxxxxxxxxxxxxxxxxxxxxxxxx


                         No user defined ionic velocities

                           -------------------------------
                                   Details of Species
                           -------------------------------

                               Mass of species in AMU
                                    H    1.0078250

                          Electric Quadrupole Moment (Barn)
                                    H    0.0028600 Isotope  2

                          Files used for pseudopotentials:
                                    H 1|0.6|13|15|17|10(qc=8)

                           -------------------------------
                              k-Points For BZ Sampling
                           -------------------------------
                       MP grid size for SCF calculation is 10 10 10
                            with an offset of   0.000  0.000  0.000
                       Number of kpoints used =           500

                           -------------------------------
                               Symmetry and Constraints
                           -------------------------------

                      Cell is a supercell containing 2 primitive cells
                      Maximum deviation from symmetry =  0.00000         ANG

                      Number of symmetry operations   =           1
                      Number of ionic constraints     =           3
                      Point group of crystal =     1: C1, 1, 1
                      Space group of crystal =    64: Cmce, -C 2bc 2

             Set iprint > 1 for details on symmetry rotations/translations

                         Centre of mass is constrained
             Set iprint > 1 for details of linear ionic constraints

                         Number of cell constraints= 0
                         Cell constraints are:  1 2 3 4 5 6

                         External pressure/stress (GPa)
                        270.00000   0.00000   0.00000
                                  270.00000   0.00000
                                            270.00000
  
+---------------- MEMORY AND SCRATCH DISK ESTIMATES PER PROCESS --------------+
|                                                     Memory          Disk    |
| Baseline code, static data and system overhead      411.0 MB         0.0 MB |
| BLAS internal memory storage                          0.0 MB         0.0 MB |
| Model and support data                               65.3 MB         0.0 MB |
| Electronic energy minimisation requirements          54.6 MB         0.0 MB |
| Force calculation requirements                        6.7 MB         0.0 MB |
| Stress calculation requirements                       8.5 MB         0.0 MB |
|                                               ----------------------------- |
| Approx. total storage required per process          530.9 MB         0.0 MB |
|                                                                             |
| Requirements will fluctuate during execution and may exceed these estimates |
+-----------------------------------------------------------------------------+
Calculating finite basis set correction with  3 cut-off energies.
Calculating total energy with cut-off of 1190.000 eV.
------------------------------------------------------------------------ <-- SCF
SCF loop      Energy                           Energy gain       Timer   <-- SCF
                                               per atom          (sec)   <-- SCF
------------------------------------------------------------------------ <-- SCF
Initial   5.40326136E+002                                          7.58  <-- SCF
      1  -2.89664311E+002                    3.45829353E+001      22.61  <-- SCF
      2  -3.41248991E+002                    2.14936168E+000      34.71  <-- SCF
      3  -3.41152455E+002                   -4.02233773E-003      49.65  <-- SCF
      4  -3.41143385E+002                   -3.77910524E-004      64.52  <-- SCF
      5  -3.41143625E+002                    1.00107239E-005      79.95  <-- SCF
      6  -3.41143644E+002                    7.53121405E-007      94.07  <-- SCF
      7  -3.41143644E+002                    2.89512833E-009     108.33  <-- SCF
      8  -3.41143644E+002                    1.91010218E-010     121.07  <-- SCF
      9  -3.41143644E+002                    3.06940786E-012     131.05  <-- SCF
     10  -3.41143644E+002                    3.04121120E-013     141.22  <-- SCF
------------------------------------------------------------------------ <-- SCF
 
Final energy =  -341.1436436414     eV
(energy not corrected for finite basis set)
 
Calculating total energy with cut-off of 1195.000 eV.
------------------------------------------------------------------------ <-- SCF
SCF loop      Energy                           Energy gain       Timer   <-- SCF
                                               per atom          (sec)   <-- SCF
------------------------------------------------------------------------ <-- SCF
Initial  -3.41143644E+002                                        145.56  <-- SCF
      1  -3.41143695E+002                    2.13769516E-006     157.64  <-- SCF
      2  -3.41143695E+002                    1.19634401E-012     167.52  <-- SCF
      3  -3.41143695E+002                    5.57635277E-010     177.29  <-- SCF
      4  -3.41143695E+002                    6.21736356E-012     186.68  <-- SCF
      5  -3.41143695E+002                    1.73208055E-013     196.06  <-- SCF
------------------------------------------------------------------------ <-- SCF
 
Final energy =  -341.1436949596     eV
(energy not corrected for finite basis set)
 
Calculating total energy with cut-off of 1200.000 eV.
------------------------------------------------------------------------ <-- SCF
SCF loop      Energy                           Energy gain       Timer   <-- SCF
                                               per atom          (sec)   <-- SCF
------------------------------------------------------------------------ <-- SCF
Initial  -3.41143695E+002                                        200.19  <-- SCF
      1  -3.41143748E+002                    2.19109559E-006     213.14  <-- SCF
      2  -3.41143748E+002                    1.34135540E-012     222.73  <-- SCF
      3  -3.41143748E+002                    5.73087047E-010     233.22  <-- SCF
      4  -3.41143748E+002                    6.44495089E-012     243.75  <-- SCF
      5  -3.41143748E+002                    0.00000000E+000     254.08  <-- SCF
------------------------------------------------------------------------ <-- SCF
 
Final energy =  -341.1437475599     eV
(energy not corrected for finite basis set)
 
 For future reference: finite basis dEtot/dlog(Ecut) =      -0.012320eV
 Total energy corrected for finite basis set =    -341.143747 eV
 
+---------------- MEMORY AND SCRATCH DISK ESTIMATES PER PROCESS --------------+
|                                                     Memory          Disk    |
| Model and support data                               73.6 MB         0.0 MB |
| Electronic energy minimisation requirements          54.6 MB         0.0 MB |
| Geometry minimisation requirements                   75.8 MB         0.0 MB |
|                                               ----------------------------- |
| Approx. total storage required per process          204.0 MB         0.0 MB |
|                                                                             |
| Requirements will fluctuate during execution and may exceed these estimates |
+-----------------------------------------------------------------------------+
 

 ************************************** Forces **************************************
 *                                                                                  *
 *                           Cartesian components (eV/A)                            *
 * -------------------------------------------------------------------------------- *
 *                         x                    y                    z              *
 *                                                                                  *
 * H               1      0.00000              0.00000              0.00000         *
 * H               2      0.00000              0.00000             -0.00000         *
 * H               3     -0.00000             -0.00000              0.00000         *
 * H               4     -0.00000              0.00000              0.00000         *
 * H               5      0.00000             -0.00000             -0.00000         *
 * H               6      0.00000              0.00000             -0.00000         *
 * H               7     -0.00000             -0.00000             -0.00000         *
 * H               8      0.00000              0.00000             -0.00000         *
 * H               9      0.00000             -0.00000             -0.00000         *
 * H              10      0.00000             -0.00000             -0.00000         *
 * H              11     -0.00000              0.00000              0.00000         *
 * H              12     -0.00000             -0.00000              0.00000         *
 * H              13     -0.00000             -0.00000              0.00000         *
 * H              14      0.00000              0.00000              0.00000         *
 * H              15     -0.00000              0.00000              0.00000         *
 * H              16      0.00000              0.00000              0.00000         *
 * H              17     -0.00000             -0.00000             -0.00000         *
 * H              18     -0.00000             -0.00000              0.00000         *
 * H              19      0.00000              0.00000             -0.00000         *
 * H              20     -0.00000             -0.00000             -0.00000         *
 * H              21     -0.00000             -0.00000              0.00000         *
 * H              22      0.00000             -0.00000             -0.00000         *
 * H              23     -0.00000              0.00000              0.00000         *
 * H              24      0.00000              0.00000             -0.00000         *
 *                                                                                  *
 ************************************************************************************

 ***************** Stress Tensor *****************
 *                                               *
 *          Cartesian components (GPa)           *
 * --------------------------------------------- *
 *             x             y             z     *
 *                                               *
 *  x   -299.999196     -0.000000     -0.000000  *
 *  y     -0.000000   -299.999205     -0.000002  *
 *  z     -0.000000     -0.000002   -299.999197  *
 *                                               *
 *  Pressure:  299.9992                          *
 *                                               *
 *************************************************
 LBFGS: finished iteration     0 with enthalpy= -2.82343400E+002 eV
  
 +-----------+-----------------+-----------------+------------+-----+ <-- LBFGS
 | Parameter |      value      |    tolerance    |    units   | OK? | <-- LBFGS
 +-----------+-----------------+-----------------+------------+-----+ <-- LBFGS
 |  dE/ion   |   0.000000E+000 |   1.000000E-009 |         eV | No  | <-- LBFGS
 |  |F|max   |   9.793509E-007 |   1.000000E-005 |       eV/A | Yes | <-- LBFGS
 |  |dR|max  |   0.000000E+000 |   1.000000E-005 |          A | No  | <-- LBFGS
 |   Smax    |   2.999921E+001 |   1.000000E-005 |        GPa | No  | <-- LBFGS
 +-----------+-----------------+-----------------+------------+-----+ <-- LBFGS
  

================================================================================
 Starting LBFGS iteration          1 ...
================================================================================
  
 +------------+-------------+-------------+-----------------+ <-- min LBFGS
 |    Step    |   lambda    |   F.delta'  |    enthalpy     | <-- min LBFGS
 +------------+-------------+-------------+-----------------+ <-- min LBFGS
 |  previous  |    0.000000 |    0.415849 |     -282.343400 | <-- min LBFGS
 +------------+-------------+-------------+-----------------+ <-- min LBFGS
  

--------------------------------------------------------------------------------
 LBFGS: starting iteration         1 with trial guess (lambda=  1.000000)
--------------------------------------------------------------------------------
 
+---------------- MEMORY AND SCRATCH DISK ESTIMATES PER PROCESS --------------+
|                                                     Memory          Disk    |
| Model and support data                               77.1 MB         0.0 MB |
| Electronic energy minimisation requirements          58.2 MB         0.0 MB |
| Geometry minimisation requirements                   80.7 MB         0.0 MB |
|                                               ----------------------------- |
| Approx. total storage required per process          216.0 MB         0.0 MB |
|                                                                             |
| Requirements will fluctuate during execution and may exceed these estimates |
+-----------------------------------------------------------------------------+
 

                           -------------------------------
                                      Unit Cell
                           -------------------------------
        Real Lattice(A)              Reciprocal Lattice(1/A)
     2.6106534     0.0000000    -0.0000000        2.406748211  -0.000000000   0.000000000
     0.0000000     4.8509438     0.0000000       -0.000000000   1.295250065  -0.000000002
    -0.0000000     0.0000000     2.9238217        0.000000000  -0.000000004   2.148963193

                       Lattice parameters(A)       Cell Angles
                    a =      2.610653          alpha =   90.000000
                    b =      4.850944          beta  =   90.000000
                    c =      2.923822          gamma =   90.000000

                Current cell volume =            37.027667 A**3

                           -------------------------------
                                     Cell Contents
                           -------------------------------

            xxxxxxxxxxxxxxxxxxxxxxxxxxxxxxxxxxxxxxxxxxxxxxxxxxxxxxxxxxxxxxxxx
            x  Element         Atom        Fractional coordinates of atoms  x
            x                 Number           u          v          w      x
            x---------------------------------------------------------------x
            x  H                 1         0.000000   0.003912   0.134698   x
            x  H                 2        -0.000000   0.131909   0.455340   x
            x  H                 3         0.000000   0.267114   0.316651   x
            x  H                 4         0.500000   0.267114   0.183349   x
            x  H                 5         0.500000   0.131909   0.044660   x
            x  H                 6         0.500000   0.003912   0.365302   x
            x  H                 7         0.500000   0.232886   0.683349   x
            x  H                 8         0.500000   0.368091   0.544660   x
            x  H                 9         0.500000   0.496088   0.865302   x
            x  H                10         0.500000   0.732886   0.816651   x
            x  H                11         0.500000   0.868091   0.955340   x
            x  H                12         0.500000   0.996088   0.634698   x
            x  H                13         0.500000   0.767114   0.316651   x
            x  H                14         0.500000   0.631909   0.455340   x
            x  H                15         0.500000   0.503912   0.134698   x
            x  H                16         0.000000   0.767114   0.183349   x
            x  H                17        -0.000000   0.631909   0.044660   x
            x  H                18        -0.000000   0.503912   0.365302   x
            x  H                19        -0.000000   0.732886   0.683349   x
            x  H                20        -0.000000   0.868091   0.544660   x
            x  H                21        -0.000000   0.996088   0.865302   x
            x  H                22         0.000000   0.232886   0.816651   x
            x  H                23         0.000000   0.368091   0.955340   x
            x  H                24         0.000000   0.496088   0.634698   x
            xxxxxxxxxxxxxxxxxxxxxxxxxxxxxxxxxxxxxxxxxxxxxxxxxxxxxxxxxxxxxxxxx


------------------------------------------------------------------------ <-- SCF
SCF loop      Energy                           Energy gain       Timer   <-- SCF
                                               per atom          (sec)   <-- SCF
------------------------------------------------------------------------ <-- SCF
Initial  -3.44768699E+002                                        284.07  <-- SCF
      1  -3.44835069E+002                    2.76544609E-003     297.60  <-- SCF
      2  -3.44835272E+002                    8.43098616E-006     313.18  <-- SCF
      3  -3.44835253E+002                   -7.97815552E-007     328.54  <-- SCF
      4  -3.44835283E+002                    1.26281868E-006     343.40  <-- SCF
      5  -3.44835283E+002                    1.40113796E-008     358.08  <-- SCF
      6  -3.44835283E+002                    1.38609746E-009     372.80  <-- SCF
      7  -3.44835283E+002                    9.15585836E-012     383.80  <-- SCF
      8  -3.44835283E+002                    2.11474951E-013     393.49  <-- SCF
------------------------------------------------------------------------ <-- SCF
 
Final energy =  -344.8352833526     eV
(energy not corrected for finite basis set)
 

 ************************************** Forces **************************************
 *                                                                                  *
 *                           Cartesian components (eV/A)                            *
 * -------------------------------------------------------------------------------- *
 *                         x                    y                    z              *
 *                                                                                  *
 * H               1     -0.00000             -0.01190             -0.27477         *
 * H               2      0.00000              0.25852             -0.17277         *
 * H               3     -0.00000             -0.24531              0.14670         *
 * H               4     -0.00000             -0.24531             -0.14671         *
 * H               5     -0.00000              0.25853              0.17277         *
 * H               6     -0.00000             -0.01190              0.27477         *
 * H               7     -0.00000              0.24531             -0.14671         *
 * H               8      0.00000             -0.25852              0.17277         *
 * H               9     -0.00000              0.01190              0.27477         *
 * H              10     -0.00000              0.24532              0.14671         *
 * H              11     -0.00000             -0.25853             -0.17277         *
 * H              12     -0.00000              0.01190             -0.27477         *
 * H              13      0.00000             -0.24531              0.14671         *
 * H              14      0.00000              0.25852             -0.17277         *
 * H              15      0.00000             -0.01190             -0.27477         *
 * H              16     -0.00000             -0.24531             -0.14671         *
 * H              17      0.00000              0.25853              0.17277         *
 * H              18      0.00000             -0.01190              0.27477         *
 * H              19      0.00000              0.24531             -0.14671         *
 * H              20      0.00000             -0.25852              0.17277         *
 * H              21      0.00000              0.01190              0.27477         *
 * H              22     -0.00000              0.24532              0.14671         *
 * H              23      0.00000             -0.25853             -0.17277         *
 * H              24     -0.00000              0.01190             -0.27477         *
 *                                                                                  *
 ************************************************************************************

 ***************** Stress Tensor *****************
 *                                               *
 *          Cartesian components (GPa)           *
 * --------------------------------------------- *
 *             x             y             z     *
 *                                               *
 *  x   -261.176494      0.000000     -0.000000  *
 *  y      0.000000   -252.665611      0.000024  *
 *  z     -0.000000      0.000024   -252.085127  *
 *                                               *
 *  Pressure:  255.3091                          *
 *                                               *
 *************************************************
  
 +------------+-------------+-------------+-----------------+ <-- min LBFGS
 |    Step    |   lambda    |   F.delta'  |    enthalpy     | <-- min LBFGS
 +------------+-------------+-------------+-----------------+ <-- min LBFGS
 |  previous  |    0.000000 |    0.415849 |     -282.343400 | <-- min LBFGS
 | trial step |    1.000000 |   -0.211873 |     -282.435982 | <-- min LBFGS
 +------------+-------------+-------------+-----------------+ <-- min LBFGS
  
 LBFGS: finished iteration     1 with enthalpy= -2.82435982E+002 eV
  
 +-----------+-----------------+-----------------+------------+-----+ <-- LBFGS
 | Parameter |      value      |    tolerance    |    units   | OK? | <-- LBFGS
 +-----------+-----------------+-----------------+------------+-----+ <-- LBFGS
 |  dE/ion   |   3.857586E-003 |   1.000000E-009 |         eV | No  | <-- LBFGS
 |  |F|max   |   3.109467E-001 |   1.000000E-005 |       eV/A | No  | <-- LBFGS
 |  |dR|max  |   9.689797E-008 |   1.000000E-005 |          A | Yes | <-- LBFGS
 |   Smax    |   1.791487E+001 |   1.000000E-005 |        GPa | No  | <-- LBFGS
 +-----------+-----------------+-----------------+------------+-----+ <-- LBFGS
  

================================================================================
 Starting LBFGS iteration          2 ...
================================================================================
  
 +------------+-------------+-------------+-----------------+ <-- min LBFGS
 |    Step    |   lambda    |   F.delta'  |    enthalpy     | <-- min LBFGS
 +------------+-------------+-------------+-----------------+ <-- min LBFGS
 |  previous  |    0.000000 |    0.216528 |     -282.435982 | <-- min LBFGS
 +------------+-------------+-------------+-----------------+ <-- min LBFGS
  

--------------------------------------------------------------------------------
 LBFGS: starting iteration         2 with trial guess (lambda=  1.000000)
--------------------------------------------------------------------------------

                           -------------------------------
                                      Unit Cell
                           -------------------------------
        Real Lattice(A)              Reciprocal Lattice(1/A)
     2.6124972     0.0000000     0.0000000        2.405049630  -0.000000000  -0.000000000
     0.0000000     4.8357713    -0.0000000       -0.000000000   1.299313981   0.000000011
     0.0000000    -0.0000000     2.9139122       -0.000000000   0.000000019   2.156271310

                       Lattice parameters(A)       Cell Angles
                    a =      2.612497          alpha =   90.000001
                    b =      4.835771          beta  =   90.000000
                    c =      2.913912          gamma =   90.000000

                Current cell volume =            36.812732 A**3

                           -------------------------------
                                     Cell Contents
                           -------------------------------

            xxxxxxxxxxxxxxxxxxxxxxxxxxxxxxxxxxxxxxxxxxxxxxxxxxxxxxxxxxxxxxxxx
            x  Element         Atom        Fractional coordinates of atoms  x
            x                 Number           u          v          w      x
            x---------------------------------------------------------------x
            x  H                 1         0.000000   0.003748   0.128415   x
            x  H                 2         0.000000   0.135472   0.451389   x
            x  H                 3        -0.000000   0.263733   0.320006   x
            x  H                 4         0.500000   0.263733   0.179994   x
            x  H                 5         0.500000   0.135472   0.048611   x
            x  H                 6         0.500000   0.003748   0.371585   x
            x  H                 7         0.500000   0.236267   0.679994   x
            x  H                 8         0.500000   0.364528   0.548611   x
            x  H                 9         0.500000   0.496252   0.871585   x
            x  H                10         0.500000   0.736267   0.820006   x
            x  H                11         0.500000   0.864528   0.951389   x
            x  H                12         0.500000   0.996252   0.628415   x
            x  H                13         0.500000   0.763733   0.320006   x
            x  H                14         0.500000   0.635472   0.451389   x
            x  H                15         0.500000   0.503748   0.128415   x
            x  H                16        -0.000000   0.763733   0.179994   x
            x  H                17         0.000000   0.635472   0.048611   x
            x  H                18        -0.000000   0.503748   0.371585   x
            x  H                19        -0.000000   0.736267   0.679994   x
            x  H                20         0.000000   0.864528   0.548611   x
            x  H                21        -0.000000   0.996252   0.871585   x
            x  H                22         0.000000   0.236267   0.820006   x
            x  H                23         0.000000   0.364528   0.951389   x
            x  H                24         0.000000   0.496252   0.628415   x
            xxxxxxxxxxxxxxxxxxxxxxxxxxxxxxxxxxxxxxxxxxxxxxxxxxxxxxxxxxxxxxxxx


------------------------------------------------------------------------ <-- SCF
SCF loop      Energy                           Energy gain       Timer   <-- SCF
                                               per atom          (sec)   <-- SCF
------------------------------------------------------------------------ <-- SCF
Initial  -3.43616386E+002                                        423.37  <-- SCF
      1  -3.44536598E+002                    3.83421568E-002     437.18  <-- SCF
      2  -3.44540245E+002                    1.51944303E-004     451.90  <-- SCF
      3  -3.44416954E+002                   -5.13712240E-003     466.44  <-- SCF
      4  -3.44413782E+002                   -1.32179710E-004     481.39  <-- SCF
      5  -3.44413774E+002                   -3.09899433E-007     496.24  <-- SCF
      6  -3.44413774E+002                    4.58917159E-009     511.11  <-- SCF
      7  -3.44413774E+002                    2.46078295E-010     523.99  <-- SCF
      8  -3.44413774E+002                    8.62414991E-012     534.25  <-- SCF
      9  -3.44413774E+002                    0.00000000E+000     544.60  <-- SCF
------------------------------------------------------------------------ <-- SCF
 
Final energy =  -344.4137743545     eV
(energy not corrected for finite basis set)
 

 ************************************** Forces **************************************
 *                                                                                  *
 *                           Cartesian components (eV/A)                            *
 * -------------------------------------------------------------------------------- *
 *                         x                    y                    z              *
 *                                                                                  *
 * H               1     -0.00000             -0.01951              0.45177         *
 * H               2      0.00000             -0.70803              0.40824         *
 * H               3      0.00000              0.53106             -0.32559         *
 * H               4     -0.00000              0.53107              0.32560         *
 * H               5      0.00000             -0.70805             -0.40825         *
 * H               6     -0.00000             -0.01951             -0.45177         *
 * H               7     -0.00000             -0.53107              0.32559         *
 * H               8      0.00000              0.70804             -0.40825         *
 * H               9     -0.00000              0.01951             -0.45177         *
 * H              10     -0.00000             -0.53108             -0.32560         *
 * H              11      0.00000              0.70805              0.40825         *
 * H              12      0.00000              0.01951              0.45177         *
 * H              13      0.00000              0.53106             -0.32559         *
 * H              14     -0.00000             -0.70804              0.40825         *
 * H              15      0.00000             -0.01951              0.45177         *
 * H              16      0.00000              0.53107              0.32560         *
 * H              17     -0.00000             -0.70804             -0.40825         *
 * H              18      0.00000             -0.01951             -0.45176         *
 * H              19      0.00000             -0.53107              0.32559         *
 * H              20     -0.00000              0.70804             -0.40825         *
 * H              21      0.00000              0.01951             -0.45177         *
 * H              22      0.00000             -0.53108             -0.32560         *
 * H              23     -0.00000              0.70805              0.40825         *
 * H              24     -0.00000              0.01951              0.45176         *
 *                                                                                  *
 ************************************************************************************

 ***************** Stress Tensor *****************
 *                                               *
 *          Cartesian components (GPa)           *
 * --------------------------------------------- *
 *             x             y             z     *
 *                                               *
 *  x   -260.267868      0.000000      0.000000  *
 *  y      0.000000   -277.846992     -0.000081  *
 *  z      0.000000     -0.000081   -274.879938  *
 *                                               *
 *  Pressure:  270.9983                          *
 *                                               *
 *************************************************
  
 +------------+-------------+-------------+-----------------+ <-- min LBFGS
 |    Step    |   lambda    |   F.delta'  |    enthalpy     | <-- min LBFGS
 +------------+-------------+-------------+-----------------+ <-- min LBFGS
 |  previous  |    0.000000 |    0.216528 |     -282.435982 | <-- min LBFGS
 | trial step |    1.000000 |   -0.413190 |     -282.376684 | <-- min LBFGS
 +------------+-------------+-------------+-----------------+ <-- min LBFGS
  

--------------------------------------------------------------------------------
 LBFGS: improving iteration         2 with line minimization (lambda=  0.343849)
--------------------------------------------------------------------------------

                           -------------------------------
                                      Unit Cell
                           -------------------------------
        Real Lattice(A)              Reciprocal Lattice(1/A)
     2.6112873     0.0000000     0.0000000        2.406163885  -0.000000000   0.000000000
     0.0000000     4.8457268    -0.0000000       -0.000000000   1.296644569   0.000000002
    -0.0000000    -0.0000000     2.9204144       -0.000000000   0.000000004   2.151470488

                       Lattice parameters(A)       Cell Angles
                    a =      2.611287          alpha =   90.000000
                    b =      4.845727          beta  =   90.000000
                    c =      2.920414          gamma =   90.000000

                Current cell volume =            36.953711 A**3

                           -------------------------------
                                     Cell Contents
                           -------------------------------

            xxxxxxxxxxxxxxxxxxxxxxxxxxxxxxxxxxxxxxxxxxxxxxxxxxxxxxxxxxxxxxxxx
            x  Element         Atom        Fractional coordinates of atoms  x
            x                 Number           u          v          w      x
            x---------------------------------------------------------------x
            x  H                 1         0.000000   0.003855   0.132538   x
            x  H                 2         0.000000   0.133134   0.453981   x
            x  H                 3        -0.000000   0.265952   0.317805   x
            x  H                 4         0.500000   0.265952   0.182195   x
            x  H                 5         0.500000   0.133134   0.046019   x
            x  H                 6         0.500000   0.003855   0.367462   x
            x  H                 7         0.500000   0.234048   0.682195   x
            x  H                 8         0.500000   0.366866   0.546019   x
            x  H                 9         0.500000   0.496145   0.867462   x
            x  H                10         0.500000   0.734048   0.817805   x
            x  H                11         0.500000   0.866866   0.953981   x
            x  H                12         0.500000   0.996145   0.632538   x
            x  H                13         0.500000   0.765952   0.317805   x
            x  H                14         0.500000   0.633134   0.453981   x
            x  H                15         0.500000   0.503855   0.132538   x
            x  H                16        -0.000000   0.765952   0.182195   x
            x  H                17        -0.000000   0.633134   0.046019   x
            x  H                18        -0.000000   0.503855   0.367462   x
            x  H                19        -0.000000   0.734048   0.682195   x
            x  H                20        -0.000000   0.866866   0.546019   x
            x  H                21        -0.000000   0.996145   0.867462   x
            x  H                22         0.000000   0.234048   0.817805   x
            x  H                23         0.000000   0.366866   0.953981   x
            x  H                24         0.000000   0.496145   0.632538   x
            xxxxxxxxxxxxxxxxxxxxxxxxxxxxxxxxxxxxxxxxxxxxxxxxxxxxxxxxxxxxxxxxx


------------------------------------------------------------------------ <-- SCF
SCF loop      Energy                           Energy gain       Timer   <-- SCF
                                               per atom          (sec)   <-- SCF
------------------------------------------------------------------------ <-- SCF
Initial  -3.44396672E+002                                        574.50  <-- SCF
      1  -3.44795023E+002                    1.65979433E-002     587.55  <-- SCF
      2  -3.44796649E+002                    6.77502702E-005     602.40  <-- SCF
      3  -3.44743328E+002                   -2.22168269E-003     616.78  <-- SCF
      4  -3.44742020E+002                   -5.44887656E-005     631.34  <-- SCF
      5  -3.44742017E+002                   -1.44107092E-007     645.86  <-- SCF
      6  -3.44742017E+002                    1.69380359E-009     660.73  <-- SCF
      7  -3.44742017E+002                    1.03455560E-010     672.78  <-- SCF
      8  -3.44742017E+002                    2.52561513E-012     683.54  <-- SCF
      9  -3.44742017E+002                    6.04214146E-014     693.53  <-- SCF
------------------------------------------------------------------------ <-- SCF
 
Final energy =  -344.7420170645     eV
(energy not corrected for finite basis set)
 

 ************************************** Forces **************************************
 *                                                                                  *
 *                           Cartesian components (eV/A)                            *
 * -------------------------------------------------------------------------------- *
 *                         x                    y                    z              *
 *                                                                                  *
 * H               1     -0.00000             -0.01627             -0.05701         *
 * H               2     -0.00000             -0.03934              0.00438         *
 * H               3      0.00000             -0.01429              0.00617         *
 * H               4     -0.00000             -0.01429             -0.00617         *
 * H               5     -0.00000             -0.03934             -0.00438         *
 * H               6     -0.00000             -0.01627              0.05701         *
 * H               7      0.00000              0.01429             -0.00617         *
 * H               8      0.00000              0.03934             -0.00438         *
 * H               9     -0.00000              0.01627              0.05701         *
 * H              10     -0.00000              0.01429              0.00617         *
 * H              11     -0.00000              0.03934              0.00438         *
 * H              12     -0.00000              0.01627             -0.05701         *
 * H              13      0.00000             -0.01429              0.00617         *
 * H              14      0.00000             -0.03934              0.00438         *
 * H              15      0.00000             -0.01627             -0.05701         *
 * H              16     -0.00000             -0.01429             -0.00617         *
 * H              17     -0.00000             -0.03934             -0.00438         *
 * H              18      0.00000             -0.01627              0.05701         *
 * H              19      0.00000              0.01429             -0.00617         *
 * H              20      0.00000              0.03934             -0.00438         *
 * H              21      0.00000              0.01627              0.05701         *
 * H              22     -0.00000              0.01429              0.00617         *
 * H              23     -0.00000              0.03934              0.00438         *
 * H              24     -0.00000              0.01627             -0.05701         *
 *                                                                                  *
 ************************************************************************************

 ***************** Stress Tensor *****************
 *                                               *
 *          Cartesian components (GPa)           *
 * --------------------------------------------- *
 *             x             y             z     *
 *                                               *
 *  x   -260.932957      0.000000      0.000000  *
 *  y      0.000000   -260.752475     -0.000008  *
 *  z      0.000000     -0.000008   -259.452277  *
 *                                               *
 *  Pressure:  260.3792                          *
 *                                               *
 *************************************************
  
 +------------+-------------+-------------+-----------------+ <-- min LBFGS
 |    Step    |   lambda    |   F.delta'  |    enthalpy     | <-- min LBFGS
 +------------+-------------+-------------+-----------------+ <-- min LBFGS
 |  previous  |    0.000000 |    0.216528 |     -282.435982 | <-- min LBFGS
 | trial step |    1.000000 |   -0.413190 |     -282.376684 | <-- min LBFGS
 |  line step |    0.343849 |    0.024813 |     -282.467346 | <-- min LBFGS
 +------------+-------------+-------------+-----------------+ <-- min LBFGS
  
 LBFGS: finished iteration     2 with enthalpy= -2.82467346E+002 eV
  
 +-----------+-----------------+-----------------+------------+-----+ <-- LBFGS
 | Parameter |      value      |    tolerance    |    units   | OK? | <-- LBFGS
 +-----------+-----------------+-----------------+------------+-----+ <-- LBFGS
 |  dE/ion   |   1.306825E-003 |   1.000000E-009 |         eV | No  | <-- LBFGS
 |  |F|max   |   5.928965E-002 |   1.000000E-005 |       eV/A | No  | <-- LBFGS
 |  |dR|max  |   7.140339E-003 |   1.000000E-005 |          A | No  | <-- LBFGS
 |   Smax    |   1.054772E+001 |   1.000000E-005 |        GPa | No  | <-- LBFGS
 +-----------+-----------------+-----------------+------------+-----+ <-- LBFGS
  

================================================================================
 Starting LBFGS iteration          3 ...
================================================================================
  
 +------------+-------------+-------------+-----------------+ <-- min LBFGS
 |    Step    |   lambda    |   F.delta'  |    enthalpy     | <-- min LBFGS
 +------------+-------------+-------------+-----------------+ <-- min LBFGS
 |  previous  |    0.000000 |    0.134803 |     -282.467346 | <-- min LBFGS
 +------------+-------------+-------------+-----------------+ <-- min LBFGS
  

--------------------------------------------------------------------------------
 LBFGS: starting iteration         3 with trial guess (lambda=  1.000000)
--------------------------------------------------------------------------------

                           -------------------------------
                                      Unit Cell
                           -------------------------------
        Real Lattice(A)              Reciprocal Lattice(1/A)
     2.5936699     0.0000000    -0.0000000        2.422507735  -0.000000000   0.000000000
     0.0000000     4.8152671     0.0000000       -0.000000000   1.304846682  -0.000000008
    -0.0000000     0.0000000     2.8992593        0.000000000  -0.000000013   2.167169164

                       Lattice parameters(A)       Cell Angles
                    a =      2.593670          alpha =   89.999999
                    b =      4.815267          beta  =   90.000000
                    c =      2.899259          gamma =   90.000000

                Current cell volume =            36.209467 A**3

                           -------------------------------
                                     Cell Contents
                           -------------------------------

            xxxxxxxxxxxxxxxxxxxxxxxxxxxxxxxxxxxxxxxxxxxxxxxxxxxxxxxxxxxxxxxxx
            x  Element         Atom        Fractional coordinates of atoms  x
            x                 Number           u          v          w      x
            x---------------------------------------------------------------x
            x  H                 1         0.000000   0.003500   0.131329   x
            x  H                 2        -0.000000   0.131638   0.454788   x
            x  H                 3         0.000000   0.266160   0.317505   x
            x  H                 4         0.500000   0.266160   0.182495   x
            x  H                 5         0.500000   0.131637   0.045212   x
            x  H                 6         0.500000   0.003500   0.368671   x
            x  H                 7         0.500000   0.233840   0.682495   x
            x  H                 8         0.500000   0.368362   0.545212   x
            x  H                 9         0.500000   0.496500   0.868671   x
            x  H                10         0.500000   0.733840   0.817505   x
            x  H                11         0.500000   0.868363   0.954788   x
            x  H                12         0.500000   0.996500   0.631329   x
            x  H                13         0.500000   0.766160   0.317505   x
            x  H                14         0.500000   0.631638   0.454788   x
            x  H                15         0.500000   0.503500   0.131329   x
            x  H                16        -0.000000   0.766160   0.182495   x
            x  H                17        -0.000000   0.631637   0.045212   x
            x  H                18         0.000000   0.503500   0.368671   x
            x  H                19         0.000000   0.733840   0.682495   x
            x  H                20         0.000000   0.868362   0.545212   x
            x  H                21        -0.000000   0.996500   0.868671   x
            x  H                22         0.000000   0.233840   0.817505   x
            x  H                23         0.000000   0.368363   0.954788   x
            x  H                24         0.000000   0.496500   0.631329   x
            xxxxxxxxxxxxxxxxxxxxxxxxxxxxxxxxxxxxxxxxxxxxxxxxxxxxxxxxxxxxxxxxx


------------------------------------------------------------------------ <-- SCF
SCF loop      Energy                           Energy gain       Timer   <-- SCF
                                               per atom          (sec)   <-- SCF
------------------------------------------------------------------------ <-- SCF
Initial  -3.43440120E+002                                        723.64  <-- SCF
      1  -3.43504079E+002                    2.66499456E-003     737.00  <-- SCF
      2  -3.43504334E+002                    1.06220955E-005     751.37  <-- SCF
      3  -3.43493842E+002                   -4.37194147E-004     765.73  <-- SCF
      4  -3.43493795E+002                   -1.94684704E-006     780.98  <-- SCF
      5  -3.43493795E+002                   -1.58389482E-008     795.38  <-- SCF
      6  -3.43493795E+002                   -3.63654340E-010     810.26  <-- SCF
      7  -3.43493795E+002                    3.76485834E-011     820.95  <-- SCF
      8  -3.43493795E+002                    9.28475738E-013     831.13  <-- SCF
      9  -3.43493795E+002                    2.63840177E-013     841.16  <-- SCF
------------------------------------------------------------------------ <-- SCF
 
Final energy =  -343.4937946386     eV
(energy not corrected for finite basis set)
 

 ************************************** Forces **************************************
 *                                                                                  *
 *                           Cartesian components (eV/A)                            *
 * -------------------------------------------------------------------------------- *
 *                         x                    y                    z              *
 *                                                                                  *
 * H               1     -0.00000              0.01918              0.27582         *
 * H               2     -0.00000              0.12507             -0.05564         *
 * H               3     -0.00000             -0.13512              0.04881         *
 * H               4      0.00000             -0.13513             -0.04882         *
 * H               5      0.00000              0.12508              0.05564         *
 * H               6      0.00000              0.01918             -0.27582         *
 * H               7     -0.00000              0.13512             -0.04881         *
 * H               8      0.00000             -0.12507              0.05564         *
 * H               9     -0.00000             -0.01918             -0.27582         *
 * H              10     -0.00000              0.13513              0.04882         *
 * H              11      0.00000             -0.12508             -0.05564         *
 * H              12      0.00000             -0.01918              0.27582         *
 * H              13      0.00000             -0.13512              0.04881         *
 * H              14     -0.00000              0.12507             -0.05564         *
 * H              15      0.00000              0.01918              0.27582         *
 * H              16     -0.00000             -0.13513             -0.04882         *
 * H              17      0.00000              0.12508              0.05564         *
 * H              18     -0.00000              0.01918             -0.27582         *
 * H              19     -0.00000              0.13512             -0.04881         *
 * H              20     -0.00000             -0.12507              0.05564         *
 * H              21      0.00000             -0.01918             -0.27582         *
 * H              22      0.00000              0.13513              0.04882         *
 * H              23      0.00000             -0.12508             -0.05564         *
 * H              24      0.00000             -0.01918              0.27582         *
 *                                                                                  *
 ************************************************************************************

 ***************** Stress Tensor *****************
 *                                               *
 *          Cartesian components (GPa)           *
 * --------------------------------------------- *
 *             x             y             z     *
 *                                               *
 *  x   -274.346259      0.000000     -0.000000  *
 *  y      0.000000   -271.021606      0.000057  *
 *  z     -0.000000      0.000057   -277.157087  *
 *                                               *
 *  Pressure:  274.1750                          *
 *                                               *
 *************************************************
  
 +------------+-------------+-------------+-----------------+ <-- min LBFGS
 |    Step    |   lambda    |   F.delta'  |    enthalpy     | <-- min LBFGS
 +------------+-------------+-------------+-----------------+ <-- min LBFGS
 |  previous  |    0.000000 |    0.134803 |     -282.467346 | <-- min LBFGS
 | trial step |    1.000000 |   -0.103086 |     -282.473330 | <-- min LBFGS
 +------------+-------------+-------------+-----------------+ <-- min LBFGS
  

--------------------------------------------------------------------------------
 LBFGS: improving iteration         3 with line minimization (lambda=  0.566663)
--------------------------------------------------------------------------------

                           -------------------------------
                                      Unit Cell
                           -------------------------------
        Real Lattice(A)              Reciprocal Lattice(1/A)
     2.6013042     0.0000000    -0.0000000        2.415398164  -0.000000000   0.000000000
     0.0000000     4.8284664     0.0000000       -0.000000000   1.301279700  -0.000000003
    -0.0000000     0.0000000     2.9084266        0.000000000  -0.000000005   2.160338312

                       Lattice parameters(A)       Cell Angles
                    a =      2.601304          alpha =   90.000000
                    b =      4.828466          beta  =   90.000000
                    c =      2.908427          gamma =   90.000000

                Current cell volume =            36.530738 A**3

                           -------------------------------
                                     Cell Contents
                           -------------------------------

            xxxxxxxxxxxxxxxxxxxxxxxxxxxxxxxxxxxxxxxxxxxxxxxxxxxxxxxxxxxxxxxxx
            x  Element         Atom        Fractional coordinates of atoms  x
            x                 Number           u          v          w      x
            x---------------------------------------------------------------x
            x  H                 1         0.000000   0.003654   0.131853   x
            x  H                 2         0.000000   0.132286   0.454438   x
            x  H                 3         0.000000   0.266070   0.317635   x
            x  H                 4         0.500000   0.266070   0.182365   x
            x  H                 5         0.500000   0.132286   0.045562   x
            x  H                 6         0.500000   0.003654   0.368147   x
            x  H                 7         0.500000   0.233930   0.682365   x
            x  H                 8         0.500000   0.367714   0.545562   x
            x  H                 9         0.500000   0.496346   0.868147   x
            x  H                10         0.500000   0.733930   0.817635   x
            x  H                11         0.500000   0.867714   0.954438   x
            x  H                12         0.500000   0.996346   0.631853   x
            x  H                13         0.500000   0.766070   0.317635   x
            x  H                14         0.500000   0.632286   0.454438   x
            x  H                15         0.500000   0.503654   0.131853   x
            x  H                16        -0.000000   0.766070   0.182365   x
            x  H                17        -0.000000   0.632286   0.045562   x
            x  H                18        -0.000000   0.503654   0.368147   x
            x  H                19        -0.000000   0.733930   0.682365   x
            x  H                20        -0.000000   0.867714   0.545562   x
            x  H                21        -0.000000   0.996346   0.868147   x
            x  H                22         0.000000   0.233930   0.817635   x
            x  H                23         0.000000   0.367714   0.954438   x
            x  H                24         0.000000   0.496346   0.631853   x
            xxxxxxxxxxxxxxxxxxxxxxxxxxxxxxxxxxxxxxxxxxxxxxxxxxxxxxxxxxxxxxxxx


------------------------------------------------------------------------ <-- SCF
SCF loop      Energy                           Energy gain       Timer   <-- SCF
                                               per atom          (sec)   <-- SCF
------------------------------------------------------------------------ <-- SCF
Initial  -3.44033248E+002                                        870.27  <-- SCF
      1  -3.44045184E+002                    4.97330765E-004     883.72  <-- SCF
      2  -3.44045231E+002                    1.96901982E-006     897.78  <-- SCF
      3  -3.44043281E+002                   -8.12675663E-005     911.41  <-- SCF
      4  -3.44043272E+002                   -3.76482167E-007     925.28  <-- SCF
      5  -3.44043272E+002                   -3.01644849E-009     939.06  <-- SCF
      6  -3.44043272E+002                   -5.54386619E-011     953.37  <-- SCF
      7  -3.44043272E+002                    7.26668213E-012     963.65  <-- SCF
      8  -3.44043272E+002                    5.63933203E-013     974.27  <-- SCF
------------------------------------------------------------------------ <-- SCF
 
Final energy =  -344.0432715272     eV
(energy not corrected for finite basis set)
 

 ************************************** Forces **************************************
 *                                                                                  *
 *                           Cartesian components (eV/A)                            *
 * -------------------------------------------------------------------------------- *
 *                         x                    y                    z              *
 *                                                                                  *
 * H               1     -0.00000              0.00393              0.12862         *
 * H               2      0.00000              0.05399             -0.03003         *
 * H               3     -0.00000             -0.08321              0.03092         *
 * H               4      0.00000             -0.08322             -0.03092         *
 * H               5     -0.00000              0.05399              0.03003         *
 * H               6     -0.00000              0.00393             -0.12863         *
 * H               7     -0.00000              0.08322             -0.03092         *
 * H               8      0.00000             -0.05399              0.03003         *
 * H               9     -0.00000             -0.00393             -0.12862         *
 * H              10     -0.00000              0.08322              0.03092         *
 * H              11      0.00000             -0.05400             -0.03003         *
 * H              12      0.00000             -0.00393              0.12863         *
 * H              13      0.00000             -0.08321              0.03092         *
 * H              14     -0.00000              0.05399             -0.03003         *
 * H              15      0.00000              0.00393              0.12862         *
 * H              16     -0.00000             -0.08322             -0.03092         *
 * H              17      0.00000              0.05399              0.03003         *
 * H              18      0.00000              0.00393             -0.12862         *
 * H              19     -0.00000              0.08321             -0.03092         *
 * H              20      0.00000             -0.05399              0.03003         *
 * H              21      0.00000             -0.00393             -0.12862         *
 * H              22      0.00000              0.08322              0.03092         *
 * H              23      0.00000             -0.05400             -0.03003         *
 * H              24     -0.00000             -0.00393              0.12862         *
 *                                                                                  *
 ************************************************************************************

 ***************** Stress Tensor *****************
 *                                               *
 *          Cartesian components (GPa)           *
 * --------------------------------------------- *
 *             x             y             z     *
 *                                               *
 *  x   -268.451315      0.000000      0.000000  *
 *  y      0.000000   -266.487866      0.000029  *
 *  z      0.000000      0.000029   -269.346710  *
 *                                               *
 *  Pressure:  268.0953                          *
 *                                               *
 *************************************************
  
 +------------+-------------+-------------+-----------------+ <-- min LBFGS
 |    Step    |   lambda    |   F.delta'  |    enthalpy     | <-- min LBFGS
 +------------+-------------+-------------+-----------------+ <-- min LBFGS
 |  previous  |    0.000000 |    0.134803 |     -282.467346 | <-- min LBFGS
 | trial step |    1.000000 |   -0.103086 |     -282.473330 | <-- min LBFGS
 |  line step |    0.566663 |    0.000777 |     -282.481399 | <-- min LBFGS
 +------------+-------------+-------------+-----------------+ <-- min LBFGS
  
 LBFGS: finished iteration     3 with enthalpy= -2.82481399E+002 eV
  
 +-----------+-----------------+-----------------+------------+-----+ <-- LBFGS
 | Parameter |      value      |    tolerance    |    units   | OK? | <-- LBFGS
 +-----------+-----------------+-----------------+------------+-----+ <-- LBFGS
 |  dE/ion   |   5.855434E-004 |   1.000000E-009 |         eV | No  | <-- LBFGS
 |  |F|max   |   1.286852E-001 |   1.000000E-005 |       eV/A | No  | <-- LBFGS
 |  |dR|max  |   4.304970E-003 |   1.000000E-005 |          A | No  | <-- LBFGS
 |   Smax    |   3.512134E+000 |   1.000000E-005 |        GPa | No  | <-- LBFGS
 +-----------+-----------------+-----------------+------------+-----+ <-- LBFGS
  

================================================================================
 Starting LBFGS iteration          4 ...
================================================================================
  
 +------------+-------------+-------------+-----------------+ <-- min LBFGS
 |    Step    |   lambda    |   F.delta'  |    enthalpy     | <-- min LBFGS
 +------------+-------------+-------------+-----------------+ <-- min LBFGS
 |  previous  |    0.000000 |    0.057247 |     -282.481399 | <-- min LBFGS
 +------------+-------------+-------------+-----------------+ <-- min LBFGS
  

--------------------------------------------------------------------------------
 LBFGS: starting iteration         4 with trial guess (lambda=  1.000000)
--------------------------------------------------------------------------------

                           -------------------------------
                                      Unit Cell
                           -------------------------------
        Real Lattice(A)              Reciprocal Lattice(1/A)
     2.5896063     0.0000000    -0.0000000        2.426309055  -0.000000000   0.000000000
     0.0000000     4.8035365    -0.0000001       -0.000000000   1.308033207   0.000000016
    -0.0000000    -0.0000000     2.8976591        0.000000000   0.000000026   2.168365935

                       Lattice parameters(A)       Cell Angles
                    a =      2.589606          alpha =   90.000001
                    b =      4.803537          beta  =   90.000000
                    c =      2.897659          gamma =   90.000000

                Current cell volume =            36.044760 A**3

                           -------------------------------
                                     Cell Contents
                           -------------------------------

            xxxxxxxxxxxxxxxxxxxxxxxxxxxxxxxxxxxxxxxxxxxxxxxxxxxxxxxxxxxxxxxxx
            x  Element         Atom        Fractional coordinates of atoms  x
            x                 Number           u          v          w      x
            x---------------------------------------------------------------x
            x  H                 1         0.000000   0.003564   0.136344   x
            x  H                 2         0.000000   0.132219   0.454268   x
            x  H                 3        -0.000000   0.264821   0.318172   x
            x  H                 4         0.500000   0.264821   0.181828   x
            x  H                 5         0.500000   0.132219   0.045732   x
            x  H                 6         0.500000   0.003564   0.363656   x
            x  H                 7         0.500000   0.235179   0.681828   x
            x  H                 8         0.500000   0.367781   0.545732   x
            x  H                 9         0.500000   0.496436   0.863656   x
            x  H                10         0.500000   0.735179   0.818172   x
            x  H                11         0.500000   0.867781   0.954268   x
            x  H                12         0.500000   0.996436   0.636344   x
            x  H                13         0.500000   0.764821   0.318172   x
            x  H                14         0.500000   0.632219   0.454268   x
            x  H                15         0.500000   0.503564   0.136344   x
            x  H                16        -0.000000   0.764821   0.181828   x
            x  H                17         0.000000   0.632219   0.045732   x
            x  H                18         0.000000   0.503564   0.363656   x
            x  H                19        -0.000000   0.735179   0.681828   x
            x  H                20         0.000000   0.867781   0.545732   x
            x  H                21        -0.000000   0.996436   0.863656   x
            x  H                22         0.000000   0.235179   0.818173   x
            x  H                23        -0.000000   0.367781   0.954268   x
            x  H                24        -0.000000   0.496436   0.636344   x
            xxxxxxxxxxxxxxxxxxxxxxxxxxxxxxxxxxxxxxxxxxxxxxxxxxxxxxxxxxxxxxxxx


------------------------------------------------------------------------ <-- SCF
SCF loop      Energy                           Energy gain       Timer   <-- SCF
                                               per atom          (sec)   <-- SCF
------------------------------------------------------------------------ <-- SCF
Initial  -3.43070205E+002                                       1004.96  <-- SCF
      1  -3.43206960E+002                    5.69813810E-003    1017.76  <-- SCF
      2  -3.43207490E+002                    2.20875401E-005    1032.29  <-- SCF
      3  -3.43193919E+002                   -5.65462653E-004    1047.13  <-- SCF
      4  -3.43193692E+002                   -9.44708401E-006    1062.00  <-- SCF
      5  -3.43193691E+002                   -4.71302925E-008    1076.44  <-- SCF
      6  -3.43193691E+002                    1.57363546E-010    1091.26  <-- SCF
      7  -3.43193691E+002                    2.79308059E-011    1101.65  <-- SCF
      8  -3.43193691E+002                    3.04322525E-012    1111.94  <-- SCF
      9  -3.43193691E+002                    2.57798036E-013    1122.34  <-- SCF
------------------------------------------------------------------------ <-- SCF
 
Final energy =  -343.1936910953     eV
[...]
      H     1      S                    0.999
      H     2      S                    1.026
      H     3      S                    0.975
      H     4      S                    0.975
      H     5      S                    1.026
      H     6      S                    0.999
      H     7      S                    0.975
      H     8      S                    1.026
      H     9      S                    0.999
      H    10      S                    0.975
      H    11      S                    1.026
      H    12      S                    0.999
      H    13      S                    0.975
      H    14      S                    1.026
      H    15      S                    0.999
      H    16      S                    0.975
      H    17      S                    1.026
      H    18      S                    0.999
      H    19      S                    0.975
      H    20      S                    1.026
      H    21      S                    0.999
      H    22      S                    0.975
      H    23      S                    1.026
      H    24      S                    0.999
  -------------------------------------------
                           Total:      24.000
  -------------------------------------------

     Atomic Populations (Mulliken)
     -----------------------------
Species          Ion     s      p      d      f     Total  Charge (e)
=====================================================================
  H               1     1.00   0.00   0.00   0.00   1.00     0.00
  H               2     1.03   0.00   0.00   0.00   1.03    -0.03
  H               3     0.97   0.00   0.00   0.00   0.97     0.03
  H               4     0.97   0.00   0.00   0.00   0.97     0.03
  H               5     1.03   0.00   0.00   0.00   1.03    -0.03
  H               6     1.00   0.00   0.00   0.00   1.00     0.00
  H               7     0.97   0.00   0.00   0.00   0.97     0.03
  H               8     1.03   0.00   0.00   0.00   1.03    -0.03
  H               9     1.00   0.00   0.00   0.00   1.00     0.00
  H              10     0.97   0.00   0.00   0.00   0.97     0.03
  H              11     1.03   0.00   0.00   0.00   1.03    -0.03
  H              12     1.00   0.00   0.00   0.00   1.00     0.00
  H              13     0.97   0.00   0.00   0.00   0.97     0.03
  H              14     1.03   0.00   0.00   0.00   1.03    -0.03
  H              15     1.00   0.00   0.00   0.00   1.00     0.00
  H              16     0.97   0.00   0.00   0.00   0.97     0.03
  H              17     1.03   0.00   0.00   0.00   1.03    -0.03
  H              18     1.00   0.00   0.00   0.00   1.00     0.00
  H              19     0.97   0.00   0.00   0.00   0.97     0.03
  H              20     1.03   0.00   0.00   0.00   1.03    -0.03
  H              21     1.00   0.00   0.00   0.00   1.00     0.00
  H              22     0.97   0.00   0.00   0.00   0.97     0.03
  H              23     1.03   0.00   0.00   0.00   1.03    -0.03
  H              24     1.00   0.00   0.00   0.00   1.00     0.00
=====================================================================

                 Bond                   Population      Length (A)
======================================================================
              H 10 -- H 11                   1.69        0.75567
              H 13 -- H 14                   1.69        0.75567
              H 16 -- H 17                   1.69        0.75567
              H 2  -- H 3                    1.69        0.75567
              H 22 -- H 23                   1.69        0.75567
              H 7  -- H 8                    1.69        0.75567
              H 19 -- H 20                   1.69        0.75567
              H 4  -- H 5                    1.69        0.75567
              H 9  -- H 15                   1.46        0.77176
              H 18 -- H 24                   1.46        0.77176
              H 1  -- H 21                   1.46        0.77176
              H 6  -- H 12                   1.46        0.77176
              H 1  -- H 2                    0.16        1.12516
              H 20 -- H 21                   0.16        1.12516
              H 5  -- H 6                    0.16        1.12516
              H 11 -- H 12                   0.16        1.12516
              H 17 -- H 18                   0.16        1.12516
              H 23 -- H 24                   0.16        1.12516
              H 14 -- H 15                   0.16        1.12516
              H 8  -- H 9                    0.16        1.12516
              H 21 -- H 22                   0.23        1.15652
              H 4  -- H 15                   0.23        1.15652
              H 7  -- H 12                   0.23        1.15652
              H 1  -- H 16                   0.23        1.15652
              H 6  -- H 13                   0.23        1.15652
              H 19 -- H 24                   0.23        1.15652
              H 9  -- H 10                   0.23        1.15652
              H 3  -- H 18                   0.23        1.15652
              H 17 -- H 19                  -0.08        1.16488
              H 4  -- H 8                   -0.08        1.16488
              H 3  -- H 23                  -0.08        1.16488
              H 5  -- H 7                   -0.08        1.16488
              H 11 -- H 13                  -0.08        1.16488
              H 10 -- H 14                  -0.08        1.16488
              H 16 -- H 20                  -0.08        1.16488
              H 2  -- H 22                  -0.08        1.16488
              H 5  -- H 11                  -0.04        1.30112
              H 2  -- H 20                  -0.04        1.30112
              H 8  -- H 14                  -0.04        1.30112
              H 17 -- H 23                  -0.04        1.30112
              H 10 -- H 19                   0.03        1.35782
              H 7  -- H 22                   0.03        1.35782
              H 3  -- H 4                    0.03        1.35782
              H 13 -- H 16                   0.03        1.35782
              H 5  -- H 12                  -0.27        1.36386
              H 8  -- H 15                  -0.27        1.36386
              H 9  -- H 14                  -0.27        1.36386
              H 18 -- H 23                  -0.27        1.36386
              H 6  -- H 11                  -0.27        1.36386
              H 2  -- H 21                  -0.27        1.36386
              H 1  -- H 20                  -0.27        1.36386
              H 17 -- H 24                  -0.27        1.36386
              H 10 -- H 12                  -0.09        1.37430
              H 16 -- H 18                  -0.09        1.37430
              H 1  -- H 3                   -0.09        1.37430
              H 4  -- H 6                   -0.09        1.37430
              H 22 -- H 24                  -0.09        1.37430
              H 7  -- H 9                   -0.09        1.37430
              H 19 -- H 21                  -0.09        1.37430
              H 13 -- H 15                  -0.09        1.37430
              H 18 -- H 19                  -0.23        1.44507
              H 3  -- H 24                  -0.23        1.44507
              H 1  -- H 22                  -0.23        1.44507
              H 6  -- H 7                   -0.23        1.44507
              H 12 -- H 13                  -0.23        1.44507
              H 16 -- H 21                  -0.23        1.44507
              H 4  -- H 9                   -0.23        1.44507
              H 10 -- H 15                  -0.23        1.44507
              H 10 -- H 13                  -0.31        1.46046
              H 3  -- H 22                  -0.31        1.46046
              H 4  -- H 7                   -0.31        1.46046
              H 16 -- H 19                  -0.31        1.46046
              H 2  -- H 6                   -0.14        1.46328
              H 8  -- H 24                  -0.14        1.46328
              H 1  -- H 5                   -0.14        1.46328
              H 11 -- H 21                  -0.14        1.46328
              H 14 -- H 18                  -0.14        1.46328
              H 12 -- H 20                  -0.14        1.46328
              H 15 -- H 17                  -0.14        1.46328
              H 9  -- H 23                  -0.14        1.46328
              H 12 -- H 21                  -0.20        1.46739
              H 1  -- H 6                   -0.20        1.46739
              H 15 -- H 18                  -0.20        1.46739
              H 9  -- H 24                  -0.20        1.46739
              H 4  -- H 23                  -0.21        1.53926
              H 14 -- H 19                  -0.21        1.53926
              H 3  -- H 8                   -0.21        1.53926
              H 5  -- H 22                  -0.21        1.53926
              H 11 -- H 16                  -0.21        1.53926
              H 13 -- H 20                  -0.21        1.53926
              H 10 -- H 17                  -0.21        1.53926
              H 2  -- H 7                   -0.21        1.53926
              H 15 -- H 23                  -0.16        1.54256
              H 9  -- H 17                  -0.16        1.54256
              H 1  -- H 11                  -0.16        1.54256
              H 5  -- H 21                  -0.16        1.54256
              H 2  -- H 12                  -0.16        1.54256
              H 8  -- H 18                  -0.16        1.54256
              H 6  -- H 20                  -0.16        1.54256
              H 14 -- H 24                  -0.16        1.54256
              H 10 -- H 20                  -0.36        1.65207
              H 14 -- H 16                  -0.36        1.65207
              H 7  -- H 23                  -0.36        1.65207
              H 2  -- H 4                   -0.36        1.65207
              H 3  -- H 5                   -0.36        1.65207
              H 13 -- H 17                  -0.36        1.65207
              H 11 -- H 19                  -0.36        1.65207
              H 8  -- H 22                  -0.36        1.65207
              H 13 -- H 19                  -0.39        1.68247
              H 3  -- H 7                   -0.39        1.68247
              H 10 -- H 16                  -0.39        1.68247
              H 4  -- H 22                  -0.39        1.68247
              H 11 -- H 17                  -0.25        1.74643
              H 14 -- H 20                  -0.25        1.74643
              H 5  -- H 23                  -0.25        1.74643
              H 2  -- H 8                   -0.25        1.74643
              H 2  -- H 5                   -0.65        1.76341
              H 11 -- H 20                  -0.65        1.76341
              H 14 -- H 17                  -0.65        1.76341
              H 8  -- H 23                  -0.65        1.76341
              H 21 -- H 23                  -0.17        1.80742
              H 9  -- H 11                  -0.17        1.80742
              H 1  -- H 17                  -0.17        1.80742
              H 6  -- H 14                  -0.17        1.80742
              H 8  -- H 12                  -0.17        1.80742
              H 5  -- H 15                  -0.17        1.80742
              H 20 -- H 24                  -0.17        1.80742
              H 2  -- H 18                  -0.17        1.80742
              H 9  -- H 19                  -0.14        1.81511
              H 12 -- H 22                  -0.14        1.81511
              H 7  -- H 21                  -0.14        1.81511
              H 1  -- H 13                  -0.14        1.81511
              H 4  -- H 18                  -0.14        1.81511
              H 6  -- H 16                  -0.14        1.81511
              H 3  -- H 15                  -0.14        1.81511
              H 10 -- H 24                  -0.14        1.81511
              H 10 -- H 21                  -0.31        1.81880
              H 3  -- H 6                   -0.31        1.81880
              H 7  -- H 24                  -0.31        1.81880
              H 13 -- H 18                  -0.31        1.81880
              H 1  -- H 4                   -0.31        1.81880
              H 15 -- H 16                  -0.31        1.81880
              H 12 -- H 19                  -0.31        1.81880
              H 9  -- H 22                  -0.31        1.81880
              H 1  -- H 23                  -0.29        1.83432
              H 6  -- H 8                   -0.29        1.83432
              H 17 -- H 21                  -0.29        1.83432
              H 18 -- H 20                  -0.29        1.83432
              H 12 -- H 14                  -0.29        1.83432
              H 2  -- H 24                  -0.29        1.83432
              H 11 -- H 15                  -0.29        1.83432
              H 5  -- H 9                   -0.29        1.83432
              H 7  -- H 15                  -0.41        1.84062
              H 6  -- H 10                  -0.41        1.84062
              H 3  -- H 21                  -0.41        1.84062
              H 9  -- H 13                  -0.41        1.84062
              H 16 -- H 24                  -0.41        1.84062
              H 4  -- H 12                  -0.41        1.84062
              H 1  -- H 19                  -0.41        1.84062
              H 18 -- H 22                  -0.41        1.84062
              H 17 -- H 20                  -0.40        1.84536
              H 2  -- H 23                  -0.40        1.84536
              H 11 -- H 14                  -0.40        1.84536
              H 5  -- H 8                   -0.40        1.84536
              H 2  -- H 16                  -0.10        1.93995
              H 20 -- H 22                  -0.10        1.93995
              H 5  -- H 13                  -0.10        1.93995
              H 7  -- H 11                  -0.10        1.93995
              H 19 -- H 23                  -0.10        1.93995
              H 4  -- H 14                  -0.10        1.93995
              H 3  -- H 17                  -0.10        1.93995
              H 8  -- H 10                  -0.10        1.93995
              H 1  -- H 12                  -0.49        1.94953
              H 6  -- H 21                  -0.49        1.94953
              H 9  -- H 18                  -0.49        1.94953
              H 15 -- H 24                  -0.49        1.94953
              H 5  -- H 10                  -0.13        2.02688
              H 3  -- H 20                  -0.13        2.02688
              H 8  -- H 13                  -0.13        2.02688
              H 4  -- H 11                  -0.13        2.02688
              H 2  -- H 19                  -0.13        2.02688
              H 16 -- H 23                  -0.13        2.02688
              H 7  -- H 14                  -0.13        2.02688
              H 17 -- H 22                  -0.13        2.02688
              H 1  -- H 10                  -0.24        2.04915
              H 9  -- H 16                  -0.24        2.04915
              H 3  -- H 12                  -0.24        2.04915
              H 15 -- H 22                  -0.24        2.04915
              H 13 -- H 24                  -0.24        2.04915
              H 4  -- H 21                  -0.24        2.04915
              H 7  -- H 18                  -0.24        2.04915
              H 6  -- H 19                  -0.24        2.04915
              H 4  -- H 24                  -0.20        2.15719
              H 15 -- H 19                  -0.20        2.15719
              H 6  -- H 22                  -0.20        2.15719
              H 1  -- H 7                   -0.20        2.15719
              H 13 -- H 21                  -0.20        2.15719
              H 12 -- H 16                  -0.20        2.15719
              H 10 -- H 18                  -0.20        2.15719
              H 3  -- H 9                   -0.20        2.15719
              H 2  -- H 13                  -0.04        2.23193
              H 11 -- H 22                  -0.04        2.23193
              H 8  -- H 19                  -0.04        2.23193
              H 5  -- H 16                  -0.04        2.23193
              H 7  -- H 20                  -0.04        2.23193
              H 4  -- H 17                  -0.04        2.23193
              H 3  -- H 14                  -0.04        2.23193
              H 10 -- H 23                  -0.04        2.23193
              H 2  -- H 11                  -0.07        2.32909
              H 5  -- H 20                  -0.07        2.32909
              H 8  -- H 17                  -0.07        2.32909
              H 14 -- H 23                  -0.07        2.32909
              H 9  -- H 20                   0.07        2.40166
              H 12 -- H 23                   0.07        2.40166
              H 1  -- H 14                   0.07        2.40166
              H 6  -- H 17                   0.07        2.40166
              H 8  -- H 21                   0.07        2.40166
              H 2  -- H 15                   0.07        2.40166
              H 5  -- H 18                   0.07        2.40166
              H 11 -- H 24                   0.07        2.40166
              H 7  -- H 10                  -0.06        2.44413
              H 3  -- H 16                  -0.06        2.44413
              H 19 -- H 22                  -0.06        2.44413
              H 4  -- H 13                  -0.06        2.44413
              H 6  -- H 23                   0.07        2.49435
              H 12 -- H 17                   0.07        2.49435
              H 11 -- H 18                   0.07        2.49435
              H 1  -- H 8                    0.07        2.49435
              H 14 -- H 21                   0.07        2.49435
              H 5  -- H 24                   0.07        2.49435
              H 15 -- H 20                   0.07        2.49435
              H 2  -- H 9                    0.07        2.49435
              H 16 -- H 22                  -0.03        2.50119
              H 3  -- H 19                  -0.03        2.50119
              H 7  -- H 13                  -0.03        2.50119
              H 4  -- H 10                  -0.03        2.50119
              H 9  -- H 12                   0.00        2.50666
              H 21 -- H 24                   0.00        2.50666
              H 1  -- H 18                   0.00        2.50666
              H 6  -- H 15                   0.00        2.50666
              H 2  -- H 10                   0.10        2.54407
              H 3  -- H 11                   0.10        2.54407
              H 8  -- H 16                   0.10        2.54407
              H 7  -- H 17                   0.10        2.54407
              H 5  -- H 19                   0.10        2.54407
              H 4  -- H 20                   0.10        2.54407
              H 13 -- H 23                   0.10        2.54407
              H 14 -- H 22                   0.10        2.54407
======================================================================


Writing analysis data to Cmca-12.castep_bin

Writing model to Cmca-12.check
 
 A BibTeX formatted list of references used in this run has been written to 
 Cmca-12.bib
 
Initialisation time =      5.13 s
Calculation time    =   3686.93 s
Finalisation time   =      6.64 s
Total time          =   3698.70 s
Peak Memory Use     = 652020 kB
  
Overall parallel efficiency rating: Excellent (90%)                             
  
Data was distributed by:-
k-point (16-way); efficiency rating: Excellent (91%)                            
