 +-------------------------------------------------+
 |                                                 |
 |      CCC   AA    SSS  TTTTT  EEEEE  PPPP        |
 |     C     A  A  S       T    E      P   P       |
 |     C     AAAA   SS     T    EEE    PPPP        |
 |     C     A  A     S    T    E      P           |
 |      CCC  A  A  SSS     T    EEEEE  P           |
 |                                                 |
 +-------------------------------------------------+
 |                                                 |
 | Welcome to Academic Release CASTEP version 18.1 |          
 | Ab Initio Total Energy Program                  |
 |                                                 |
 | Authors:                                        |
 | M. Segall, M. Probert, C. Pickard, P. Hasnip,   |
 | S. Clark, K. Refson, J. R. Yates, M. Payne      |
 |                                                 |
 | Contributors:                                   |
 | P. Lindan, P. Haynes, J. White, V. Milman,      |
 | N. Govind, M. Gibson, P. Tulip, V. Cocula,      |
 | B. Montanari, D. Quigley, M. Glover,            |
 | L. Bernasconi, A. Perlov, M. Plummer,           |
 | E. McNellis, J. Meyer, J. Gale, D. Jochym       |
 | J. Aarons, B. Walker, R. Gillen, D. Jones       |
 | T. Green, I. J. Bush, C. J. Armstrong,          |
 | E. J. Higgins, E. L. Brown, M. S. McFly,        |
 | J. Wilkins, B-C. Shih, P. J. P. Byrne           |
 |                                                 |
 | Copyright (c) 2000 - 2017                       |
 |                                                 |
 |     Distributed under the terms of an           |
 |     Agreement between the United Kingdom        |
 |     Car-Parrinello (UKCP) Consortium,           |
 |     Daresbury Laboratory and Accelrys, Inc.     |
 |                                                 |
 | Please cite                                     |
 |                                                 |
 |     "First principles methods using CASTEP"     |
 |                                                 |
 |         Zeitschrift fuer Kristallographie       |
 |           220(5-6) pp. 567-570 (2005)           |
 |                                                 |
 | S. J. Clark, M. D. Segall, C. J. Pickard,       |
 | P. J. Hasnip, M. J. Probert, K. Refson,         |
 | M. C. Payne                                     |
 |                                                 |
 |       in all publications arising from          |
 |              your use of CASTEP                 |
 |                                                 |
 +-------------------------------------------------+


 Compiled for linux_x86_64_gfortran4.8 on Thu, 19 Jul 2018 15:42:32 +0100
 from code version 70483bd0ad64+  Sun, 10 Dec 2017 12:18:29 +0000
 Compiler: GNU Fortran 4.8.5; Optimisation: fast
 MATHLIBS: Intel MKL(2018.0.0) (LAPACK version 3.7.0)
 FFT Lib : mkl
 Fundamental constants values: CODATA 2014

 Run started: Thu, 13 Aug 2020 22:48:35 +0100

 Atomic calculation performed for H: 1s1

 Converged in 41 iterations to an ae energy of -12.488 eV

   ============================================================                
   | Pseudopotential Report - Date of generation 13-08-2020   |                
   ------------------------------------------------------------                
   | Element: H Ionic charge:  1.00 Level of theory: PBE      |                
   | Atomic Solver: Koelling-Harmon                           |                
   |                                                          |                
   |               Reference Electronic Structure             |                
   |         Orbital         Occupation         Energy        |                
   |            1s              1.000           -0.239        |                
   |                                                          |                
   |                 Pseudopotential Definition               |                
   |        Beta     l      e      Rc     scheme   norm       |                
   |          1      0   -0.239   0.599     qc      0         |                
   |          2      0    0.250   0.599     qc      0         |                
   |         loc     1    0.000   0.599     pn      0         |                
   |                                                          |                
   | Augmentation charge Rinner = 0.421                       |                
   | No partial core correction                               |                
   ------------------------------------------------------------                
   | "1|0.6|13|15|17|10(qc=8)"                                |                
   ------------------------------------------------------------                
   |      Author: Chris J. Pickard, Cambridge University      |                
   ============================================================                

 Pseudo atomic calculation performed for H 1s1

 Converged in 24 iterations to a total energy of -12.4866 eV

 Calculation parallelised over 16 processes.
 Data is distributed by k-point(16-way)

 ************************************ Title ************************************
 

 ***************************** General Parameters ******************************
  
 output verbosity                               : normal  (1)
 write checkpoint data to                       : Cmca-12.check
 type of calculation                            : geometry optimization
 stress calculation                             : on
 density difference calculation                 : off
 electron localisation func (ELF) calculation   : off
 Hirshfeld analysis                             : off
 unlimited duration calculation
 timing information                             : on
 memory usage estimate                          : on
 write extra output files                       : on
 write final potential to formatted file        : off
 write final density to formatted file          : off
 write structure in CELL formatted file         : on
 write BibTeX reference list                    : on
 write OTFG pseudopotential files               : on
 write electrostatic potential file             : on
 write bands file                               : on
 checkpoint writing                             : both castep_bin and check files
  
 output         length unit                     : A
 output           mass unit                     : amu
 output           time unit                     : ps
 output         charge unit                     : e
 output           spin unit                     : hbar/2
 output         energy unit                     : eV
 output          force unit                     : eV/A
 output       velocity unit                     : A/ps
 output       pressure unit                     : GPa
 output     inv_length unit                     : 1/A
 output      frequency unit                     : cm-1
 output force constant unit                     : eV/A**2
 output         volume unit                     : A**3
 output   IR intensity unit                     : (D/A)**2/amu
 output         dipole unit                     : D
 output         efield unit                     : eV/A/e
 output        entropy unit                     : J/mol/K
  
 wavefunctions paging                           : none
 random number generator seed                   : randomised (224835647)
 data distribution                              : optimal for this architecture
 optimization strategy                          : maximize speed(+++)

 *********************** Exchange-Correlation Parameters ***********************
  
 using functional                               : Perdew Burke Ernzerhof
 relativistic treatment                         : Koelling-Harmon
 DFT+D: Semi-empirical dispersion correction    : off

 ************************* Pseudopotential Parameters **************************
  
 pseudopotential representation                 : reciprocal space
 <beta|phi> representation                      : reciprocal space
 spin-orbit coupling                            : off

 **************************** Basis Set Parameters *****************************
  
 plane wave basis set cut-off                   :  1200.0000   eV
 size of standard grid                          :     2.0000
 size of   fine   gmax                          :    35.4943   1/A
 finite basis set correction                    : automatic
 number of sample energies                      :          3
           sample  spacing                      :     5.0000   eV

 **************************** Electronic Parameters ****************************
  
 number of  electrons                           :  24.00    
 net charge of system                           :  0.000    
 treating system as non-spin-polarized
 number of bands                                :         12

 ********************* Electronic Minimization Parameters **********************
  
 Method: Treating system as non-metallic,
         and number of  SD  steps               :          1
         and number of  CG  steps               :          4
  
 total energy / atom convergence tol.           : 0.1000E-10   eV
 eigen-energy convergence tolerance             : 0.2000E-10   eV
 max force / atom convergence tol.              : ignored
 convergence tolerance window                   :          3   cycles
 max. number of SCF cycles                      :        100
 periodic dipole correction                     : NONE

 ************************** Density Mixing Parameters **************************
  
 density-mixing scheme                          : Broyden
 max. length of mixing history                  :         20
 charge density mixing amplitude                : 0.8000    
 cut-off energy for mixing                      :  1200.       eV

 *********************** Population Analysis Parameters ************************
  
 Population analysis with cutoff                :  3.000       A
 Population analysis output                     : summary and pdos components

 ********************** Geometry Optimization Parameters ***********************
  
 optimization method                            : LBFGS
 max. no. of LBFGS updates                      : unbounded
 variable cell method                           : fixed basis quality
 max. number of steps                           :        200
 estimated bulk modulus                         :  500.0       GPa
 estimated <frequency>                          :  1668.       cm-1
 geom line minimiser                            : on
 with line minimiser tolerance                  :     0.4000
 total energy convergence tolerance             : 0.1000E-08   eV/atom
        max ionic |force| tolerance             : 0.1000E-04   eV/A
 max ionic |displacement| tolerance             : 0.1000E-04   A
   max |stress component| tolerance             : 0.1000E-04   GPa
 convergence tolerance window                   :          2   steps
 backup results every                           :      14400   seconds
 write geom trajectory file                     : on

 *******************************************************************************
  

                           -------------------------------
                                      Unit Cell
                           -------------------------------
        Real Lattice(A)                      Reciprocal Lattice(1/A)
     2.6425360    -0.0000000    -0.0000000        2.377710424   0.000000000   0.000000000
    -0.0000000     4.9019258    -0.0000000        0.000000000   1.281778943   0.000000003
    -0.0000000    -0.0000000     2.9513276        0.000000000   0.000000004   2.128935229

                       Lattice parameters(A)       Cell Angles
                    a =      2.642536          alpha =   90.000000
                    b =      4.901926          beta  =   90.000000
                    c =      2.951328          gamma =   90.000000

                       Current cell volume =            38.230067       A**3
                                   density =             0.632763   AMU/A**3
                                           =             1.050727     g/cm^3

                           -------------------------------
                                     Cell Contents
                           -------------------------------
                         Total number of ions in cell =   24
                      Total number of species in cell =    1
                        Max number of any one species =   24

            xxxxxxxxxxxxxxxxxxxxxxxxxxxxxxxxxxxxxxxxxxxxxxxxxxxxxxxxxxxx
            x  Element    Atom        Fractional coordinates of atoms  x
            x            Number           u          v          w      x
            x----------------------------------------------------------x
            x  H            1        -0.000000   0.002154   0.130408   x 
            x  H            2        -0.000000   0.132364   0.454983   x 
            x  H            3         0.000000   0.262953   0.319288   x 
            x  H            4         0.500000   0.262953   0.180712   x 
            x  H            5         0.500000   0.132364   0.045017   x 
            x  H            6         0.500000   0.002154   0.369592   x 
            x  H            7         0.500000   0.237047   0.680712   x 
            x  H            8         0.500000   0.367636   0.545017   x 
            x  H            9         0.500000   0.497846   0.869592   x 
            x  H           10         0.500000   0.737047   0.819288   x 
            x  H           11         0.500000   0.867636   0.954983   x 
            x  H           12         0.500000   0.997846   0.630408   x 
            x  H           13         0.500000   0.762953   0.319288   x 
            x  H           14         0.500000   0.632364   0.454983   x 
            x  H           15         0.500000   0.502154   0.130408   x 
            x  H           16        -0.000000   0.762953   0.180712   x 
            x  H           17        -0.000000   0.632364   0.045017   x 
            x  H           18         0.000000   0.502154   0.369592   x 
            x  H           19         0.000000   0.737047   0.680712   x 
            x  H           20        -0.000000   0.867636   0.545017   x 
            x  H           21        -0.000000   0.997846   0.869592   x 
            x  H           22        -0.000000   0.237047   0.819288   x 
            x  H           23        -0.000000   0.367636   0.954983   x 
            x  H           24        -0.000000   0.497846   0.630408   x 
            xxxxxxxxxxxxxxxxxxxxxxxxxxxxxxxxxxxxxxxxxxxxxxxxxxxxxxxxxxxx


                         No user defined ionic velocities

                           -------------------------------
                                   Details of Species
                           -------------------------------

                               Mass of species in AMU
                                    H    1.0078250

                          Electric Quadrupole Moment (Barn)
                                    H    0.0028600 Isotope  2

                          Files used for pseudopotentials:
                                    H 1|0.6|13|15|17|10(qc=8)

                           -------------------------------
                              k-Points For BZ Sampling
                           -------------------------------
                       MP grid size for SCF calculation is 10 10 10
                            with an offset of   0.000  0.000  0.000
                       Number of kpoints used =           500

                           -------------------------------
                               Symmetry and Constraints
                           -------------------------------

                      Cell is a supercell containing 2 primitive cells
                      Maximum deviation from symmetry =  0.00000         ANG

                      Number of symmetry operations   =           1
                      Number of ionic constraints     =           3
                      Point group of crystal =     1: C1, 1, 1
                      Space group of crystal =    64: Cmce, -C 2bc 2

             Set iprint > 1 for details on symmetry rotations/translations

                         Centre of mass is constrained
             Set iprint > 1 for details of linear ionic constraints

                         Number of cell constraints= 0
                         Cell constraints are:  1 2 3 4 5 6

                         External pressure/stress (GPa)
                        210.00000   0.00000   0.00000
                                  210.00000   0.00000
                                            210.00000
  
+---------------- MEMORY AND SCRATCH DISK ESTIMATES PER PROCESS --------------+
|                                                     Memory          Disk    |
| Baseline code, static data and system overhead      411.0 MB         0.0 MB |
| BLAS internal memory storage                          0.0 MB         0.0 MB |
| Model and support data                               70.3 MB         0.0 MB |
| Electronic energy minimisation requirements          59.9 MB         0.0 MB |
| Force calculation requirements                        7.4 MB         0.0 MB |
| Stress calculation requirements                       9.4 MB         0.0 MB |
|                                               ----------------------------- |
| Approx. total storage required per process          541.2 MB         0.0 MB |
|                                                                             |
| Requirements will fluctuate during execution and may exceed these estimates |
+-----------------------------------------------------------------------------+
Calculating finite basis set correction with  3 cut-off energies.
Calculating total energy with cut-off of 1190.000 eV.
------------------------------------------------------------------------ <-- SCF
SCF loop      Energy                           Energy gain       Timer   <-- SCF
                                               per atom          (sec)   <-- SCF
------------------------------------------------------------------------ <-- SCF
Initial   5.55360512E+002                                          7.67  <-- SCF
      1  -2.93628707E+002                    3.53745508E+001      24.91  <-- SCF
      2  -3.46967180E+002                    2.22243638E+000      38.63  <-- SCF
      3  -3.46752964E+002                   -8.92567188E-003      56.99  <-- SCF
      4  -3.46736769E+002                   -6.74797299E-004      74.11  <-- SCF
      5  -3.46737127E+002                    1.49378216E-005      89.94  <-- SCF
      6  -3.46737155E+002                    1.15168955E-006     106.05  <-- SCF
      7  -3.46737155E+002                    2.49167038E-009     123.32  <-- SCF
      8  -3.46737155E+002                    2.08373318E-010     138.29  <-- SCF
      9  -3.46737155E+002                    5.57488252E-012     149.95  <-- SCF
     10  -3.46737155E+002                    2.05432810E-013     162.12  <-- SCF
------------------------------------------------------------------------ <-- SCF
 
Final energy =  -346.7371550438     eV
(energy not corrected for finite basis set)
 
Calculating total energy with cut-off of 1195.000 eV.
------------------------------------------------------------------------ <-- SCF
SCF loop      Energy                           Energy gain       Timer   <-- SCF
                                               per atom          (sec)   <-- SCF
------------------------------------------------------------------------ <-- SCF
Initial  -3.46737155E+002                                        166.81  <-- SCF
      1  -3.46737197E+002                    1.76720776E-006     180.43  <-- SCF
      2  -3.46737197E+002                    1.03924833E-012     191.66  <-- SCF
      3  -3.46737197E+002                    4.90706476E-010     203.65  <-- SCF
      4  -3.46737197E+002                    7.85478390E-012     214.28  <-- SCF
      5  -3.46737197E+002                   -2.45713753E-013     224.74  <-- SCF
------------------------------------------------------------------------ <-- SCF
 
Final energy =  -346.7371974688     eV
(energy not corrected for finite basis set)
 
Calculating total energy with cut-off of 1200.000 eV.
------------------------------------------------------------------------ <-- SCF
SCF loop      Energy                           Energy gain       Timer   <-- SCF
                                               per atom          (sec)   <-- SCF
------------------------------------------------------------------------ <-- SCF
Initial  -3.46737197E+002                                        229.93  <-- SCF
      1  -3.46737242E+002                    1.87279633E-006     243.93  <-- SCF
      2  -3.46737242E+002                    1.21648448E-012     254.74  <-- SCF
      3  -3.46737242E+002                    5.31442594E-010     265.65  <-- SCF
      4  -3.46737242E+002                    7.62518252E-012     277.34  <-- SCF
      5  -3.46737242E+002                    3.18219450E-013     288.05  <-- SCF
------------------------------------------------------------------------ <-- SCF
 
Final energy =  -346.7372424288     eV
(energy not corrected for finite basis set)
 
 For future reference: finite basis dEtot/dlog(Ecut) =      -0.010506eV
 Total energy corrected for finite basis set =    -346.737243 eV
 
+---------------- MEMORY AND SCRATCH DISK ESTIMATES PER PROCESS --------------+
|                                                     Memory          Disk    |
| Model and support data                               78.4 MB         0.0 MB |
| Electronic energy minimisation requirements          59.9 MB         0.0 MB |
| Geometry minimisation requirements                   83.0 MB         0.0 MB |
|                                               ----------------------------- |
| Approx. total storage required per process          221.2 MB         0.0 MB |
|                                                                             |
| Requirements will fluctuate during execution and may exceed these estimates |
+-----------------------------------------------------------------------------+
 

 ************************************** Forces **************************************
 *                                                                                  *
 *                           Cartesian components (eV/A)                            *
 * -------------------------------------------------------------------------------- *
 *                         x                    y                    z              *
 *                                                                                  *
 * H               1     -0.00000              0.00000             -0.00000         *
 * H               2      0.00000              0.00000             -0.00000         *
 * H               3     -0.00000             -0.00000              0.00000         *
 * H               4      0.00000             -0.00000             -0.00000         *
 * H               5     -0.00000             -0.00000              0.00000         *
 * H               6     -0.00000             -0.00000              0.00000         *
 * H               7      0.00000              0.00000             -0.00000         *
 * H               8      0.00000             -0.00000              0.00000         *
 * H               9     -0.00000              0.00000              0.00000         *
 * H              10     -0.00000              0.00000              0.00000         *
 * H              11      0.00000             -0.00000             -0.00000         *
 * H              12     -0.00000              0.00000             -0.00000         *
 * H              13     -0.00000             -0.00000              0.00000         *
 * H              14      0.00000              0.00000             -0.00000         *
 * H              15     -0.00000             -0.00000             -0.00000         *
 * H              16      0.00000              0.00000              0.00000         *
 * H              17      0.00000             -0.00000             -0.00000         *
 * H              18     -0.00000             -0.00000              0.00000         *
 * H              19     -0.00000              0.00000             -0.00000         *
 * H              20      0.00000             -0.00000              0.00000         *
 * H              21      0.00000              0.00000              0.00000         *
 * H              22     -0.00000              0.00000              0.00000         *
 * H              23      0.00000             -0.00000             -0.00000         *
 * H              24      0.00000              0.00000             -0.00000         *
 *                                                                                  *
 ************************************************************************************

 ***************** Stress Tensor *****************
 *                                               *
 *          Cartesian components (GPa)           *
 * --------------------------------------------- *
 *             x             y             z     *
 *                                               *
 *  x   -239.997867     -0.000000     -0.000000  *
 *  y     -0.000000   -239.997861     -0.000003  *
 *  z     -0.000000     -0.000003   -239.997865  *
 *                                               *
 *  Pressure:  239.9979                          *
 *                                               *
 *************************************************
 LBFGS: finished iteration     0 with enthalpy= -2.96628447E+002 eV
  
 +-----------+-----------------+-----------------+------------+-----+ <-- LBFGS
 | Parameter |      value      |    tolerance    |    units   | OK? | <-- LBFGS
 +-----------+-----------------+-----------------+------------+-----+ <-- LBFGS
 |  dE/ion   |   0.000000E+000 |   1.000000E-009 |         eV | No  | <-- LBFGS
 |  |F|max   |   4.219391E-007 |   1.000000E-005 |       eV/A | Yes | <-- LBFGS
 |  |dR|max  |   0.000000E+000 |   1.000000E-005 |          A | No  | <-- LBFGS
 |   Smax    |   2.999787E+001 |   1.000000E-005 |        GPa | No  | <-- LBFGS
 +-----------+-----------------+-----------------+------------+-----+ <-- LBFGS
  

================================================================================
 Starting LBFGS iteration          1 ...
================================================================================
  
 +------------+-------------+-------------+-----------------+ <-- min LBFGS
 |    Step    |   lambda    |   F.delta'  |    enthalpy     | <-- min LBFGS
 +------------+-------------+-------------+-----------------+ <-- min LBFGS
 |  previous  |    0.000000 |    0.455612 |     -296.628447 | <-- min LBFGS
 +------------+-------------+-------------+-----------------+ <-- min LBFGS
  

--------------------------------------------------------------------------------
 LBFGS: starting iteration         1 with trial guess (lambda=  1.000000)
--------------------------------------------------------------------------------
 
+---------------- MEMORY AND SCRATCH DISK ESTIMATES PER PROCESS --------------+
|                                                     Memory          Disk    |
| Model and support data                               81.7 MB         0.0 MB |
| Electronic energy minimisation requirements          63.7 MB         0.0 MB |
| Geometry minimisation requirements                   88.3 MB         0.0 MB |
|                                               ----------------------------- |
| Approx. total storage required per process          233.7 MB         0.0 MB |
|                                                                             |
| Requirements will fluctuate during execution and may exceed these estimates |
+-----------------------------------------------------------------------------+
 

                           -------------------------------
                                      Unit Cell
                           -------------------------------
        Real Lattice(A)              Reciprocal Lattice(1/A)
     2.6953829     0.0000000     0.0000000        2.331091901  -0.000000000  -0.000000000
     0.0000000     4.9999574     0.0000000       -0.000000000   1.256647780  -0.000000000
     0.0000000     0.0000000     3.0103500       -0.000000000  -0.000000000   2.087194314

                       Lattice parameters(A)       Cell Angles
                    a =      2.695383          alpha =   90.000000
                    b =      4.999957          beta  =   90.000000
                    c =      3.010350          gamma =   90.000000

                Current cell volume =            40.569883 A**3

                           -------------------------------
                                     Cell Contents
                           -------------------------------

            xxxxxxxxxxxxxxxxxxxxxxxxxxxxxxxxxxxxxxxxxxxxxxxxxxxxxxxxxxxxxxxxx
            x  Element         Atom        Fractional coordinates of atoms  x
            x                 Number           u          v          w      x
            x---------------------------------------------------------------x
            x  H                 1        -0.000000   0.002154   0.130408   x
            x  H                 2         0.000000   0.132364   0.454983   x
            x  H                 3        -0.000000   0.262953   0.319288   x
            x  H                 4         0.500000   0.262953   0.180712   x
            x  H                 5         0.500000   0.132364   0.045017   x
            x  H                 6         0.500000   0.002154   0.369592   x
            x  H                 7         0.500000   0.237047   0.680712   x
            x  H                 8         0.500000   0.367636   0.545017   x
            x  H                 9         0.500000   0.497846   0.869592   x
            x  H                10         0.500000   0.737047   0.819288   x
            x  H                11         0.500000   0.867636   0.954983   x
            x  H                12         0.500000   0.997846   0.630408   x
            x  H                13         0.500000   0.762953   0.319288   x
            x  H                14         0.500000   0.632364   0.454983   x
            x  H                15         0.500000   0.502154   0.130408   x
            x  H                16         0.000000   0.762953   0.180712   x
            x  H                17        -0.000000   0.632364   0.045017   x
            x  H                18         0.000000   0.502154   0.369592   x
            x  H                19        -0.000000   0.737047   0.680712   x
            x  H                20         0.000000   0.867636   0.545017   x
            x  H                21         0.000000   0.997846   0.869592   x
            x  H                22        -0.000000   0.237047   0.819288   x
            x  H                23         0.000000   0.367636   0.954983   x
            x  H                24         0.000000   0.497846   0.630408   x
            xxxxxxxxxxxxxxxxxxxxxxxxxxxxxxxxxxxxxxxxxxxxxxxxxxxxxxxxxxxxxxxxx


------------------------------------------------------------------------ <-- SCF
SCF loop      Energy                           Energy gain       Timer   <-- SCF
                                               per atom          (sec)   <-- SCF
------------------------------------------------------------------------ <-- SCF
Initial  -3.49894735E+002                                        321.48  <-- SCF
      1  -3.49964089E+002                    2.88977002E-003     336.45  <-- SCF
      2  -3.49964283E+002                    8.05975114E-006     352.82  <-- SCF
      3  -3.49963806E+002                   -1.98489412E-005     370.77  <-- SCF
      4  -3.49963817E+002                    4.49306704E-007     387.30  <-- SCF
      5  -3.49963818E+002                    2.22856150E-008     404.22  <-- SCF
      6  -3.49963818E+002                    2.16739670E-009     420.48  <-- SCF
      7  -3.49963818E+002                    1.31356155E-011     432.00  <-- SCF
      8  -3.49963818E+002                    1.02515000E-012     444.81  <-- SCF
      9  -3.49963818E+002                   -2.31615423E-013     456.35  <-- SCF
------------------------------------------------------------------------ <-- SCF
 
Final energy =  -349.9638176219     eV
(energy not corrected for finite basis set)
 

 ************************************** Forces **************************************
 *                                                                                  *
 *                           Cartesian components (eV/A)                            *
 * -------------------------------------------------------------------------------- *
 *                         x                    y                    z              *
 *                                                                                  *
 * H               1      0.00000             -0.00451             -0.30379         *
 * H               2     -0.00000              0.27711             -0.18438         *
 * H               3      0.00000             -0.26743              0.16268         *
 * H               4      0.00000             -0.26743             -0.16268         *
 * H               5     -0.00000              0.27711              0.18438         *
 * H               6     -0.00000             -0.00451              0.30379         *
 * H               7     -0.00000              0.26743             -0.16268         *
 * H               8      0.00000             -0.27711              0.18438         *
 * H               9     -0.00000              0.00451              0.30379         *
 * H              10     -0.00000              0.26743              0.16268         *
 * H              11     -0.00000             -0.27711             -0.18438         *
 * H              12      0.00000              0.00451             -0.30379         *
 * H              13      0.00000             -0.26743              0.16268         *
 * H              14     -0.00000              0.27711             -0.18438         *
 * H              15      0.00000             -0.00451             -0.30379         *
 * H              16     -0.00000             -0.26743             -0.16268         *
 * H              17      0.00000              0.27711              0.18438         *
 * H              18     -0.00000             -0.00451              0.30379         *
 * H              19      0.00000              0.26743             -0.16268         *
 * H              20     -0.00000             -0.27711              0.18438         *
 * H              21     -0.00000              0.00451              0.30379         *
 * H              22      0.00000              0.26743              0.16268         *
 * H              23     -0.00000             -0.27711             -0.18438         *
 * H              24      0.00000              0.00451             -0.30379         *
 *                                                                                  *
 ************************************************************************************

 ***************** Stress Tensor *****************
 *                                               *
 *          Cartesian components (GPa)           *
 * --------------------------------------------- *
 *             x             y             z     *
 *                                               *
 *  x   -208.483457     -0.000000      0.000000  *
 *  y     -0.000000   -200.674759      0.000007  *
 *  z      0.000000      0.000007   -200.041844  *
 *                                               *
 *  Pressure:  203.0667                          *
 *                                               *
 *************************************************
  
 +------------+-------------+-------------+-----------------+ <-- min LBFGS
 |    Step    |   lambda    |   F.delta'  |    enthalpy     | <-- min LBFGS
 +------------+-------------+-------------+-----------------+ <-- min LBFGS
 |  previous  |    0.000000 |    0.455612 |     -296.628447 | <-- min LBFGS
 | trial step |    1.000000 |   -0.109558 |     -296.788185 | <-- min LBFGS
 +------------+-------------+-------------+-----------------+ <-- min LBFGS
  
 LBFGS: finished iteration     1 with enthalpy= -2.96788185E+002 eV
  
 +-----------+-----------------+-----------------+------------+-----+ <-- LBFGS
 | Parameter |      value      |    tolerance    |    units   | OK? | <-- LBFGS
 +-----------+-----------------+-----------------+------------+-----+ <-- LBFGS
 |  dE/ion   |   6.655755E-003 |   1.000000E-009 |         eV | No  | <-- LBFGS
 |  |F|max   |   3.328458E-001 |   1.000000E-005 |       eV/A | No  | <-- LBFGS
 |  |dR|max  |   4.174705E-008 |   1.000000E-005 |          A | Yes | <-- LBFGS
 |   Smax    |   9.958156E+000 |   1.000000E-005 |        GPa | No  | <-- LBFGS
 +-----------+-----------------+-----------------+------------+-----+ <-- LBFGS
  

================================================================================
 Starting LBFGS iteration          2 ...
================================================================================
  
 +------------+-------------+-------------+-----------------+ <-- min LBFGS
 |    Step    |   lambda    |   F.delta'  |    enthalpy     | <-- min LBFGS
 +------------+-------------+-------------+-----------------+ <-- min LBFGS
 |  previous  |    0.000000 |    0.189256 |     -296.788185 | <-- min LBFGS
 +------------+-------------+-------------+-----------------+ <-- min LBFGS
  

--------------------------------------------------------------------------------
 LBFGS: starting iteration         2 with trial guess (lambda=  1.000000)
--------------------------------------------------------------------------------
 
+---------------- MEMORY AND SCRATCH DISK ESTIMATES PER PROCESS --------------+
|                                                     Memory          Disk    |
| Model and support data                               82.2 MB         0.0 MB |
| Electronic energy minimisation requirements          64.3 MB         0.0 MB |
| Geometry minimisation requirements                   89.0 MB         0.0 MB |
|                                               ----------------------------- |
| Approx. total storage required per process          235.5 MB         0.0 MB |
|                                                                             |
| Requirements will fluctuate during execution and may exceed these estimates |
+-----------------------------------------------------------------------------+
 

                           -------------------------------
                                      Unit Cell
                           -------------------------------
        Real Lattice(A)              Reciprocal Lattice(1/A)
     2.7131904     0.0000000     0.0000000        2.315792275  -0.000000000  -0.000000000
     0.0000000     5.0115876    -0.0000000       -0.000000000   1.253731520   0.000000004
     0.0000000    -0.0000000     3.0163078       -0.000000000   0.000000006   2.083071681

                       Lattice parameters(A)       Cell Angles
                    a =      2.713190          alpha =   90.000000
                    b =      5.011588          beta  =   90.000000
                    c =      3.016308          gamma =   90.000000

                Current cell volume =            41.013917 A**3

                           -------------------------------
                                     Cell Contents
                           -------------------------------

            xxxxxxxxxxxxxxxxxxxxxxxxxxxxxxxxxxxxxxxxxxxxxxxxxxxxxxxxxxxxxxxxx
            x  Element         Atom        Fractional coordinates of atoms  x
            x                 Number           u          v          w      x
            x---------------------------------------------------------------x
            x  H                 1        -0.000000   0.002081   0.122198   x
            x  H                 2         0.000000   0.136873   0.450000   x
            x  H                 3        -0.000000   0.258602   0.323685   x
            x  H                 4         0.500000   0.258602   0.176315   x
            x  H                 5         0.500000   0.136873   0.050000   x
            x  H                 6         0.500000   0.002081   0.377802   x
            x  H                 7         0.500000   0.241398   0.676315   x
            x  H                 8         0.500000   0.363127   0.550000   x
            x  H                 9         0.500000   0.497919   0.877802   x
            x  H                10         0.500000   0.741398   0.823685   x
            x  H                11         0.500000   0.863127   0.950000   x
            x  H                12         0.500000   0.997919   0.622198   x
            x  H                13         0.500000   0.758602   0.323685   x
            x  H                14         0.500000   0.636873   0.450000   x
            x  H                15         0.500000   0.502081   0.122198   x
            x  H                16        -0.000000   0.758602   0.176315   x
            x  H                17         0.000000   0.636873   0.050000   x
            x  H                18        -0.000000   0.502081   0.377802   x
            x  H                19        -0.000000   0.741398   0.676315   x
            x  H                20         0.000000   0.863127   0.550000   x
            x  H                21         0.000000   0.997919   0.877802   x
            x  H                22        -0.000000   0.241398   0.823685   x
            x  H                23         0.000000   0.363127   0.950000   x
            x  H                24         0.000000   0.497919   0.622198   x
            xxxxxxxxxxxxxxxxxxxxxxxxxxxxxxxxxxxxxxxxxxxxxxxxxxxxxxxxxxxxxxxxx


------------------------------------------------------------------------ <-- SCF
SCF loop      Energy                           Energy gain       Timer   <-- SCF
                                               per atom          (sec)   <-- SCF
------------------------------------------------------------------------ <-- SCF
Initial  -3.48954445E+002                                        490.96  <-- SCF
      1  -3.50595581E+002                    6.83806562E-002     505.36  <-- SCF
      2  -3.50602337E+002                    2.81499544E-004     522.31  <-- SCF
      3  -3.50389704E+002                   -8.85968388E-003     539.32  <-- SCF
      4  -3.50383388E+002                   -2.63191951E-004     555.68  <-- SCF
      5  -3.50383379E+002                   -3.53416507E-007     572.35  <-- SCF
      6  -3.50383380E+002                    1.63864931E-008     587.86  <-- SCF
      7  -3.50383380E+002                    7.01549017E-010     605.20  <-- SCF
      8  -3.50383380E+002                    4.46514254E-011     617.08  <-- SCF
      9  -3.50383380E+002                    5.47820826E-013     628.43  <-- SCF
     10  -3.50383380E+002                    1.32927112E-013     640.36  <-- SCF
------------------------------------------------------------------------ <-- SCF
 
Final energy =  -350.3833796874     eV
(energy not corrected for finite basis set)
 

 ************************************** Forces **************************************
 *                                                                                  *
 *                           Cartesian components (eV/A)                            *
 * -------------------------------------------------------------------------------- *
 *                         x                    y                    z              *
 *                                                                                  *
 * H               1     -0.00000             -0.01466              0.68749         *
 * H               2      0.00000             -0.94584              0.57369         *
 * H               3      0.00000              0.75086             -0.46286         *
 * H               4     -0.00000              0.75086              0.46286         *
 * H               5      0.00000             -0.94584             -0.57369         *
 * H               6      0.00000             -0.01466             -0.68749         *
 * H               7      0.00000             -0.75086              0.46286         *
 * H               8     -0.00000              0.94584             -0.57369         *
 * H               9      0.00000              0.01466             -0.68749         *
 * H              10     -0.00000             -0.75086             -0.46286         *
 * H              11     -0.00000              0.94584              0.57369         *
 * H              12      0.00000              0.01466              0.68749         *
 * H              13     -0.00000              0.75086             -0.46286         *
 * H              14     -0.00000             -0.94584              0.57369         *
 * H              15     -0.00000             -0.01466              0.68749         *
 * H              16     -0.00000              0.75086              0.46286         *
 * H              17     -0.00000             -0.94584             -0.57369         *
 * H              18      0.00000             -0.01466             -0.68749         *
 * H              19      0.00000             -0.75086              0.46286         *
 * H              20      0.00000              0.94584             -0.57369         *
 * H              21     -0.00000              0.01466             -0.68748         *
 * H              22     -0.00000             -0.75086             -0.46286         *
 * H              23      0.00000              0.94584              0.57369         *
 * H              24     -0.00000              0.01466              0.68749         *
 *                                                                                  *
 ************************************************************************************

 ***************** Stress Tensor *****************
 *                                               *
 *          Cartesian components (GPa)           *
 * --------------------------------------------- *
 *             x             y             z     *
 *                                               *
 *  x   -198.728596      0.000000      0.000000  *
 *  y      0.000000   -220.059711     -0.000032  *
 *  z      0.000000     -0.000032   -217.080157  *
 *                                               *
 *  Pressure:  211.9562                          *
 *                                               *
 *************************************************
  
 +------------+-------------+-------------+-----------------+ <-- min LBFGS
 |    Step    |   lambda    |   F.delta'  |    enthalpy     | <-- min LBFGS
 +------------+-------------+-------------+-----------------+ <-- min LBFGS
 |  previous  |    0.000000 |    0.189256 |     -296.788185 | <-- min LBFGS
 | trial step |    1.000000 |   -0.585150 |     -296.625745 | <-- min LBFGS
 +------------+-------------+-------------+-----------------+ <-- min LBFGS
  

--------------------------------------------------------------------------------
 LBFGS: improving iteration         2 with line minimization (lambda=  0.244388)
--------------------------------------------------------------------------------

                           -------------------------------
                                      Unit Cell
                           -------------------------------
        Real Lattice(A)              Reciprocal Lattice(1/A)
     2.6997349     0.0000000     0.0000000        2.327334217  -0.000000000  -0.000000000
     0.0000000     5.0027996    -0.0000000       -0.000000000   1.255933828   0.000000001
     0.0000000    -0.0000000     3.0118060       -0.000000000   0.000000001   2.086185285

                       Lattice parameters(A)       Cell Angles
                    a =      2.699735          alpha =   90.000000
                    b =      5.002800          beta  =   90.000000
                    c =      3.011806          gamma =   90.000000

                Current cell volume =            40.678152 A**3

                           -------------------------------
                                     Cell Contents
                           -------------------------------

            xxxxxxxxxxxxxxxxxxxxxxxxxxxxxxxxxxxxxxxxxxxxxxxxxxxxxxxxxxxxxxxxx
            x  Element         Atom        Fractional coordinates of atoms  x
            x                 Number           u          v          w      x
            x---------------------------------------------------------------x
            x  H                 1        -0.000000   0.002136   0.128401   x
            x  H                 2         0.000000   0.133466   0.453765   x
            x  H                 3        -0.000000   0.261890   0.320363   x
            x  H                 4         0.500000   0.261890   0.179637   x
            x  H                 5         0.500000   0.133466   0.046235   x
            x  H                 6         0.500000   0.002136   0.371599   x
            x  H                 7         0.500000   0.238110   0.679637   x
            x  H                 8         0.500000   0.366534   0.546235   x
            x  H                 9         0.500000   0.497864   0.871599   x
            x  H                10         0.500000   0.738110   0.820363   x
            x  H                11         0.500000   0.866534   0.953765   x
            x  H                12         0.500000   0.997864   0.628401   x
            x  H                13         0.500000   0.761890   0.320363   x
            x  H                14         0.500000   0.633466   0.453765   x
            x  H                15         0.500000   0.502136   0.128401   x
            x  H                16         0.000000   0.761890   0.179637   x
            x  H                17         0.000000   0.633466   0.046235   x
            x  H                18         0.000000   0.502136   0.371599   x
            x  H                19        -0.000000   0.738110   0.679637   x
            x  H                20         0.000000   0.866534   0.546235   x
            x  H                21         0.000000   0.997864   0.871599   x
            x  H                22        -0.000000   0.238110   0.820363   x
            x  H                23         0.000000   0.366534   0.953765   x
            x  H                24         0.000000   0.497864   0.628401   x
            xxxxxxxxxxxxxxxxxxxxxxxxxxxxxxxxxxxxxxxxxxxxxxxxxxxxxxxxxxxxxxxxx


------------------------------------------------------------------------ <-- SCF
SCF loop      Energy                           Energy gain       Timer   <-- SCF
                                               per atom          (sec)   <-- SCF
------------------------------------------------------------------------ <-- SCF
Initial  -3.49299600E+002                                        675.54  <-- SCF
      1  -3.50254917E+002                    3.98048623E-002     691.37  <-- SCF
      2  -3.50258940E+002                    1.67627923E-004     707.92  <-- SCF
      3  -3.50135646E+002                   -5.13724350E-003     724.51  <-- SCF
      4  -3.50132246E+002                   -1.41685040E-004     741.32  <-- SCF
      5  -3.50132239E+002                   -2.82687999E-007     757.35  <-- SCF
      6  -3.50132239E+002                    6.75934969E-009     775.02  <-- SCF
      7  -3.50132239E+002                    3.58983765E-010     791.30  <-- SCF
      8  -3.50132239E+002                    1.42393134E-011     802.70  <-- SCF
      9  -3.50132239E+002                    1.57095678E-013     814.94  <-- SCF
     10  -3.50132239E+002                    1.20842829E-014     826.14  <-- SCF
------------------------------------------------------------------------ <-- SCF
 
Final energy =  -350.1322389063     eV
(energy not corrected for finite basis set)
 

 ************************************** Forces **************************************
 *                                                                                  *
 *                           Cartesian components (eV/A)                            *
 * -------------------------------------------------------------------------------- *
 *                         x                    y                    z              *
 *                                                                                  *
 * H               1      0.00000             -0.00877             -0.10524         *
 * H               2     -0.00000              0.02246             -0.02855         *
 * H               3      0.00000             -0.06535              0.03837         *
 * H               4      0.00000             -0.06535             -0.03837         *
 * H               5     -0.00000              0.02246              0.02855         *
 * H               6      0.00000             -0.00877              0.10524         *
 * H               7     -0.00000              0.06535             -0.03837         *
 * H               8     -0.00000             -0.02246              0.02855         *
 * H               9      0.00000              0.00877              0.10524         *
 * H              10     -0.00000              0.06535              0.03837         *
 * H              11     -0.00000             -0.02246             -0.02855         *
 * H              12      0.00000              0.00877             -0.10524         *
 * H              13      0.00000             -0.06535              0.03837         *
 * H              14     -0.00000              0.02246             -0.02855         *
 * H              15      0.00000             -0.00877             -0.10524         *
 * H              16      0.00000             -0.06535             -0.03837         *
 * H              17     -0.00000              0.02246              0.02855         *
 * H              18      0.00000             -0.00877              0.10524         *
 * H              19      0.00000              0.06535             -0.03837         *
 * H              20     -0.00000             -0.02246              0.02855         *
 * H              21     -0.00000              0.00877              0.10524         *
 * H              22      0.00000              0.06535              0.03837         *
 * H              23     -0.00000             -0.02246             -0.02855         *
 * H              24     -0.00000              0.00877             -0.10524         *
 *                                                                                  *
 ************************************************************************************

 ***************** Stress Tensor *****************
 *                                               *
 *          Cartesian components (GPa)           *
 * --------------------------------------------- *
 *             x             y             z     *
 *                                               *
 *  x   -206.125625     -0.000000     -0.000000  *
 *  y     -0.000000   -204.822806     -0.000001  *
 *  z     -0.000000     -0.000001   -203.684434  *
 *                                               *
 *  Pressure:  204.8776                          *
 *                                               *
 *************************************************
  
 +------------+-------------+-------------+-----------------+ <-- min LBFGS
 |    Step    |   lambda    |   F.delta'  |    enthalpy     | <-- min LBFGS
 +------------+-------------+-------------+-----------------+ <-- min LBFGS
 |  previous  |    0.000000 |    0.189256 |     -296.788185 | <-- min LBFGS
 | trial step |    1.000000 |   -0.585150 |     -296.625745 | <-- min LBFGS
 |  line step |    0.244388 |    0.032127 |     -296.814697 | <-- min LBFGS
 +------------+-------------+-------------+-----------------+ <-- min LBFGS
  
 LBFGS: finished iteration     2 with enthalpy= -2.96814697E+002 eV
  
 +-----------+-----------------+-----------------+------------+-----+ <-- LBFGS
 | Parameter |      value      |    tolerance    |    units   | OK? | <-- LBFGS
 +-----------+-----------------+-----------------+------------+-----+ <-- LBFGS
 |  dE/ion   |   1.104674E-003 |   1.000000E-009 |         eV | No  | <-- LBFGS
 |  |F|max   |   1.056045E-001 |   1.000000E-005 |       eV/A | No  | <-- LBFGS
 |  |dR|max  |   6.621409E-003 |   1.000000E-005 |          A | No  | <-- LBFGS
 |   Smax    |   6.315566E+000 |   1.000000E-005 |        GPa | No  | <-- LBFGS
 +-----------+-----------------+-----------------+------------+-----+ <-- LBFGS
  

================================================================================
 Starting LBFGS iteration          3 ...
================================================================================
  
 +------------+-------------+-------------+-----------------+ <-- min LBFGS
 |    Step    |   lambda    |   F.delta'  |    enthalpy     | <-- min LBFGS
 +------------+-------------+-------------+-----------------+ <-- min LBFGS
 |  previous  |    0.000000 |    0.076470 |     -296.814697 | <-- min LBFGS
 +------------+-------------+-------------+-----------------+ <-- min LBFGS
  

--------------------------------------------------------------------------------
 LBFGS: starting iteration         3 with trial guess (lambda=  1.000000)
--------------------------------------------------------------------------------

                           -------------------------------
                                      Unit Cell
                           -------------------------------
        Real Lattice(A)              Reciprocal Lattice(1/A)
     2.6927199     0.0000000     0.0000000        2.333397313  -0.000000000  -0.000000000
     0.0000000     4.9906225     0.0000000       -0.000000000   1.258998318  -0.000000002
     0.0000000     0.0000000     3.0019629       -0.000000000  -0.000000003   2.093025606

                       Lattice parameters(A)       Cell Angles
                    a =      2.692720          alpha =   90.000000
                    b =      4.990622          beta  =   90.000000
                    c =      3.001963          gamma =   90.000000

                Current cell volume =            40.341424 A**3

                           -------------------------------
                                     Cell Contents
                           -------------------------------

            xxxxxxxxxxxxxxxxxxxxxxxxxxxxxxxxxxxxxxxxxxxxxxxxxxxxxxxxxxxxxxxxx
            x  Element         Atom        Fractional coordinates of atoms  x
            x                 Number           u          v          w      x
            x---------------------------------------------------------------x
            x  H                 1        -0.000000   0.001944   0.126528   x
            x  H                 2         0.000000   0.132706   0.454055   x
            x  H                 3        -0.000000   0.261560   0.320640   x
            x  H                 4         0.500000   0.261560   0.179360   x
            x  H                 5         0.500000   0.132706   0.045945   x
            x  H                 6         0.500000   0.001944   0.373472   x
            x  H                 7         0.500000   0.238440   0.679360   x
            x  H                 8         0.500000   0.367294   0.545945   x
            x  H                 9         0.500000   0.498056   0.873472   x
            x  H                10         0.500000   0.738440   0.820640   x
            x  H                11         0.500000   0.867294   0.954055   x
            x  H                12         0.500000   0.998056   0.626528   x
            x  H                13         0.500000   0.761560   0.320640   x
            x  H                14         0.500000   0.632706   0.454055   x
            x  H                15         0.500000   0.501944   0.126528   x
            x  H                16         0.000000   0.761560   0.179360   x
            x  H                17        -0.000000   0.632706   0.045945   x
            x  H                18         0.000000   0.501944   0.373472   x
            x  H                19        -0.000000   0.738440   0.679360   x
            x  H                20         0.000000   0.867294   0.545945   x
            x  H                21         0.000000   0.998056   0.873472   x
            x  H                22        -0.000000   0.238440   0.820640   x
            x  H                23         0.000000   0.367294   0.954055   x
            x  H                24        -0.000000   0.498056   0.626528   x
            xxxxxxxxxxxxxxxxxxxxxxxxxxxxxxxxxxxxxxxxxxxxxxxxxxxxxxxxxxxxxxxxx


------------------------------------------------------------------------ <-- SCF
SCF loop      Energy                           Energy gain       Timer   <-- SCF
                                               per atom          (sec)   <-- SCF
------------------------------------------------------------------------ <-- SCF
Initial  -3.49668648E+002                                        865.22  <-- SCF
      1  -3.49695426E+002                    1.11574450E-003     881.36  <-- SCF
      2  -3.49695518E+002                    3.81832952E-006     898.09  <-- SCF
      3  -3.49692424E+002                   -1.28929872E-004     913.75  <-- SCF
      4  -3.49692426E+002                    1.05078588E-007     929.82  <-- SCF
      5  -3.49692426E+002                    1.01060052E-008     945.81  <-- SCF
      6  -3.49692426E+002                    6.32410806E-013     961.24  <-- SCF
      7  -3.49692426E+002                    2.08655285E-011     973.37  <-- SCF
      8  -3.49692426E+002                    8.84166700E-013     984.68  <-- SCF
      9  -3.49692426E+002                    1.59109725E-013     995.93  <-- SCF
------------------------------------------------------------------------ <-- SCF
 
Final energy =  -349.6924263259     eV
(energy not corrected for finite basis set)
 

 ************************************** Forces **************************************
 *                                                                                  *
 *                           Cartesian components (eV/A)                            *
 * -------------------------------------------------------------------------------- *
 *                         x                    y                    z              *
 *                                                                                  *
 * H               1      0.00000              0.00778              0.24265         *
 * H               2     -0.00000              0.07712             -0.03655         *
 * H               3      0.00000             -0.10604              0.04308         *
 * H               4     -0.00000             -0.10604             -0.04308         *
 * H               5      0.00000              0.07713              0.03655         *
 * H               6      0.00000              0.00778             -0.24265         *
 * H               7      0.00000              0.10604             -0.04308         *
 * H               8      0.00000             -0.07712              0.03655         *
 * H               9     -0.00000             -0.00778             -0.24265         *
 * H              10      0.00000              0.10604              0.04308         *
 * H              11     -0.00000             -0.07713             -0.03656         *
 * H              12      0.00000             -0.00778              0.24265         *
 * H              13      0.00000             -0.10604              0.04308         *
 * H              14     -0.00000              0.07712             -0.03655         *
 * H              15      0.00000              0.00778              0.24265         *
 * H              16      0.00000             -0.10604             -0.04308         *
 * H              17      0.00000              0.07713              0.03656         *
 * H              18     -0.00000              0.00778             -0.24265         *
 * H              19      0.00000              0.10604             -0.04308         *
 * H              20     -0.00000             -0.07712              0.03655         *
 * H              21     -0.00000             -0.00778             -0.24265         *
 * H              22      0.00000              0.10604              0.04308         *
 * H              23     -0.00000             -0.07713             -0.03656         *
 * H              24      0.00000             -0.00778              0.24265         *
 *                                                                                  *
 ************************************************************************************

 ***************** Stress Tensor *****************
 *                                               *
 *          Cartesian components (GPa)           *
 * --------------------------------------------- *
 *             x             y             z     *
 *                                               *
 *  x   -210.408624      0.000000     -0.000000  *
 *  y      0.000000   -208.276475      0.000014  *
 *  z     -0.000000      0.000014   -212.621710  *
 *                                               *
 *  Pressure:  210.4356                          *
 *                                               *
 *************************************************
  
 +------------+-------------+-------------+-----------------+ <-- min LBFGS
 |    Step    |   lambda    |   F.delta'  |    enthalpy     | <-- min LBFGS
 +------------+-------------+-------------+-----------------+ <-- min LBFGS
 |  previous  |    0.000000 |    0.076470 |     -296.814697 | <-- min LBFGS
 | trial step |    1.000000 |   -0.063201 |     -296.816240 | <-- min LBFGS
 +------------+-------------+-------------+-----------------+ <-- min LBFGS
  

--------------------------------------------------------------------------------
 LBFGS: improving iteration         3 with line minimization (lambda=  0.547502)
--------------------------------------------------------------------------------

                           -------------------------------
                                      Unit Cell
                           -------------------------------
        Real Lattice(A)              Reciprocal Lattice(1/A)
     2.6958941     0.0000000     0.0000000        2.330649864  -0.000000000  -0.000000000
     0.0000000     4.9961326     0.0000000       -0.000000000   1.257609791  -0.000000001
     0.0000000     0.0000000     3.0064169       -0.000000000  -0.000000001   2.089924824

                       Lattice parameters(A)       Cell Angles
                    a =      2.695894          alpha =   90.000000
                    b =      4.996133          beta  =   90.000000
                    c =      3.006417          gamma =   90.000000

                Current cell volume =            40.493563 A**3

                           -------------------------------
                                     Cell Contents
                           -------------------------------

            xxxxxxxxxxxxxxxxxxxxxxxxxxxxxxxxxxxxxxxxxxxxxxxxxxxxxxxxxxxxxxxxx
            x  Element         Atom        Fractional coordinates of atoms  x
            x                 Number           u          v          w      x
            x---------------------------------------------------------------x
            x  H                 1        -0.000000   0.002031   0.127375   x
            x  H                 2         0.000000   0.133050   0.453924   x
            x  H                 3        -0.000000   0.261709   0.320514   x
            x  H                 4         0.500000   0.261709   0.179486   x
            x  H                 5         0.500000   0.133050   0.046076   x
            x  H                 6         0.500000   0.002031   0.372625   x
            x  H                 7         0.500000   0.238291   0.679486   x
            x  H                 8         0.500000   0.366950   0.546076   x
            x  H                 9         0.500000   0.497969   0.872625   x
            x  H                10         0.500000   0.738291   0.820514   x
            x  H                11         0.500000   0.866950   0.953924   x
            x  H                12         0.500000   0.997969   0.627375   x
            x  H                13         0.500000   0.761709   0.320514   x
            x  H                14         0.500000   0.633050   0.453924   x
            x  H                15         0.500000   0.502031   0.127375   x
            x  H                16         0.000000   0.761709   0.179486   x
            x  H                17        -0.000000   0.633050   0.046076   x
            x  H                18         0.000000   0.502031   0.372625   x
            x  H                19        -0.000000   0.738291   0.679486   x
            x  H                20         0.000000   0.866950   0.546076   x
            x  H                21         0.000000   0.997969   0.872625   x
            x  H                22        -0.000000   0.238291   0.820514   x
            x  H                23         0.000000   0.366950   0.953924   x
            x  H                24        -0.000000   0.497969   0.627375   x
            xxxxxxxxxxxxxxxxxxxxxxxxxxxxxxxxxxxxxxxxxxxxxxxxxxxxxxxxxxxxxxxxx


------------------------------------------------------------------------ <-- SCF
SCF loop      Energy                           Energy gain       Timer   <-- SCF
                                               per atom          (sec)   <-- SCF
------------------------------------------------------------------------ <-- SCF
Initial  -3.49889890E+002                                       1030.56  <-- SCF
      1  -3.49895392E+002                    2.29240961E-004    1045.27  <-- SCF
      2  -3.49895411E+002                    7.94481722E-007    1063.44  <-- SCF
      3  -3.49894775E+002                   -2.64922725E-005    1079.38  <-- SCF
      4  -3.49894776E+002                    2.33385287E-008    1096.87  <-- SCF
      5  -3.49894776E+002                    2.03176473E-009    1114.43  <-- SCF
      6  -3.49894776E+002                   -8.86180747E-014    1127.44  <-- SCF
      7  -3.49894776E+002                    4.84378340E-012    1141.17  <-- SCF
------------------------------------------------------------------------ <-- SCF
 
Final energy =  -349.8947755528     eV
(energy not corrected for finite basis set)
 

 ************************************** Forces **************************************
 *                                                                                  *
 *                           Cartesian components (eV/A)                            *
 * -------------------------------------------------------------------------------- *
 *                         x                    y                    z              *
 *                                                                                  *
 * H               1      0.00000              0.00038              0.08095         *
 * H               2     -0.00000              0.05234             -0.03294         *
 * H               3      0.00000             -0.08768              0.04098         *
 * H               4     -0.00000             -0.08768             -0.04098         *
 * H               5      0.00000              0.05234              0.03294         *
 * H               6      0.00000              0.00038             -0.08095         *
 * H               7     -0.00000              0.08768             -0.04098         *
 * H               8      0.00000             -0.05234              0.03294         *
 * H               9     -0.00000             -0.00038             -0.08095         *
 * H              10      0.00000              0.08768              0.04098         *
 * H              11     -0.00000             -0.05234             -0.03294         *
 * H              12      0.00000             -0.00038              0.08095         *
 * H              13      0.00000             -0.08768              0.04098         *
 * H              14     -0.00000              0.05234             -0.03294         *
 * H              15      0.00000              0.00038              0.08095         *
 * H              16     -0.00000             -0.08768             -0.04098         *
 * H              17      0.00000              0.05234              0.03294         *
 * H              18     -0.00000              0.00038             -0.08095         *
 * H              19      0.00000              0.08768             -0.04098         *
 * H              20     -0.00000             -0.05234              0.03294         *
 * H              21     -0.00000             -0.00038             -0.08095         *
 * H              22      0.00000              0.08768              0.04098         *
 * H              23     -0.00000             -0.05234             -0.03294         *
 * H              24      0.00000             -0.00038              0.08095         *
 *                                                                                  *
 ************************************************************************************

 ***************** Stress Tensor *****************
 *                                               *
 *          Cartesian components (GPa)           *
 * --------------------------------------------- *
 *             x             y             z     *
 *                                               *
 *  x   -208.460357     -0.000000      0.000000  *
 *  y     -0.000000   -206.706542      0.000007  *
 *  z      0.000000      0.000007   -208.525980  *
 *                                               *
 *  Pressure:  207.8976                          *
 *                                               *
 *************************************************
  
 +------------+-------------+-------------+-----------------+ <-- min LBFGS
 |    Step    |   lambda    |   F.delta'  |    enthalpy     | <-- min LBFGS
 +------------+-------------+-------------+-----------------+ <-- min LBFGS
 |  previous  |    0.000000 |    0.076470 |     -296.814697 | <-- min LBFGS
 | trial step |    1.000000 |   -0.063201 |     -296.816240 | <-- min LBFGS
 |  line step |    0.547502 |    0.001040 |     -296.819177 | <-- min LBFGS
 +------------+-------------+-------------+-----------------+ <-- min LBFGS
  
 LBFGS: finished iteration     3 with enthalpy= -2.96819177E+002 eV
  
 +-----------+-----------------+-----------------+------------+-----+ <-- LBFGS
 | Parameter |      value      |    tolerance    |    units   | OK? | <-- LBFGS
 +-----------+-----------------+-----------------+------------+-----+ <-- LBFGS
 |  dE/ion   |   1.866398E-004 |   1.000000E-009 |         eV | No  | <-- LBFGS
 |  |F|max   |   9.678000E-002 |   1.000000E-005 |       eV/A | No  | <-- LBFGS
 |  |dR|max  |   3.128585E-003 |   1.000000E-005 |          A | No  | <-- LBFGS
 |   Smax    |   3.293458E+000 |   1.000000E-005 |        GPa | No  | <-- LBFGS
 +-----------+-----------------+-----------------+------------+-----+ <-- LBFGS
  

================================================================================
 Starting LBFGS iteration          4 ...
================================================================================
  
 +------------+-------------+-------------+-----------------+ <-- min LBFGS
 |    Step    |   lambda    |   F.delta'  |    enthalpy     | <-- min LBFGS
 +------------+-------------+-------------+-----------------+ <-- min LBFGS
 |  previous  |    0.000000 |    0.056999 |     -296.819177 | <-- min LBFGS
 +------------+-------------+-------------+-----------------+ <-- min LBFGS
  

--------------------------------------------------------------------------------
 LBFGS: starting iteration         4 with trial guess (lambda=  1.000000)
--------------------------------------------------------------------------------

                           -------------------------------
                                      Unit Cell
                           -------------------------------
        Real Lattice(A)              Reciprocal Lattice(1/A)
     2.6854079     0.0000000     0.0000000        2.339750843  -0.000000000  -0.000000000
     0.0000000     4.9743160    -0.0000000       -0.000000000   1.263125495   0.000000003
     0.0000000    -0.0000000     2.9945020       -0.000000000   0.000000005   2.098240475

                       Lattice parameters(A)       Cell Angles
                    a =      2.685408          alpha =   90.000000
                    b =      4.974316          beta  =   90.000000
                    c =      2.994502          gamma =   90.000000

                Current cell volume =            40.000759 A**3

                           -------------------------------
                                     Cell Contents
                           -------------------------------

            xxxxxxxxxxxxxxxxxxxxxxxxxxxxxxxxxxxxxxxxxxxxxxxxxxxxxxxxxxxxxxxxx
            x  Element         Atom        Fractional coordinates of atoms  x
            x                 Number           u          v          w      x
            x---------------------------------------------------------------x
            x  H                 1        -0.000000   0.001843   0.129188   x
            x  H                 2         0.000000   0.132721   0.453764   x
            x  H                 3        -0.000000   0.260131   0.321629   x
            x  H                 4         0.500000   0.260131   0.178371   x
            x  H                 5         0.500000   0.132721   0.046236   x
            x  H                 6         0.500000   0.001843   0.370812   x
            x  H                 7         0.500000   0.239869   0.678371   x
            x  H                 8         0.500000   0.367279   0.546236   x
            x  H                 9         0.500000   0.498157   0.870812   x
            x  H                10         0.500000   0.739869   0.821629   x
            x  H                11         0.500000   0.867279   0.953764   x
            x  H                12         0.500000   0.998157   0.629188   x
            x  H                13         0.500000   0.760131   0.321629   x
            x  H                14         0.500000   0.632721   0.453764   x
            x  H                15         0.500000   0.501843   0.129188   x
            x  H                16         0.000000   0.760131   0.178371   x
            x  H                17        -0.000000   0.632721   0.046236   x
            x  H                18        -0.000000   0.501843   0.370812   x
            x  H                19        -0.000000   0.739869   0.678371   x
            x  H                20         0.000000   0.867279   0.546236   x
            x  H                21         0.000000   0.998157   0.870812   x
            x  H                22        -0.000000   0.239869   0.821629   x
            x  H                23         0.000000   0.367279   0.953764   x
            x  H                24         0.000000   0.498157   0.629188   x
            xxxxxxxxxxxxxxxxxxxxxxxxxxxxxxxxxxxxxxxxxxxxxxxxxxxxxxxxxxxxxxxxx


------------------------------------------------------------------------ <-- SCF
SCF loop      Energy                           Energy gain       Timer   <-- SCF
                                               per atom          (sec)   <-- SCF
[...]
      H     1      S                    0.999
      H     2      S                    1.026
      H     3      S                    0.975
      H     4      S                    0.975
      H     5      S                    1.026
      H     6      S                    0.999
      H     7      S                    0.975
      H     8      S                    1.026
      H     9      S                    0.999
      H    10      S                    0.975
      H    11      S                    1.026
      H    12      S                    0.999
      H    13      S                    0.975
      H    14      S                    1.026
      H    15      S                    0.999
      H    16      S                    0.975
      H    17      S                    1.026
      H    18      S                    0.999
      H    19      S                    0.975
      H    20      S                    1.026
      H    21      S                    0.999
      H    22      S                    0.975
      H    23      S                    1.026
      H    24      S                    0.999
  -------------------------------------------
                           Total:      24.000
  -------------------------------------------

     Atomic Populations (Mulliken)
     -----------------------------
Species          Ion     s      p      d      f     Total  Charge (e)
=====================================================================
  H               1     1.00   0.00   0.00   0.00   1.00     0.00
  H               2     1.03   0.00   0.00   0.00   1.03    -0.03
  H               3     0.97   0.00   0.00   0.00   0.97     0.03
  H               4     0.97   0.00   0.00   0.00   0.97     0.03
  H               5     1.03   0.00   0.00   0.00   1.03    -0.03
  H               6     1.00   0.00   0.00   0.00   1.00     0.00
  H               7     0.97   0.00   0.00   0.00   0.97     0.03
  H               8     1.03   0.00   0.00   0.00   1.03    -0.03
  H               9     1.00   0.00   0.00   0.00   1.00     0.00
  H              10     0.97   0.00   0.00   0.00   0.97     0.03
  H              11     1.03   0.00   0.00   0.00   1.03    -0.03
  H              12     1.00   0.00   0.00   0.00   1.00     0.00
  H              13     0.97   0.00   0.00   0.00   0.97     0.03
  H              14     1.03   0.00   0.00   0.00   1.03    -0.03
  H              15     1.00   0.00   0.00   0.00   1.00     0.00
  H              16     0.97   0.00   0.00   0.00   0.97     0.03
  H              17     1.03   0.00   0.00   0.00   1.03    -0.03
  H              18     1.00   0.00   0.00   0.00   1.00     0.00
  H              19     0.97   0.00   0.00   0.00   0.97     0.03
  H              20     1.03   0.00   0.00   0.00   1.03    -0.03
  H              21     1.00   0.00   0.00   0.00   1.00     0.00
  H              22     0.97   0.00   0.00   0.00   0.97     0.03
  H              23     1.03   0.00   0.00   0.00   1.03    -0.03
  H              24     1.00   0.00   0.00   0.00   1.00     0.00
=====================================================================

                 Bond                   Population      Length (A)
======================================================================
              H 13 -- H 14                   1.65        0.75418
              H 10 -- H 11                   1.65        0.75418
              H 4  -- H 5                    1.65        0.75418
              H 19 -- H 20                   1.65        0.75418
              H 22 -- H 23                   1.65        0.75418
              H 16 -- H 17                   1.65        0.75418
              H 2  -- H 3                    1.65        0.75418
              H 7  -- H 8                    1.65        0.75418
              H 18 -- H 24                   1.47        0.76791
              H 6  -- H 12                   1.47        0.76791
              H 9  -- H 15                   1.47        0.76791
              H 1  -- H 21                   1.47        0.76791
              H 20 -- H 21                   0.11        1.18107
              H 8  -- H 9                    0.11        1.18107
              H 1  -- H 2                    0.11        1.18107
              H 11 -- H 12                   0.11        1.18107
              H 14 -- H 15                   0.11        1.18107
              H 5  -- H 6                    0.11        1.18107
              H 17 -- H 18                   0.11        1.18107
              H 23 -- H 24                   0.11        1.18107
              H 7  -- H 12                   0.18        1.21214
              H 4  -- H 15                   0.18        1.21214
              H 1  -- H 16                   0.18        1.21214
              H 9  -- H 10                   0.18        1.21214
              H 21 -- H 22                   0.18        1.21214
              H 6  -- H 13                   0.18        1.21214
              H 19 -- H 24                   0.18        1.21214
              H 3  -- H 18                   0.18        1.21214
              H 17 -- H 19                  -0.10        1.22192
              H 5  -- H 7                   -0.10        1.22192
              H 4  -- H 8                   -0.10        1.22192
              H 3  -- H 23                  -0.10        1.22192
              H 11 -- H 13                  -0.09        1.22192
              H 10 -- H 14                  -0.10        1.22192
              H 16 -- H 20                  -0.10        1.22192
              H 2  -- H 22                  -0.09        1.22192
              H 2  -- H 20                  -0.04        1.35188
              H 17 -- H 23                  -0.04        1.35188
              H 5  -- H 11                  -0.04        1.35188
              H 8  -- H 14                  -0.04        1.35188
              H 13 -- H 16                   0.02        1.41235
              H 7  -- H 22                   0.02        1.41235
              H 3  -- H 4                    0.02        1.41235
              H 10 -- H 19                   0.02        1.41235
              H 22 -- H 24                  -0.09        1.41771
              H 16 -- H 18                  -0.09        1.41771
              H 10 -- H 12                  -0.09        1.41771
              H 13 -- H 15                  -0.09        1.41771
              H 4  -- H 6                   -0.09        1.41771
              H 7  -- H 9                   -0.09        1.41771
              H 1  -- H 3                   -0.09        1.41771
              H 19 -- H 21                  -0.09        1.41771
              H 2  -- H 21                  -0.24        1.42033
              H 18 -- H 23                  -0.24        1.42033
              H 1  -- H 20                  -0.24        1.42033
              H 6  -- H 11                  -0.24        1.42033
              H 17 -- H 24                  -0.24        1.42033
              H 8  -- H 15                  -0.24        1.42033
              H 9  -- H 14                  -0.24        1.42033
              H 5  -- H 12                  -0.24        1.42033
              H 3  -- H 24                  -0.21        1.50387
              H 18 -- H 19                  -0.21        1.50387
              H 6  -- H 7                   -0.21        1.50387
              H 12 -- H 13                  -0.21        1.50387
              H 4  -- H 9                   -0.21        1.50387
              H 10 -- H 15                  -0.21        1.50387
              H 1  -- H 22                  -0.21        1.50387
              H 16 -- H 21                  -0.21        1.50387
              H 16 -- H 19                  -0.29        1.50521
              H 3  -- H 22                  -0.29        1.50521
              H 10 -- H 13                  -0.29        1.50521
              H 4  -- H 7                   -0.29        1.50521
              H 8  -- H 24                  -0.14        1.51786
              H 2  -- H 6                   -0.14        1.51786
              H 14 -- H 18                  -0.14        1.51786
              H 12 -- H 20                  -0.14        1.51786
              H 11 -- H 21                  -0.14        1.51786
              H 9  -- H 23                  -0.14        1.51786
              H 1  -- H 5                   -0.14        1.51786
              H 15 -- H 17                  -0.14        1.51786
              H 12 -- H 21                  -0.18        1.53325
              H 15 -- H 18                  -0.18        1.53325
              H 1  -- H 6                   -0.18        1.53325
              H 9  -- H 24                  -0.18        1.53325
              H 15 -- H 23                  -0.14        1.59047
              H 9  -- H 17                  -0.14        1.59047
              H 2  -- H 12                  -0.14        1.59047
              H 1  -- H 11                  -0.14        1.59047
              H 6  -- H 20                  -0.14        1.59047
              H 5  -- H 21                  -0.14        1.59047
              H 8  -- H 18                  -0.14        1.59047
              H 14 -- H 24                  -0.14        1.59047
              H 14 -- H 19                  -0.20        1.59657
              H 10 -- H 17                  -0.20        1.59657
              H 4  -- H 23                  -0.20        1.59657
              H 3  -- H 8                   -0.20        1.59657
              H 5  -- H 22                  -0.20        1.59657
              H 2  -- H 7                   -0.20        1.59657
              H 11 -- H 16                  -0.20        1.59657
              H 13 -- H 20                  -0.20        1.59657
              H 14 -- H 16                  -0.31        1.70497
              H 8  -- H 22                  -0.31        1.70497
              H 10 -- H 20                  -0.31        1.70497
              H 3  -- H 5                   -0.31        1.70497
              H 2  -- H 4                   -0.31        1.70497
              H 13 -- H 17                  -0.31        1.70497
              H 11 -- H 19                  -0.31        1.70497
              H 7  -- H 23                  -0.31        1.70497
              H 3  -- H 7                   -0.34        1.72575
              H 13 -- H 19                  -0.34        1.72575
              H 10 -- H 16                  -0.34        1.72575
              H 4  -- H 22                  -0.34        1.72575
              H 5  -- H 23                  -0.23        1.80484
              H 11 -- H 17                  -0.23        1.80484
              H 14 -- H 20                  -0.23        1.80484
              H 2  -- H 8                   -0.23        1.80484
              H 11 -- H 20                  -0.54        1.82438
              H 2  -- H 5                   -0.54        1.82438
              H 8  -- H 23                  -0.54        1.82438
              H 14 -- H 17                  -0.54        1.82438
              H 5  -- H 15                  -0.15        1.85715
              H 1  -- H 17                  -0.15        1.85715
              H 6  -- H 14                  -0.15        1.85715
              H 21 -- H 23                  -0.15        1.85715
              H 8  -- H 12                  -0.15        1.85715
              H 9  -- H 11                  -0.15        1.85715
              H 20 -- H 24                  -0.15        1.85715
              H 2  -- H 18                  -0.15        1.85715
              H 13 -- H 18                  -0.28        1.87325
              H 7  -- H 24                  -0.28        1.87325
              H 9  -- H 22                  -0.28        1.87325
              H 15 -- H 16                  -0.28        1.87325
              H 3  -- H 6                   -0.28        1.87325
              H 10 -- H 21                  -0.28        1.87325
              H 12 -- H 19                  -0.28        1.87325
              H 1  -- H 4                   -0.28        1.87325
              H 9  -- H 13                  -0.37        1.87781
              H 6  -- H 10                  -0.37        1.87781
              H 4  -- H 12                  -0.37        1.87781
              H 7  -- H 15                  -0.37        1.87781
              H 16 -- H 24                  -0.37        1.87781
              H 3  -- H 21                  -0.37        1.87781
              H 18 -- H 22                  -0.37        1.87781
              H 1  -- H 19                  -0.37        1.87781
              H 7  -- H 21                  -0.10        1.89605
              H 1  -- H 13                  -0.10        1.89605
              H 9  -- H 19                  -0.10        1.89605
              H 4  -- H 18                  -0.10        1.89605
              H 6  -- H 16                  -0.10        1.89605
              H 3  -- H 15                  -0.10        1.89605
              H 12 -- H 22                  -0.10        1.89605
              H 10 -- H 24                  -0.10        1.89605
              H 2  -- H 24                  -0.26        1.89905
              H 18 -- H 20                  -0.26        1.89905
              H 12 -- H 14                  -0.26        1.89905
              H 17 -- H 21                  -0.26        1.89905
              H 5  -- H 9                   -0.26        1.89905
              H 6  -- H 8                   -0.26        1.89905
              H 1  -- H 23                  -0.26        1.89905
              H 11 -- H 15                  -0.26        1.89905
              H 17 -- H 20                  -0.33        1.90436
              H 5  -- H 8                   -0.33        1.90436
              H 2  -- H 23                  -0.33        1.90436
              H 11 -- H 14                  -0.33        1.90436
              H 15 -- H 24                  -0.39        2.01676
              H 6  -- H 21                  -0.39        2.01676
              H 1  -- H 12                  -0.39        2.01676
              H 9  -- H 18                  -0.39        2.01676
              H 7  -- H 11                  -0.07        2.03444
              H 2  -- H 16                  -0.07        2.03444
              H 4  -- H 14                  -0.07        2.03444
              H 8  -- H 10                  -0.07        2.03444
              H 20 -- H 22                  -0.07        2.03444
              H 5  -- H 13                  -0.07        2.03444
              H 19 -- H 23                  -0.07        2.03444
              H 3  -- H 17                  -0.07        2.03444
              H 16 -- H 23                  -0.11        2.07462
              H 17 -- H 22                  -0.11        2.07462
              H 2  -- H 19                  -0.11        2.07462
              H 3  -- H 20                  -0.11        2.07462
              H 8  -- H 13                  -0.11        2.07462
              H 4  -- H 11                  -0.11        2.07462
              H 5  -- H 10                  -0.11        2.07462
              H 7  -- H 14                  -0.11        2.07462
              H 15 -- H 22                  -0.22        2.09038
              H 3  -- H 12                  -0.23        2.09038
              H 9  -- H 16                  -0.22        2.09038
              H 1  -- H 10                  -0.22        2.09038
              H 6  -- H 19                  -0.23        2.09039
              H 4  -- H 21                  -0.23        2.09039
              H 13 -- H 24                  -0.23        2.09039
              H 7  -- H 18                  -0.22        2.09039
              H 4  -- H 24                  -0.14        2.24566
              H 10 -- H 18                  -0.14        2.24566
              H 1  -- H 7                   -0.14        2.24566
              H 12 -- H 16                  -0.14        2.24566
              H 13 -- H 21                  -0.14        2.24566
              H 6  -- H 22                  -0.14        2.24566
              H 15 -- H 19                  -0.14        2.24566
              H 3  -- H 9                   -0.14        2.24566
              H 7  -- H 20                  -0.02        2.32932
              H 8  -- H 19                  -0.02        2.32932
              H 2  -- H 13                  -0.02        2.32932
              H 3  -- H 14                  -0.02        2.32932
              H 11 -- H 22                  -0.02        2.32932
              H 4  -- H 17                  -0.02        2.32932
              H 10 -- H 23                  -0.02        2.32932
              H 5  -- H 16                  -0.02        2.32932
              H 8  -- H 17                  -0.05        2.41281
              H 14 -- H 23                  -0.05        2.41281
              H 2  -- H 11                  -0.05        2.41281
              H 5  -- H 20                  -0.05        2.41281
              H 1  -- H 14                   0.06        2.48292
              H 8  -- H 21                   0.06        2.48292
              H 9  -- H 20                   0.06        2.48292
              H 5  -- H 18                   0.06        2.48292
              H 6  -- H 17                   0.06        2.48292
              H 2  -- H 15                   0.06        2.48292
              H 12 -- H 23                   0.06        2.48292
              H 11 -- H 24                   0.06        2.48292
              H 7  -- H 10                  -0.04        2.53212
              H 19 -- H 22                  -0.04        2.53212
              H 4  -- H 13                  -0.04        2.53212
              H 3  -- H 16                  -0.04        2.53212
              H 5  -- H 24                   0.06        2.59210
              H 12 -- H 17                   0.06        2.59210
              H 6  -- H 23                   0.06        2.59210
              H 11 -- H 18                   0.06        2.59210
              H 14 -- H 21                   0.06        2.59210
              H 1  -- H 8                    0.06        2.59210
              H 15 -- H 20                   0.06        2.59210
              H 2  -- H 9                    0.06        2.59210
              H 21 -- H 24                   0.01        2.60149
              H 1  -- H 18                   0.01        2.60149
              H 9  -- H 12                   0.01        2.60149
              H 6  -- H 15                   0.01        2.60149
              H 3  -- H 19                  -0.03        2.62148
              H 7  -- H 13                  -0.03        2.62148
              H 4  -- H 10                  -0.03        2.62148
              H 16 -- H 22                  -0.03        2.62148
              H 13 -- H 23                   0.08        2.62164
              H 2  -- H 10                   0.08        2.62164
              H 4  -- H 20                   0.08        2.62164
              H 7  -- H 17                   0.08        2.62164
              H 8  -- H 16                   0.08        2.62164
              H 3  -- H 11                   0.08        2.62164
              H 14 -- H 22                   0.08        2.62164
              H 5  -- H 19                   0.08        2.62164
======================================================================


Writing analysis data to Cmca-12.castep_bin

Writing model to Cmca-12.check
 
 A BibTeX formatted list of references used in this run has been written to 
 Cmca-12.bib
 
Initialisation time =      5.01 s
Calculation time    =   4402.99 s
Finalisation time   =      7.51 s
Total time          =   4415.51 s
Peak Memory Use     = 651812 kB
  
Overall parallel efficiency rating: Excellent (94%)                             
  
Data was distributed by:-
k-point (16-way); efficiency rating: Excellent (94%)                            
