 +-------------------------------------------------+
 |                                                 |
 |      CCC   AA    SSS  TTTTT  EEEEE  PPPP        |
 |     C     A  A  S       T    E      P   P       |
 |     C     AAAA   SS     T    EEE    PPPP        |
 |     C     A  A     S    T    E      P           |
 |      CCC  A  A  SSS     T    EEEEE  P           |
 |                                                 |
 +-------------------------------------------------+
 |                                                 |
 | Welcome to Academic Release CASTEP version 18.1 |          
 | Ab Initio Total Energy Program                  |
 |                                                 |
 | Authors:                                        |
 | M. Segall, M. Probert, C. Pickard, P. Hasnip,   |
 | S. Clark, K. Refson, J. R. Yates, M. Payne      |
 |                                                 |
 | Contributors:                                   |
 | P. Lindan, P. Haynes, J. White, V. Milman,      |
 | N. Govind, M. Gibson, P. Tulip, V. Cocula,      |
 | B. Montanari, D. Quigley, M. Glover,            |
 | L. Bernasconi, A. Perlov, M. Plummer,           |
 | E. McNellis, J. Meyer, J. Gale, D. Jochym       |
 | J. Aarons, B. Walker, R. Gillen, D. Jones       |
 | T. Green, I. J. Bush, C. J. Armstrong,          |
 | E. J. Higgins, E. L. Brown, M. S. McFly,        |
 | J. Wilkins, B-C. Shih, P. J. P. Byrne           |
 |                                                 |
 | Copyright (c) 2000 - 2017                       |
 |                                                 |
 |     Distributed under the terms of an           |
 |     Agreement between the United Kingdom        |
 |     Car-Parrinello (UKCP) Consortium,           |
 |     Daresbury Laboratory and Accelrys, Inc.     |
 |                                                 |
 | Please cite                                     |
 |                                                 |
 |     "First principles methods using CASTEP"     |
 |                                                 |
 |         Zeitschrift fuer Kristallographie       |
 |           220(5-6) pp. 567-570 (2005)           |
 |                                                 |
 | S. J. Clark, M. D. Segall, C. J. Pickard,       |
 | P. J. Hasnip, M. J. Probert, K. Refson,         |
 | M. C. Payne                                     |
 |                                                 |
 |       in all publications arising from          |
 |              your use of CASTEP                 |
 |                                                 |
 +-------------------------------------------------+


 Compiled for linux_x86_64_gfortran4.8 on Thu, 19 Jul 2018 15:42:32 +0100
 from code version 70483bd0ad64+  Sun, 10 Dec 2017 12:18:29 +0000
 Compiler: GNU Fortran 4.8.5; Optimisation: fast
 MATHLIBS: Intel MKL(2018.0.0) (LAPACK version 3.7.0)
 FFT Lib : mkl
 Fundamental constants values: CODATA 2014

 Run started: Sat, 15 Aug 2020 03:39:16 +0100

 Atomic calculation performed for H: 1s1

 Converged in 41 iterations to an ae energy of -12.488 eV

   ============================================================                
   | Pseudopotential Report - Date of generation 15-08-2020   |                
   ------------------------------------------------------------                
   | Element: H Ionic charge:  1.00 Level of theory: PBE      |                
   | Atomic Solver: Koelling-Harmon                           |                
   |                                                          |                
   |               Reference Electronic Structure             |                
   |         Orbital         Occupation         Energy        |                
   |            1s              1.000           -0.239        |                
   |                                                          |                
   |                 Pseudopotential Definition               |                
   |        Beta     l      e      Rc     scheme   norm       |                
   |          1      0   -0.239   0.599     qc      0         |                
   |          2      0    0.250   0.599     qc      0         |                
   |         loc     1    0.000   0.599     pn      0         |                
   |                                                          |                
   | Augmentation charge Rinner = 0.421                       |                
   | No partial core correction                               |                
   ------------------------------------------------------------                
   | "1|0.6|13|15|17|10(qc=8)"                                |                
   ------------------------------------------------------------                
   |      Author: Chris J. Pickard, Cambridge University      |                
   ============================================================                

 Pseudo atomic calculation performed for H 1s1

 Converged in 24 iterations to a total energy of -12.4866 eV

 Calculation parallelised over 16 processes.
 Data is distributed by k-point(16-way)

 ************************************ Title ************************************
 

 ***************************** General Parameters ******************************
  
 output verbosity                               : normal  (1)
 write checkpoint data to                       : Cmca-12.check
 type of calculation                            : geometry optimization
 stress calculation                             : on
 density difference calculation                 : off
 electron localisation func (ELF) calculation   : off
 Hirshfeld analysis                             : off
 unlimited duration calculation
 timing information                             : on
 memory usage estimate                          : on
 write extra output files                       : on
 write final potential to formatted file        : off
 write final density to formatted file          : off
 write structure in CELL formatted file         : on
 write BibTeX reference list                    : on
 write OTFG pseudopotential files               : on
 write electrostatic potential file             : on
 write bands file                               : on
 checkpoint writing                             : both castep_bin and check files
  
 output         length unit                     : A
 output           mass unit                     : amu
 output           time unit                     : ps
 output         charge unit                     : e
 output           spin unit                     : hbar/2
 output         energy unit                     : eV
 output          force unit                     : eV/A
 output       velocity unit                     : A/ps
 output       pressure unit                     : GPa
 output     inv_length unit                     : 1/A
 output      frequency unit                     : cm-1
 output force constant unit                     : eV/A**2
 output         volume unit                     : A**3
 output   IR intensity unit                     : (D/A)**2/amu
 output         dipole unit                     : D
 output         efield unit                     : eV/A/e
 output        entropy unit                     : J/mol/K
  
 wavefunctions paging                           : none
 random number generator seed                   : randomised (33916377)
 data distribution                              : optimal for this architecture
 optimization strategy                          : maximize speed(+++)

 *********************** Exchange-Correlation Parameters ***********************
  
 using functional                               : Perdew Burke Ernzerhof
 relativistic treatment                         : Koelling-Harmon
 DFT+D: Semi-empirical dispersion correction    : off

 ************************* Pseudopotential Parameters **************************
  
 pseudopotential representation                 : reciprocal space
 <beta|phi> representation                      : reciprocal space
 spin-orbit coupling                            : off

 **************************** Basis Set Parameters *****************************
  
 plane wave basis set cut-off                   :  1200.0000   eV
 size of standard grid                          :     2.0000
 size of   fine   gmax                          :    35.4943   1/A
 finite basis set correction                    : automatic
 number of sample energies                      :          3
           sample  spacing                      :     5.0000   eV

 **************************** Electronic Parameters ****************************
  
 number of  electrons                           :  24.00    
 net charge of system                           :  0.000    
 treating system as non-spin-polarized
 number of bands                                :         12

 ********************* Electronic Minimization Parameters **********************
  
 Method: Treating system as non-metallic,
         and number of  SD  steps               :          1
         and number of  CG  steps               :          4
  
 total energy / atom convergence tol.           : 0.1000E-10   eV
 eigen-energy convergence tolerance             : 0.2000E-10   eV
 max force / atom convergence tol.              : ignored
 convergence tolerance window                   :          3   cycles
 max. number of SCF cycles                      :        100
 periodic dipole correction                     : NONE

 ************************** Density Mixing Parameters **************************
  
 density-mixing scheme                          : Broyden
 max. length of mixing history                  :         20
 charge density mixing amplitude                : 0.8000    
 cut-off energy for mixing                      :  1200.       eV

 *********************** Population Analysis Parameters ************************
  
 Population analysis with cutoff                :  3.000       A
 Population analysis output                     : summary and pdos components

 ********************** Geometry Optimization Parameters ***********************
  
 optimization method                            : LBFGS
 max. no. of LBFGS updates                      : unbounded
 variable cell method                           : fixed basis quality
 max. number of steps                           :        200
 estimated bulk modulus                         :  500.0       GPa
 estimated <frequency>                          :  1668.       cm-1
 geom line minimiser                            : on
 with line minimiser tolerance                  :     0.4000
 total energy convergence tolerance             : 0.1000E-08   eV/atom
        max ionic |force| tolerance             : 0.1000E-04   eV/A
 max ionic |displacement| tolerance             : 0.1000E-04   A
   max |stress component| tolerance             : 0.1000E-04   GPa
 convergence tolerance window                   :          2   steps
 backup results every                           :      14400   seconds
 write geom trajectory file                     : on

 *******************************************************************************
  

                           -------------------------------
                                      Unit Cell
                           -------------------------------
        Real Lattice(A)                      Reciprocal Lattice(1/A)
     3.1922907     0.0000000     0.0000000        1.968237187  -0.000000000  -0.000000000
     0.0000000     5.9716175     0.0000000       -0.000000000   1.052174780  -0.000000002
     0.0000000     0.0000000     3.4944804       -0.000000000  -0.000000003   1.798031353

                       Lattice parameters(A)       Cell Angles
                    a =      3.192291          alpha =   90.000000
                    b =      5.971617          beta  =   90.000000
                    c =      3.494480          gamma =   90.000000

                       Current cell volume =            66.615766       A**3
                                   density =             0.363136   AMU/A**3
                                           =             0.603001     g/cm^3

                           -------------------------------
                                     Cell Contents
                           -------------------------------
                         Total number of ions in cell =   24
                      Total number of species in cell =    1
                        Max number of any one species =   24

            xxxxxxxxxxxxxxxxxxxxxxxxxxxxxxxxxxxxxxxxxxxxxxxxxxxxxxxxxxxx
            x  Element    Atom        Fractional coordinates of atoms  x
            x            Number           u          v          w      x
            x----------------------------------------------------------x
            x  H            1         0.000000   0.006309   0.106400   x 
            x  H            2        -0.000000   0.134976   0.467053   x 
            x  H            3         0.000000   0.237744   0.347290   x 
            x  H            4         0.500000   0.237744   0.152710   x 
            x  H            5         0.500000   0.134976   0.032947   x 
            x  H            6         0.500000   0.006309   0.393600   x 
            x  H            7         0.500000   0.262256   0.652710   x 
            x  H            8         0.500000   0.365024   0.532947   x 
            x  H            9         0.500000   0.493691   0.893600   x 
            x  H           10         0.500000   0.762256   0.847290   x 
            x  H           11         0.500000   0.865024   0.967053   x 
            x  H           12         0.500000   0.993691   0.606400   x 
            x  H           13         0.500000   0.737744   0.347290   x 
            x  H           14         0.500000   0.634976   0.467053   x 
            x  H           15         0.500000   0.506309   0.106400   x 
            x  H           16        -0.000000   0.737744   0.152710   x 
            x  H           17         0.000000   0.634976   0.032947   x 
            x  H           18         0.000000   0.506309   0.393600   x 
            x  H           19        -0.000000   0.762256   0.652710   x 
            x  H           20        -0.000000   0.865024   0.532947   x 
            x  H           21        -0.000000   0.993691   0.893600   x 
            x  H           22         0.000000   0.262256   0.847290   x 
            x  H           23        -0.000000   0.365024   0.967053   x 
            x  H           24        -0.000000   0.493691   0.606400   x 
            xxxxxxxxxxxxxxxxxxxxxxxxxxxxxxxxxxxxxxxxxxxxxxxxxxxxxxxxxxxx


                         No user defined ionic velocities

                           -------------------------------
                                   Details of Species
                           -------------------------------

                               Mass of species in AMU
                                    H    1.0078250

                          Electric Quadrupole Moment (Barn)
                                    H    0.0028600 Isotope  2

                          Files used for pseudopotentials:
                                    H 1|0.6|13|15|17|10(qc=8)

                           -------------------------------
                              k-Points For BZ Sampling
                           -------------------------------
                       MP grid size for SCF calculation is 10 10 10
                            with an offset of   0.000  0.000  0.000
                       Number of kpoints used =           500

                           -------------------------------
                               Symmetry and Constraints
                           -------------------------------

                      Cell is a supercell containing 2 primitive cells
                      Maximum deviation from symmetry =  0.00000         ANG

                      Number of symmetry operations   =           1
                      Number of ionic constraints     =           3
                      Point group of crystal =     1: C1, 1, 1
                      Space group of crystal =    64: Cmce, -C 2bc 2

             Set iprint > 1 for details on symmetry rotations/translations

                         Centre of mass is constrained
             Set iprint > 1 for details of linear ionic constraints

                         Number of cell constraints= 0
                         Cell constraints are:  1 2 3 4 5 6

                         External pressure/stress (GPa)
                         50.00000   0.00000   0.00000
                                   50.00000   0.00000
                                             50.00000
  
+---------------- MEMORY AND SCRATCH DISK ESTIMATES PER PROCESS --------------+
|                                                     Memory          Disk    |
| Baseline code, static data and system overhead      411.0 MB         0.0 MB |
| BLAS internal memory storage                          0.0 MB         0.0 MB |
| Model and support data                              112.5 MB         0.0 MB |
| Electronic energy minimisation requirements         103.9 MB         0.0 MB |
| Force calculation requirements                       13.2 MB         0.0 MB |
| Stress calculation requirements                      16.7 MB         0.0 MB |
|                                               ----------------------------- |
| Approx. total storage required per process          627.4 MB         0.0 MB |
|                                                                             |
| Requirements will fluctuate during execution and may exceed these estimates |
+-----------------------------------------------------------------------------+
Calculating finite basis set correction with  3 cut-off energies.
Calculating total energy with cut-off of 1190.000 eV.
------------------------------------------------------------------------ <-- SCF
SCF loop      Energy                           Energy gain       Timer   <-- SCF
                                               per atom          (sec)   <-- SCF
------------------------------------------------------------------------ <-- SCF
Initial   6.32762323E+002                                          9.27  <-- SCF
      1  -2.97995845E+002                    3.87815903E+001      32.69  <-- SCF
      2  -3.69597148E+002                    2.98338762E+000      49.57  <-- SCF
      3  -3.70758621E+002                    4.83947080E-002      64.43  <-- SCF
      4  -3.68478103E+002                   -9.50215671E-002      84.91  <-- SCF
      5  -3.68401976E+002                   -3.17196918E-003     105.73  <-- SCF
      6  -3.68404765E+002                    1.16191034E-004     125.91  <-- SCF
      7  -3.68405064E+002                    1.24931742E-005     146.33  <-- SCF
      8  -3.68405066E+002                    4.47407141E-008     166.63  <-- SCF
      9  -3.68405066E+002                    3.11616195E-009     186.93  <-- SCF
     10  -3.68405066E+002                    7.99919108E-011     201.38  <-- SCF
     11  -3.68405066E+002                    7.94340197E-012     215.81  <-- SCF
     12  -3.68405066E+002                   -3.90725148E-013     230.23  <-- SCF
------------------------------------------------------------------------ <-- SCF
 
Final energy =  -368.4050656390     eV
(energy not corrected for finite basis set)
 
Calculating total energy with cut-off of 1195.000 eV.
------------------------------------------------------------------------ <-- SCF
SCF loop      Energy                           Energy gain       Timer   <-- SCF
                                               per atom          (sec)   <-- SCF
------------------------------------------------------------------------ <-- SCF
Initial  -3.68405066E+002                                        236.53  <-- SCF
      1  -3.68405097E+002                    1.29577514E-006     255.75  <-- SCF
      2  -3.68405097E+002                    1.18828782E-012     271.43  <-- SCF
      3  -3.68405097E+002                    5.57423802E-010     287.11  <-- SCF
      4  -3.68405097E+002                    2.01847806E-011     302.84  <-- SCF
      5  -3.68405097E+002                    4.02809431E-013     318.53  <-- SCF
      6  -3.68405097E+002                   -1.69179961E-013     334.22  <-- SCF
------------------------------------------------------------------------ <-- SCF
 
Final energy =  -368.4050967515     eV
(energy not corrected for finite basis set)
 
Calculating total energy with cut-off of 1200.000 eV.
------------------------------------------------------------------------ <-- SCF
SCF loop      Energy                           Energy gain       Timer   <-- SCF
                                               per atom          (sec)   <-- SCF
------------------------------------------------------------------------ <-- SCF
Initial  -3.68405097E+002                                        340.64  <-- SCF
      1  -3.68405130E+002                    1.39063968E-006     362.35  <-- SCF
      2  -3.68405130E+002                    1.17620354E-012     379.00  <-- SCF
      3  -3.68405130E+002                    6.13428412E-010     395.53  <-- SCF
      4  -3.68405130E+002                    2.08957392E-011     411.93  <-- SCF
      5  -3.68405130E+002                    3.84683006E-013     428.29  <-- SCF
      6  -3.68405130E+002                    2.61826130E-014     444.65  <-- SCF
------------------------------------------------------------------------ <-- SCF
 
Final energy =  -368.4051301421     eV
(energy not corrected for finite basis set)
 
 For future reference: finite basis dEtot/dlog(Ecut) =      -0.007682eV
 Total energy corrected for finite basis set =    -368.405130 eV
 
+---------------- MEMORY AND SCRATCH DISK ESTIMATES PER PROCESS --------------+
|                                                     Memory          Disk    |
| Model and support data                              118.2 MB         0.0 MB |
| Electronic energy minimisation requirements         103.9 MB         0.0 MB |
| Geometry minimisation requirements                  143.5 MB         0.0 MB |
|                                               ----------------------------- |
| Approx. total storage required per process          365.7 MB         0.0 MB |
|                                                                             |
| Requirements will fluctuate during execution and may exceed these estimates |
+-----------------------------------------------------------------------------+
 

 ************************************** Forces **************************************
 *                                                                                  *
 *                           Cartesian components (eV/A)                            *
 * -------------------------------------------------------------------------------- *
 *                         x                    y                    z              *
 *                                                                                  *
 * H               1     -0.00000              0.00000              0.00000         *
 * H               2     -0.00000              0.00000             -0.00000         *
 * H               3     -0.00000              0.00000              0.00000         *
 * H               4     -0.00000              0.00000              0.00000         *
 * H               5      0.00000             -0.00000             -0.00000         *
 * H               6      0.00000              0.00000             -0.00000         *
 * H               7      0.00000             -0.00000              0.00000         *
 * H               8     -0.00000              0.00000             -0.00000         *
 * H               9     -0.00000             -0.00000             -0.00000         *
 * H              10     -0.00000             -0.00000             -0.00000         *
 * H              11     -0.00000              0.00000              0.00000         *
 * H              12      0.00000             -0.00000              0.00000         *
 * H              13      0.00000              0.00000             -0.00000         *
 * H              14     -0.00000             -0.00000              0.00000         *
 * H              15      0.00000              0.00000              0.00000         *
 * H              16      0.00000             -0.00000             -0.00000         *
 * H              17      0.00000              0.00000              0.00000         *
 * H              18     -0.00000             -0.00000              0.00000         *
 * H              19      0.00000              0.00000             -0.00000         *
 * H              20     -0.00000             -0.00000              0.00000         *
 * H              21      0.00000             -0.00000             -0.00000         *
 * H              22     -0.00000              0.00000              0.00000         *
 * H              23      0.00000             -0.00000             -0.00000         *
 * H              24      0.00000              0.00000             -0.00000         *
 *                                                                                  *
 ************************************************************************************

 ***************** Stress Tensor *****************
 *                                               *
 *          Cartesian components (GPa)           *
 * --------------------------------------------- *
 *             x             y             z     *
 *                                               *
 *  x    -60.000006      0.000000     -0.000000  *
 *  y      0.000000    -60.000002      0.000002  *
 *  z     -0.000000      0.000002    -59.999991  *
 *                                               *
 *  Pressure:   60.0000                          *
 *                                               *
 *************************************************
 LBFGS: finished iteration     0 with enthalpy= -3.47615984E+002 eV
  
 +-----------+-----------------+-----------------+------------+-----+ <-- LBFGS
 | Parameter |      value      |    tolerance    |    units   | OK? | <-- LBFGS
 +-----------+-----------------+-----------------+------------+-----+ <-- LBFGS
 |  dE/ion   |   0.000000E+000 |   1.000000E-009 |         eV | No  | <-- LBFGS
 |  |F|max   |   4.188872E-006 |   1.000000E-005 |       eV/A | Yes | <-- LBFGS
 |  |dR|max  |   0.000000E+000 |   1.000000E-005 |          A | No  | <-- LBFGS
 |   Smax    |   1.000001E+001 |   1.000000E-005 |        GPa | No  | <-- LBFGS
 +-----------+-----------------+-----------------+------------+-----+ <-- LBFGS
  

================================================================================
 Starting LBFGS iteration          1 ...
================================================================================
  
 +------------+-------------+-------------+-----------------+ <-- min LBFGS
 |    Step    |   lambda    |   F.delta'  |    enthalpy     | <-- min LBFGS
 +------------+-------------+-------------+-----------------+ <-- min LBFGS
 |  previous  |    0.000000 |    0.264653 |     -347.615984 | <-- min LBFGS
 +------------+-------------+-------------+-----------------+ <-- min LBFGS
  

--------------------------------------------------------------------------------
 LBFGS: starting iteration         1 with trial guess (lambda=  1.000000)
--------------------------------------------------------------------------------
 
+---------------- MEMORY AND SCRATCH DISK ESTIMATES PER PROCESS --------------+
|                                                     Memory          Disk    |
| Model and support data                              119.7 MB         0.0 MB |
| Electronic energy minimisation requirements         105.8 MB         0.0 MB |
| Geometry minimisation requirements                  146.2 MB         0.0 MB |
|                                               ----------------------------- |
| Approx. total storage required per process          371.6 MB         0.0 MB |
|                                                                             |
| Requirements will fluctuate during execution and may exceed these estimates |
+-----------------------------------------------------------------------------+
 

                           -------------------------------
                                      Unit Cell
                           -------------------------------
        Real Lattice(A)              Reciprocal Lattice(1/A)
     3.2135727     0.0000000     0.0000000        1.955202496  -0.000000000  -0.000000000
     0.0000000     6.0114283     0.0000000       -0.000000000   1.045206734  -0.000000000
     0.0000000     0.0000000     3.5177769       -0.000000000  -0.000000000   1.786123871

                       Lattice parameters(A)       Cell Angles
                    a =      3.213573          alpha =   90.000000
                    b =      6.011428          beta  =   90.000000
                    c =      3.517777          gamma =   90.000000

                Current cell volume =            67.956983 A**3

                           -------------------------------
                                     Cell Contents
                           -------------------------------

            xxxxxxxxxxxxxxxxxxxxxxxxxxxxxxxxxxxxxxxxxxxxxxxxxxxxxxxxxxxxxxxxx
            x  Element         Atom        Fractional coordinates of atoms  x
            x                 Number           u          v          w      x
            x---------------------------------------------------------------x
            x  H                 1         0.000000   0.006309   0.106400   x
            x  H                 2        -0.000000   0.134976   0.467053   x
            x  H                 3         0.000000   0.237744   0.347290   x
            x  H                 4         0.500000   0.237744   0.152710   x
            x  H                 5         0.500000   0.134976   0.032947   x
            x  H                 6         0.500000   0.006309   0.393600   x
            x  H                 7         0.500000   0.262256   0.652710   x
            x  H                 8         0.500000   0.365024   0.532947   x
            x  H                 9         0.500000   0.493691   0.893600   x
            x  H                10         0.500000   0.762256   0.847290   x
            x  H                11         0.500000   0.865024   0.967053   x
            x  H                12         0.500000   0.993691   0.606400   x
            x  H                13         0.500000   0.737744   0.347290   x
            x  H                14         0.500000   0.634976   0.467053   x
            x  H                15         0.500000   0.506309   0.106400   x
            x  H                16        -0.000000   0.737744   0.152710   x
            x  H                17         0.000000   0.634976   0.032947   x
            x  H                18         0.000000   0.506309   0.393600   x
            x  H                19        -0.000000   0.762256   0.652710   x
            x  H                20        -0.000000   0.865024   0.532947   x
            x  H                21        -0.000000   0.993691   0.893600   x
            x  H                22         0.000000   0.262256   0.847290   x
            x  H                23        -0.000000   0.365024   0.967053   x
            x  H                24        -0.000000   0.493691   0.606400   x
            xxxxxxxxxxxxxxxxxxxxxxxxxxxxxxxxxxxxxxxxxxxxxxxxxxxxxxxxxxxxxxxxx


------------------------------------------------------------------------ <-- SCF
SCF loop      Energy                           Energy gain       Timer   <-- SCF
                                               per atom          (sec)   <-- SCF
------------------------------------------------------------------------ <-- SCF
Initial  -3.68879858E+002                                        490.51  <-- SCF
      1  -3.68890461E+002                    4.41800542E-004     512.74  <-- SCF
      2  -3.68890492E+002                    1.25371619E-006     536.65  <-- SCF
      3  -3.68889897E+002                   -2.47584552E-005     560.61  <-- SCF
      4  -3.68889881E+002                   -6.60841525E-007     584.60  <-- SCF
      5  -3.68889882E+002                    2.69604158E-008     608.54  <-- SCF
      6  -3.68889882E+002                    2.81080421E-009     632.49  <-- SCF
      7  -3.68889882E+002                    1.23823619E-011     649.22  <-- SCF
      8  -3.68889882E+002                    8.17703144E-013     665.96  <-- SCF
      9  -3.68889882E+002                    8.05618861E-014     682.67  <-- SCF
------------------------------------------------------------------------ <-- SCF
 
Final energy =  -368.8898821723     eV
(energy not corrected for finite basis set)
 

 ************************************** Forces **************************************
 *                                                                                  *
 *                           Cartesian components (eV/A)                            *
 * -------------------------------------------------------------------------------- *
 *                         x                    y                    z              *
 *                                                                                  *
 * H               1     -0.00000             -0.01078             -0.14829         *
 * H               2      0.00000              0.12280             -0.08456         *
 * H               3     -0.00000             -0.12522              0.08495         *
 * H               4     -0.00000             -0.12522             -0.08495         *
 * H               5      0.00000              0.12280              0.08456         *
 * H               6     -0.00000             -0.01078              0.14829         *
 * H               7     -0.00000              0.12524             -0.08496         *
 * H               8      0.00000             -0.12282              0.08457         *
 * H               9     -0.00000              0.01078              0.14830         *
 * H              10      0.00000              0.12523              0.08495         *
 * H              11     -0.00000             -0.12281             -0.08457         *
 * H              12      0.00000              0.01078             -0.14829         *
 * H              13      0.00000             -0.12522              0.08495         *
 * H              14     -0.00000              0.12280             -0.08456         *
 * H              15      0.00000             -0.01078             -0.14830         *
 * H              16      0.00000             -0.12522             -0.08495         *
 * H              17     -0.00000              0.12280              0.08456         *
 * H              18     -0.00000             -0.01078              0.14827         *
 * H              19     -0.00000              0.12522             -0.08494         *
 * H              20      0.00000             -0.12279              0.08456         *
 * H              21      0.00000              0.01078              0.14829         *
 * H              22     -0.00000              0.12521              0.08494         *
 * H              23      0.00000             -0.12279             -0.08456         *
 * H              24      0.00000              0.01078             -0.14827         *
 *                                                                                  *
 ************************************************************************************

 ***************** Stress Tensor *****************
 *                                               *
 *          Cartesian components (GPa)           *
 * --------------------------------------------- *
 *             x             y             z     *
 *                                               *
 *  x    -57.014566     -0.000000      0.000000  *
 *  y     -0.000000    -55.456245     -0.000011  *
 *  z      0.000000     -0.000011    -55.107832  *
 *                                               *
 *  Pressure:   55.8595                          *
 *                                               *
 *************************************************
  
 +------------+-------------+-------------+-----------------+ <-- min LBFGS
 |    Step    |   lambda    |   F.delta'  |    enthalpy     | <-- min LBFGS
 +------------+-------------+-------------+-----------------+ <-- min LBFGS
 |  previous  |    0.000000 |    0.264653 |     -347.615984 | <-- min LBFGS
 | trial step |    1.000000 |    0.157149 |     -347.682175 | <-- min LBFGS
 +------------+-------------+-------------+-----------------+ <-- min LBFGS
  

--------------------------------------------------------------------------------
 LBFGS: improving iteration         1 with line minimization (lambda=  2.461798)
--------------------------------------------------------------------------------
 
+---------------- MEMORY AND SCRATCH DISK ESTIMATES PER PROCESS --------------+
|                                                     Memory          Disk    |
| Model and support data                              124.2 MB         0.0 MB |
| Electronic energy minimisation requirements         109.8 MB         0.0 MB |
| Geometry minimisation requirements                  151.6 MB         0.0 MB |
|                                               ----------------------------- |
| Approx. total storage required per process          385.6 MB         0.0 MB |
|                                                                             |
| Requirements will fluctuate during execution and may exceed these estimates |
+-----------------------------------------------------------------------------+
 

                           -------------------------------
                                      Unit Cell
                           -------------------------------
        Real Lattice(A)              Reciprocal Lattice(1/A)
     3.2446826    -0.0000000     0.0000000        1.936456078   0.000000000  -0.000000000
    -0.0000000     6.0696236    -0.0000000        0.000000000   1.035185329   0.000000002
     0.0000000    -0.0000000     3.5518317       -0.000000000   0.000000004   1.768998598

                       Lattice parameters(A)       Cell Angles
                    a =      3.244683          alpha =   90.000000
                    b =      6.069624          beta  =   90.000000
                    c =      3.551832          gamma =   90.000000

                Current cell volume =            69.949781 A**3

                           -------------------------------
                                     Cell Contents
                           -------------------------------

            xxxxxxxxxxxxxxxxxxxxxxxxxxxxxxxxxxxxxxxxxxxxxxxxxxxxxxxxxxxxxxxxx
            x  Element         Atom        Fractional coordinates of atoms  x
            x                 Number           u          v          w      x
            x---------------------------------------------------------------x
            x  H                 1         0.000000   0.006309   0.106400   x
            x  H                 2        -0.000000   0.134976   0.467053   x
            x  H                 3         0.000000   0.237744   0.347290   x
            x  H                 4         0.500000   0.237744   0.152710   x
            x  H                 5         0.500000   0.134976   0.032947   x
            x  H                 6         0.500000   0.006309   0.393600   x
            x  H                 7         0.500000   0.262256   0.652710   x
            x  H                 8         0.500000   0.365024   0.532947   x
            x  H                 9         0.500000   0.493691   0.893600   x
            x  H                10         0.500000   0.762256   0.847290   x
            x  H                11         0.500000   0.865024   0.967053   x
            x  H                12         0.500000   0.993691   0.606400   x
            x  H                13         0.500000   0.737744   0.347290   x
            x  H                14         0.500000   0.634976   0.467053   x
            x  H                15         0.500000   0.506309   0.106400   x
            x  H                16        -0.000000   0.737744   0.152710   x
            x  H                17         0.000000   0.634976   0.032948   x
            x  H                18         0.000000   0.506309   0.393600   x
            x  H                19         0.000000   0.762256   0.652710   x
            x  H                20        -0.000000   0.865024   0.532948   x
            x  H                21        -0.000000   0.993691   0.893600   x
            x  H                22         0.000000   0.262256   0.847290   x
            x  H                23        -0.000000   0.365024   0.967052   x
            x  H                24        -0.000000   0.493691   0.606400   x
            xxxxxxxxxxxxxxxxxxxxxxxxxxxxxxxxxxxxxxxxxxxxxxxxxxxxxxxxxxxxxxxxx


------------------------------------------------------------------------ <-- SCF
SCF loop      Energy                           Energy gain       Timer   <-- SCF
                                               per atom          (sec)   <-- SCF
------------------------------------------------------------------------ <-- SCF
Initial  -3.69527986E+002                                        729.94  <-- SCF
      1  -3.69550150E+002                    9.23526504E-004     754.46  <-- SCF
      2  -3.69550215E+002                    2.69179905E-006     781.09  <-- SCF
      3  -3.69548955E+002                   -5.24849335E-005     807.72  <-- SCF
      4  -3.69548922E+002                   -1.39553133E-006     834.45  <-- SCF
      5  -3.69548923E+002                    6.07365687E-008     861.19  <-- SCF
      6  -3.69548923E+002                    6.42188602E-009     887.79  <-- SCF
      7  -3.69548923E+002                    2.87384388E-011     906.39  <-- SCF
      8  -3.69548923E+002                    2.37858969E-012     924.98  <-- SCF
      9  -3.69548923E+002                    4.22949902E-013     943.60  <-- SCF
------------------------------------------------------------------------ <-- SCF
 
Final energy =  -369.5489233058     eV
(energy not corrected for finite basis set)
 

 ************************************** Forces **************************************
 *                                                                                  *
 *                           Cartesian components (eV/A)                            *
 * -------------------------------------------------------------------------------- *
 *                         x                    y                    z              *
 *                                                                                  *
 * H               1     -0.00000             -0.02605             -0.35743         *
 * H               2      0.00000              0.29608             -0.20391         *
 * H               3     -0.00000             -0.30191              0.20482         *
 * H               4     -0.00000             -0.30191             -0.20475         *
 * H               5     -0.00000              0.29608              0.20392         *
 * H               6     -0.00000             -0.02605              0.35747         *
 * H               7     -0.00000              0.30195             -0.20486         *
 * H               8      0.00000             -0.29613              0.20394         *
 * H               9      0.00000              0.02606              0.35745         *
 * H              10      0.00000              0.30193              0.20477         *
 * H              11     -0.00000             -0.29610             -0.20394         *
 * H              12     -0.00000              0.02605             -0.35747         *
 * H              13      0.00000             -0.30191              0.20483         *
 * H              14     -0.00000              0.29609             -0.20391         *
 * H              15      0.00000             -0.02606             -0.35745         *
 * H              16      0.00000             -0.30190             -0.20475         *
 * H              17     -0.00000              0.29607              0.20392         *
 * H              18     -0.00000             -0.02604              0.35741         *
 * H              19     -0.00000              0.30189             -0.20481         *
 * H              20      0.00000             -0.29606              0.20390         *
 * H              21      0.00000              0.02606              0.35743         *
 * H              22      0.00000              0.30189              0.20474         *
 * H              23      0.00000             -0.29606             -0.20391         *
 * H              24      0.00000              0.02604             -0.35741         *
 *                                                                                  *
 ************************************************************************************

 ***************** Stress Tensor *****************
 *                                               *
 *          Cartesian components (GPa)           *
 * --------------------------------------------- *
 *             x             y             z     *
 *                                               *
 *  x    -52.928860     -0.000000      0.000000  *
 *  y     -0.000000    -49.246221     -0.000035  *
 *  z      0.000000     -0.000035    -48.426679  *
 *                                               *
 *  Pressure:   50.2006                          *
 *                                               *
 *************************************************
  
 +------------+-------------+-------------+-----------------+ <-- min LBFGS
 |    Step    |   lambda    |   F.delta'  |    enthalpy     | <-- min LBFGS
 +------------+-------------+-------------+-----------------+ <-- min LBFGS
 |  previous  |    0.000000 |    0.264653 |     -347.615984 | <-- min LBFGS
 | trial step |    1.000000 |    0.157149 |     -347.682175 | <-- min LBFGS
 |  line step |    2.461798 |    0.005484 |     -347.719314 | <-- min LBFGS
 +------------+-------------+-------------+-----------------+ <-- min LBFGS
  
 LBFGS: finished iteration     1 with enthalpy= -3.47719314E+002 eV
  
 +-----------+-----------------+-----------------+------------+-----+ <-- LBFGS
 | Parameter |      value      |    tolerance    |    units   | OK? | <-- LBFGS
 +-----------+-----------------+-----------------+------------+-----+ <-- LBFGS
 |  dE/ion   |   4.305378E-003 |   1.000000E-009 |         eV | No  | <-- LBFGS
 |  |F|max   |   3.648870E-001 |   1.000000E-005 |       eV/A | No  | <-- LBFGS
 |  |dR|max  |   1.016707E-006 |   1.000000E-005 |          A | Yes | <-- LBFGS
 |   Smax    |   2.928860E+000 |   1.000000E-005 |        GPa | No  | <-- LBFGS
 +-----------+-----------------+-----------------+------------+-----+ <-- LBFGS
  

================================================================================
 Starting LBFGS iteration          2 ...
================================================================================
  
 +------------+-------------+-------------+-----------------+ <-- min LBFGS
 |    Step    |   lambda    |   F.delta'  |    enthalpy     | <-- min LBFGS
 +------------+-------------+-------------+-----------------+ <-- min LBFGS
 |  previous  |    0.000000 |    0.192534 |     -347.719314 | <-- min LBFGS
 +------------+-------------+-------------+-----------------+ <-- min LBFGS
  

--------------------------------------------------------------------------------
 LBFGS: starting iteration         2 with trial guess (lambda=  1.000000)
--------------------------------------------------------------------------------
 
+---------------- MEMORY AND SCRATCH DISK ESTIMATES PER PROCESS --------------+
|                                                     Memory          Disk    |
| Model and support data                              130.1 MB         0.0 MB |
| Electronic energy minimisation requirements         117.6 MB         0.0 MB |
| Geometry minimisation requirements                  162.5 MB         0.0 MB |
|                                               ----------------------------- |
| Approx. total storage required per process          410.2 MB         0.0 MB |
|                                                                             |
| Requirements will fluctuate during execution and may exceed these estimates |
+-----------------------------------------------------------------------------+
 

                           -------------------------------
                                      Unit Cell
                           -------------------------------
        Real Lattice(A)              Reciprocal Lattice(1/A)
     3.3364313    -0.0000000     0.0000000        1.883205381   0.000000000  -0.000000000
    -0.0000000     6.2257855     0.0000001        0.000000000   1.009219690  -0.000000016
     0.0000000     0.0000001     3.6412005       -0.000000000  -0.000000027   1.725580702

                       Lattice parameters(A)       Cell Angles
                    a =      3.336431          alpha =   89.999998
                    b =      6.225785          beta  =   90.000000
                    c =      3.641200          gamma =   90.000000

                Current cell volume =            75.634672 A**3

                           -------------------------------
                                     Cell Contents
                           -------------------------------

            xxxxxxxxxxxxxxxxxxxxxxxxxxxxxxxxxxxxxxxxxxxxxxxxxxxxxxxxxxxxxxxxx
            x  Element         Atom        Fractional coordinates of atoms  x
            x                 Number           u          v          w      x
            x---------------------------------------------------------------x
            x  H                 1         0.000000   0.005870   0.096102   x
            x  H                 2        -0.000000   0.139968   0.461178   x
            x  H                 3         0.000000   0.232654   0.353192   x
            x  H                 4         0.500000   0.232654   0.146811   x
            x  H                 5         0.500000   0.139968   0.038823   x
            x  H                 6         0.500000   0.005870   0.403899   x
            x  H                 7         0.500000   0.267347   0.646808   x
            x  H                 8         0.500000   0.360031   0.538823   x
            x  H                 9         0.500000   0.494130   0.903898   x
            x  H                10         0.500000   0.767347   0.853190   x
            x  H                11         0.500000   0.860032   0.961177   x
            x  H                12         0.500000   0.994130   0.596101   x
            x  H                13         0.500000   0.732654   0.353192   x
            x  H                14         0.500000   0.639968   0.461178   x
            x  H                15         0.500000   0.505870   0.096102   x
            x  H                16        -0.000000   0.732654   0.146811   x
            x  H                17         0.000000   0.639968   0.038823   x
            x  H                18         0.000000   0.505870   0.403898   x
            x  H                19         0.000000   0.767346   0.646809   x
            x  H                20        -0.000000   0.860032   0.538822   x
            x  H                21        -0.000000   0.994130   0.903898   x
            x  H                22         0.000000   0.267346   0.853189   x
            x  H                23        -0.000000   0.360032   0.961178   x
            x  H                24        -0.000000   0.494130   0.596102   x
            xxxxxxxxxxxxxxxxxxxxxxxxxxxxxxxxxxxxxxxxxxxxxxxxxxxxxxxxxxxxxxxxx


------------------------------------------------------------------------ <-- SCF
SCF loop      Energy                           Energy gain       Timer   <-- SCF
                                               per atom          (sec)   <-- SCF
------------------------------------------------------------------------ <-- SCF
Initial  -3.67715025E+002                                        992.77  <-- SCF
      1  -3.71294461E+002                    1.49143165E-001    1018.26  <-- SCF
      2  -3.71310028E+002                    6.48641847E-004    1046.47  <-- SCF
      3  -3.70880318E+002                   -1.79046000E-002    1074.02  <-- SCF
      4  -3.70864236E+002                   -6.70087254E-004    1102.19  <-- SCF
      5  -3.70864491E+002                    1.06472861E-005    1129.80  <-- SCF
      6  -3.70864526E+002                    1.44539938E-006    1157.39  <-- SCF
      7  -3.70864526E+002                    1.44796778E-008    1185.03  <-- SCF
      8  -3.70864526E+002                    3.40539926E-009    1212.73  <-- SCF
      9  -3.70864526E+002                    7.47090651E-011    1232.18  <-- SCF
     10  -3.70864526E+002                    5.08345501E-012    1251.73  <-- SCF
     11  -3.70864526E+002                    1.89320432E-013    1271.17  <-- SCF
------------------------------------------------------------------------ <-- SCF
 
Final energy =  -370.8645264227     eV
(energy not corrected for finite basis set)
 

 ************************************** Forces **************************************
 *                                                                                  *
 *                           Cartesian components (eV/A)                            *
 * -------------------------------------------------------------------------------- *
 *                         x                    y                    z              *
 *                                                                                  *
 * H               1      0.00000              0.17217              1.52490         *
 * H               2      0.00000             -1.41614              0.99325         *
 * H               3      0.00000              1.32375             -0.87150         *
 * H               4     -0.00000              1.32358              0.87139         *
 * H               5      0.00000             -1.41596             -0.99307         *
 * H               6     -0.00000              0.17222             -1.52535         *
 * H               7      0.00000             -1.32401              0.87167         *
 * H               8     -0.00000              1.41640             -0.99343         *
 * H               9     -0.00000             -0.17218             -1.52498         *
 * H              10     -0.00000             -1.32371             -0.87149         *
 * H              11      0.00000              1.41610              0.99316         *
 * H              12      0.00000             -0.17222              1.52535         *
 * H              13     -0.00000              1.32376             -0.87150         *
 * H              14      0.00000             -1.41615              0.99326         *
 * H              15      0.00000              0.17218              1.52498         *
 * H              16     -0.00000              1.32356              0.87138         *
 * H              17      0.00000             -1.41595             -0.99306         *
 * H              18     -0.00000              0.17219             -1.52508         *
 * H              19      0.00000             -1.32365              0.87142         *
 * H              20     -0.00000              1.41604             -0.99318         *
 * H              21     -0.00000             -0.17217             -1.52490         *
 * H              22      0.00000             -1.32349             -0.87133         *
 * H              23     -0.00000              1.41587              0.99301         *
 * H              24     -0.00000             -0.17219              1.52507         *
 *                                                                                  *
 ************************************************************************************

 ***************** Stress Tensor *****************
 *                                               *
 *          Cartesian components (GPa)           *
 * --------------------------------------------- *
 *             x             y             z     *
 *                                               *
 *  x    -41.928983      0.000000     -0.000000  *
 *  y      0.000000    -57.171938      0.000678  *
 *  z     -0.000000      0.000678    -57.949252  *
 *                                               *
 *  Pressure:   52.3501                          *
 *                                               *
 *************************************************
  
 +------------+-------------+-------------+-----------------+ <-- min LBFGS
 |    Step    |   lambda    |   F.delta'  |    enthalpy     | <-- min LBFGS
 +------------+-------------+-------------+-----------------+ <-- min LBFGS
 |  previous  |    0.000000 |    0.192534 |     -347.719314 | <-- min LBFGS
 | trial step |    1.000000 |   -0.813928 |     -347.260802 | <-- min LBFGS
 +------------+-------------+-------------+-----------------+ <-- min LBFGS
  

--------------------------------------------------------------------------------
 LBFGS: improving iteration         2 with line minimization (lambda=  0.191298)
--------------------------------------------------------------------------------

                           -------------------------------
                                      Unit Cell
                           -------------------------------
        Real Lattice(A)              Reciprocal Lattice(1/A)
     3.2622339    -0.0000000     0.0000000        1.926037634   0.000000000  -0.000000000
    -0.0000000     6.0994971     0.0000000        0.000000000   1.030115310  -0.000000001
     0.0000000     0.0000000     3.5689278       -0.000000000  -0.000000003   1.760524644

                       Lattice parameters(A)       Cell Angles
                    a =      3.262234          alpha =   90.000000
                    b =      6.099497          beta  =   90.000000
                    c =      3.568928          gamma =   90.000000

                Current cell volume =            71.014476 A**3

                           -------------------------------
                                     Cell Contents
                           -------------------------------

            xxxxxxxxxxxxxxxxxxxxxxxxxxxxxxxxxxxxxxxxxxxxxxxxxxxxxxxxxxxxxxxxx
            x  Element         Atom        Fractional coordinates of atoms  x
            x                 Number           u          v          w      x
            x---------------------------------------------------------------x
            x  H                 1         0.000000   0.006225   0.104430   x
            x  H                 2        -0.000000   0.135931   0.465929   x
            x  H                 3         0.000000   0.236770   0.348419   x
            x  H                 4         0.500000   0.236770   0.151581   x
            x  H                 5         0.500000   0.135931   0.034071   x
            x  H                 6         0.500000   0.006225   0.395570   x
            x  H                 7         0.500000   0.263230   0.651581   x
            x  H                 8         0.500000   0.364069   0.534071   x
            x  H                 9         0.500000   0.493775   0.895570   x
            x  H                10         0.500000   0.763230   0.848419   x
            x  H                11         0.500000   0.864069   0.965929   x
            x  H                12         0.500000   0.993775   0.604430   x
            x  H                13         0.500000   0.736770   0.348419   x
            x  H                14         0.500000   0.635931   0.465929   x
            x  H                15         0.500000   0.506225   0.104430   x
            x  H                16        -0.000000   0.736770   0.151581   x
            x  H                17         0.000000   0.635931   0.034071   x
            x  H                18         0.000000   0.506225   0.395570   x
            x  H                19         0.000000   0.763230   0.651581   x
            x  H                20        -0.000000   0.864069   0.534071   x
            x  H                21        -0.000000   0.993775   0.895570   x
            x  H                22         0.000000   0.263230   0.848419   x
            x  H                23        -0.000000   0.364069   0.965929   x
            x  H                24        -0.000000   0.493775   0.604430   x
            xxxxxxxxxxxxxxxxxxxxxxxxxxxxxxxxxxxxxxxxxxxxxxxxxxxxxxxxxxxxxxxxx


------------------------------------------------------------------------ <-- SCF
SCF loop      Energy                           Energy gain       Timer   <-- SCF
                                               per atom          (sec)   <-- SCF
------------------------------------------------------------------------ <-- SCF
Initial  -3.67703350E+002                                       1325.47  <-- SCF
      1  -3.70213215E+002                    1.04577735E-001    1349.08  <-- SCF
      2  -3.70223494E+002                    4.28277948E-004    1375.35  <-- SCF
      3  -3.69929515E+002                   -1.22491241E-002    1401.04  <-- SCF
      4  -3.69919406E+002                   -4.21198088E-004    1426.73  <-- SCF
      5  -3.69919479E+002                    3.03376054E-006    1452.84  <-- SCF
      6  -3.69919489E+002                    3.97967238E-007    1478.55  <-- SCF
      7  -3.69919489E+002                    7.36555170E-009    1504.27  <-- SCF
      8  -3.69919489E+002                    1.30042795E-009    1529.92  <-- SCF
      9  -3.69919489E+002                    1.97880133E-011    1548.04  <-- SCF
     10  -3.69919489E+002                    1.69582770E-012    1566.24  <-- SCF
     11  -3.69919489E+002                   -2.25573281E-013    1584.43  <-- SCF
------------------------------------------------------------------------ <-- SCF
 
Final energy =  -369.9194888723     eV
(energy not corrected for finite basis set)
 

 ************************************** Forces **************************************
 *                                                                                  *
 *                           Cartesian components (eV/A)                            *
 * -------------------------------------------------------------------------------- *
 *                         x                    y                    z              *
 *                                                                                  *
 * H               1     -0.00000              0.00358             -0.07371         *
 * H               2      0.00000              0.03283             -0.01876         *
 * H               3     -0.00000             -0.05897              0.04586         *
 * H               4     -0.00000             -0.05899             -0.04580         *
 * H               5     -0.00000              0.03285              0.01881         *
 * H               6     -0.00000              0.00360              0.07369         *
 * H               7     -0.00000              0.05898             -0.04587         *
 * H               8      0.00000             -0.03284              0.01876         *
 * H               9      0.00000             -0.00358              0.07372         *
 * H              10      0.00000              0.05899              0.04580         *
 * H              11     -0.00000             -0.03285             -0.01881         *
 * H              12     -0.00000             -0.00360             -0.07369         *
 * H              13      0.00000             -0.05897              0.04587         *
 * H              14      0.00000              0.03283             -0.01876         *
 * H              15      0.00000              0.00358             -0.07372         *
 * H              16     -0.00000             -0.05899             -0.04580         *
 * H              17     -0.00000              0.03285              0.01881         *
 * H              18     -0.00000              0.00360              0.07367         *
 * H              19     -0.00000              0.05897             -0.04586         *
 * H              20      0.00000             -0.03283              0.01876         *
 * H              21      0.00000             -0.00358              0.07371         *
 * H              22      0.00000              0.05899              0.04580         *
 * H              23      0.00000             -0.03285             -0.01881         *
 * H              24     -0.00000             -0.00360             -0.07367         *
 *                                                                                  *
 ************************************************************************************

 ***************** Stress Tensor *****************
 *                                               *
 *          Cartesian components (GPa)           *
 * --------------------------------------------- *
 *             x             y             z     *
 *                                               *
 *  x    -50.677625     -0.000000      0.000000  *
 *  y     -0.000000    -50.410676      0.000086  *
 *  z      0.000000      0.000086    -49.769007  *
 *                                               *
 *  Pressure:   50.2858                          *
 *                                               *
 *************************************************
  
 +------------+-------------+-------------+-----------------+ <-- min LBFGS
 |    Step    |   lambda    |   F.delta'  |    enthalpy     | <-- min LBFGS
 +------------+-------------+-------------+-----------------+ <-- min LBFGS
 |  previous  |    0.000000 |    0.192534 |     -347.719314 | <-- min LBFGS
 | trial step |    1.000000 |   -0.813928 |     -347.260802 | <-- min LBFGS
 |  line step |    0.191298 |    0.038270 |     -347.757614 | <-- min LBFGS
 +------------+-------------+-------------+-----------------+ <-- min LBFGS
  
 LBFGS: finished iteration     2 with enthalpy= -3.47757614E+002 eV
  
 +-----------+-----------------+-----------------+------------+-----+ <-- LBFGS
 | Parameter |      value      |    tolerance    |    units   | OK? | <-- LBFGS
 +-----------+-----------------+-----------------+------------+-----+ <-- LBFGS
 |  dE/ion   |   1.595837E-003 |   1.000000E-009 |         eV | No  | <-- LBFGS
 |  |F|max   |   7.471373E-002 |   1.000000E-005 |       eV/A | No  | <-- LBFGS
 |  |dR|max  |   7.177555E-003 |   1.000000E-005 |          A | No  | <-- LBFGS
 |   Smax    |   6.776253E-001 |   1.000000E-005 |        GPa | No  | <-- LBFGS
 +-----------+-----------------+-----------------+------------+-----+ <-- LBFGS
  

================================================================================
 Starting LBFGS iteration          3 ...
================================================================================
  
 +------------+-------------+-------------+-----------------+ <-- min LBFGS
 |    Step    |   lambda    |   F.delta'  |    enthalpy     | <-- min LBFGS
 +------------+-------------+-------------+-----------------+ <-- min LBFGS
 |  previous  |    0.000000 |    0.034140 |     -347.757614 | <-- min LBFGS
 +------------+-------------+-------------+-----------------+ <-- min LBFGS
  

--------------------------------------------------------------------------------
 LBFGS: starting iteration         3 with trial guess (lambda=  1.000000)
--------------------------------------------------------------------------------

                           -------------------------------
                                      Unit Cell
                           -------------------------------
        Real Lattice(A)              Reciprocal Lattice(1/A)
     3.2684788    -0.0000000     0.0000000        1.922357671   0.000000000  -0.000000000
    -0.0000000     6.1122536    -0.0000005        0.000000000   1.027965419   0.000000078
     0.0000000    -0.0000003     3.5747654       -0.000000000   0.000000133   1.757649712

                       Lattice parameters(A)       Cell Angles
                    a =      3.268479          alpha =   90.000009
                    b =      6.112254          beta  =   90.000000
                    c =      3.574765          gamma =   90.000000

                Current cell volume =            71.415845 A**3

                           -------------------------------
                                     Cell Contents
                           -------------------------------

            xxxxxxxxxxxxxxxxxxxxxxxxxxxxxxxxxxxxxxxxxxxxxxxxxxxxxxxxxxxxxxxxx
            x  Element         Atom        Fractional coordinates of atoms  x
            x                 Number           u          v          w      x
            x---------------------------------------------------------------x
            x  H                 1         0.000000   0.006369   0.103458   x
            x  H                 2        -0.000000   0.135818   0.466198   x
            x  H                 3         0.000000   0.236358   0.349104   x
            x  H                 4         0.500000   0.236357   0.150898   x
            x  H                 5         0.500000   0.135818   0.033804   x
            x  H                 6         0.500000   0.006370   0.396541   x
            x  H                 7         0.500000   0.263642   0.650896   x
            x  H                 8         0.500000   0.364182   0.533802   x
            x  H                 9         0.500000   0.493631   0.896542   x
            x  H                10         0.500000   0.763643   0.849102   x
            x  H                11         0.500000   0.864182   0.966197   x
            x  H                12         0.500000   0.993630   0.603459   x
            x  H                13         0.500000   0.736358   0.349104   x
            x  H                14         0.500000   0.635818   0.466198   x
            x  H                15         0.500000   0.506369   0.103458   x
            x  H                16        -0.000000   0.736357   0.150898   x
            x  H                17         0.000000   0.635818   0.033803   x
            x  H                18         0.000000   0.506370   0.396541   x
            x  H                19         0.000000   0.763642   0.650896   x
            x  H                20        -0.000000   0.864182   0.533802   x
            x  H                21        -0.000000   0.993631   0.896542   x
            x  H                22         0.000000   0.263643   0.849102   x
            x  H                23        -0.000000   0.364182   0.966196   x
            x  H                24        -0.000000   0.493630   0.603459   x
            xxxxxxxxxxxxxxxxxxxxxxxxxxxxxxxxxxxxxxxxxxxxxxxxxxxxxxxxxxxxxxxxx


------------------------------------------------------------------------ <-- SCF
SCF loop      Energy                           Energy gain       Timer   <-- SCF
                                               per atom          (sec)   <-- SCF
------------------------------------------------------------------------ <-- SCF
Initial  -3.70032531E+002                                       1633.87  <-- SCF
      1  -3.70048151E+002                    6.50829153E-004    1657.45  <-- SCF
      2  -3.70048224E+002                    3.04446326E-006    1683.54  <-- SCF
      3  -3.70046609E+002                   -6.72837962E-005    1709.61  <-- SCF
      4  -3.70046573E+002                   -1.51432134E-006    1735.70  <-- SCF
      5  -3.70046574E+002                    2.75187601E-008    1761.73  <-- SCF
      6  -3.70046574E+002                    3.06503939E-009    1787.85  <-- SCF
      7  -3.70046574E+002                    8.41166793E-011    1806.33  <-- SCF
      8  -3.70046574E+002                    8.04209028E-012    1824.80  <-- SCF
      9  -3.70046574E+002                    1.49039489E-013    1843.33  <-- SCF
------------------------------------------------------------------------ <-- SCF
 
Final energy =  -370.0465737625     eV
(energy not corrected for finite basis set)
 

 ************************************** Forces **************************************
 *                                                                                  *
 *                           Cartesian components (eV/A)                            *
 * -------------------------------------------------------------------------------- *
 *                         x                    y                    z              *
 *                                                                                  *
 * H               1     -0.00000              0.02259              0.09760         *
 * H               2      0.00000              0.01907             -0.00609         *
 * H               3     -0.00000             -0.04599              0.03629         *
 * H               4     -0.00000             -0.04587             -0.03615         *
 * H               5     -0.00000              0.01895              0.00602         *
 * H               6     -0.00000              0.02257             -0.09738         *
 * H               7     -0.00000              0.04600             -0.03629         *
 * H               8      0.00000             -0.01908              0.00609         *
 * H               9     -0.00000             -0.02259             -0.09763         *
 * H              10      0.00000              0.04590              0.03617         *
 * H              11     -0.00000             -0.01898             -0.00604         *
 * H              12     -0.00000             -0.02257              0.09738         *
 * H              13      0.00000             -0.04597              0.03627         *
 * H              14     -0.00000              0.01905             -0.00607         *
 * H              15      0.00000              0.02259              0.09763         *
 * H              16      0.00000             -0.04590             -0.03617         *
 * H              17     -0.00000              0.01899              0.00604         *
 * H              18     -0.00000              0.02257             -0.09736         *
 * H              19     -0.00000              0.04598             -0.03628         *
 * H              20      0.00000             -0.01906              0.00608         *
 * H              21     -0.00000             -0.02259             -0.09760         *
 * H              22      0.00000              0.04589              0.03616         *
 * H              23     -0.00000             -0.01897             -0.00603         *
 * H              24     -0.00000             -0.02257              0.09736         *
 *                                                                                  *
 ************************************************************************************

 ***************** Stress Tensor *****************
 *                                               *
 *          Cartesian components (GPa)           *
 * --------------------------------------------- *
 *             x             y             z     *
 *                                               *
 *  x    -49.994954     -0.000000      0.000000  *
 *  y     -0.000000    -49.898353     -0.000484  *
 *  z      0.000000     -0.000484    -50.235430  *
 *                                               *
 *  Pressure:   50.0429                          *
 *                                               *
 *************************************************
  
 +------------+-------------+-------------+-----------------+ <-- min LBFGS
 |    Step    |   lambda    |   F.delta'  |    enthalpy     | <-- min LBFGS
 +------------+-------------+-------------+-----------------+ <-- min LBFGS
 |  previous  |    0.000000 |    0.034140 |     -347.757614 | <-- min LBFGS
 | trial step |    1.000000 |   -0.007344 |     -347.759442 | <-- min LBFGS
 +------------+-------------+-------------+-----------------+ <-- min LBFGS
  
 LBFGS: finished iteration     3 with enthalpy= -3.47759442E+002 eV
  
 +-----------+-----------------+-----------------+------------+-----+ <-- LBFGS
 | Parameter |      value      |    tolerance    |    units   | OK? | <-- LBFGS
 +-----------+-----------------+-----------------+------------+-----+ <-- LBFGS
 |  dE/ion   |   7.616938E-005 |   1.000000E-009 |         eV | No  | <-- LBFGS
 |  |F|max   |   1.002107E-001 |   1.000000E-005 |       eV/A | No  | <-- LBFGS
 |  |dR|max  |   3.585169E-003 |   1.000000E-005 |          A | No  | <-- LBFGS
 |   Smax    |   2.354304E-001 |   1.000000E-005 |        GPa | No  | <-- LBFGS
 +-----------+-----------------+-----------------+------------+-----+ <-- LBFGS
  

================================================================================
 Starting LBFGS iteration          4 ...
================================================================================
  
 +------------+-------------+-------------+-----------------+ <-- min LBFGS
 |    Step    |   lambda    |   F.delta'  |    enthalpy     | <-- min LBFGS
 +------------+-------------+-------------+-----------------+ <-- min LBFGS
 |  previous  |    0.000000 |    0.031235 |     -347.759442 | <-- min LBFGS
 +------------+-------------+-------------+-----------------+ <-- min LBFGS
  

--------------------------------------------------------------------------------
 LBFGS: starting iteration         4 with trial guess (lambda=  1.000000)
--------------------------------------------------------------------------------

                           -------------------------------
                                      Unit Cell
                           -------------------------------
        Real Lattice(A)              Reciprocal Lattice(1/A)
     3.2782988    -0.0000000     0.0000000        1.916599361   0.000000000  -0.000000000
    -0.0000000     6.1318381     0.0000005        0.000000000   1.024682191  -0.000000075
     0.0000000     0.0000003     3.5842796       -0.000000000  -0.000000129   1.752984145

                       Lattice parameters(A)       Cell Angles
                    a =      3.278299          alpha =   89.999992
                    b =      6.131838          beta  =   90.000000
                    c =      3.584280          gamma =   90.000000

                Current cell volume =            72.051179 A**3

                           -------------------------------
                                     Cell Contents
                           -------------------------------

            xxxxxxxxxxxxxxxxxxxxxxxxxxxxxxxxxxxxxxxxxxxxxxxxxxxxxxxxxxxxxxxxx
            x  Element         Atom        Fractional coordinates of atoms  x
            x                 Number           u          v          w      x
            x---------------------------------------------------------------x
            x  H                 1         0.000000   0.006904   0.104071   x
            x  H                 2        -0.000000   0.135953   0.466422   x
            x  H                 3         0.000000   0.235013   0.351113   x
            x  H                 4         0.500000   0.235013   0.148895   x
            x  H                 5         0.500000   0.135953   0.033581   x
            x  H                 6         0.500000   0.006904   0.395931   x
            x  H                 7         0.500000   0.264987   0.648887   x
            x  H                 8         0.500000   0.364047   0.533578   x
            x  H                 9         0.500000   0.493096   0.895929   x
            x  H                10         0.500000   0.764987   0.851105   x
[...]
 * H              11      0.00000             -0.00000             -0.00000         *
 * H              12     -0.00000              0.00000              0.00000         *
 * H              13      0.00000              0.00000              0.00000         *
 * H              14     -0.00000              0.00000             -0.00000         *
 * H              15      0.00000             -0.00000             -0.00000         *
 * H              16     -0.00000              0.00000             -0.00000         *
 * H              17      0.00000             -0.00000             -0.00000         *
 * H              18     -0.00000             -0.00000              0.00000         *
 * H              19     -0.00000             -0.00000              0.00000         *
 * H              20     -0.00000              0.00000             -0.00000         *
 * H              21      0.00000              0.00000             -0.00000         *
 * H              22     -0.00000              0.00000              0.00000         *
 * H              23      0.00000             -0.00000             -0.00000         *
 * H              24      0.00000              0.00000              0.00000         *
 *                                                                                  *
 ************************************************************************************

 ***************** Stress Tensor *****************
 *                                               *
 *          Cartesian components (GPa)           *
 * --------------------------------------------- *
 *             x             y             z     *
 *                                               *
 *  x    -50.000007     -0.000000     -0.000000  *
 *  y     -0.000000    -49.999992     -0.000004  *
 *  z     -0.000000     -0.000004    -50.000002  *
 *                                               *
 *  Pressure:   50.0000                          *
 *                                               *
 *************************************************

 Pseudo atomic calculation performed for H 1s1

 Converged in 24 iterations to a total energy of -12.4866 eV

Charge spilling parameter for spin component 1 = 0.60%

            Orbital Populations       
     Ion    Atom   Orbital             Charge
  -------------------------------------------
      H     1      S                    1.004
      H     2      S                    1.030
      H     3      S                    0.967
      H     4      S                    0.967
      H     5      S                    1.030
      H     6      S                    1.004
      H     7      S                    0.967
      H     8      S                    1.030
      H     9      S                    1.004
      H    10      S                    0.967
      H    11      S                    1.030
      H    12      S                    1.004
      H    13      S                    0.967
      H    14      S                    1.030
      H    15      S                    1.004
      H    16      S                    0.967
      H    17      S                    1.030
      H    18      S                    1.004
      H    19      S                    0.967
      H    20      S                    1.030
      H    21      S                    1.004
      H    22      S                    0.967
      H    23      S                    1.030
      H    24      S                    1.004
  -------------------------------------------
                           Total:      24.000
  -------------------------------------------

     Atomic Populations (Mulliken)
     -----------------------------
Species          Ion     s      p      d      f     Total  Charge (e)
=====================================================================
  H               1     1.00   0.00   0.00   0.00   1.00    -0.00
  H               2     1.03   0.00   0.00   0.00   1.03    -0.03
  H               3     0.97   0.00   0.00   0.00   0.97     0.03
  H               4     0.97   0.00   0.00   0.00   0.97     0.03
  H               5     1.03   0.00   0.00   0.00   1.03    -0.03
  H               6     1.00   0.00   0.00   0.00   1.00    -0.00
  H               7     0.97   0.00   0.00   0.00   0.97     0.03
  H               8     1.03   0.00   0.00   0.00   1.03    -0.03
  H               9     1.00   0.00   0.00   0.00   1.00    -0.00
  H              10     0.97   0.00   0.00   0.00   0.97     0.03
  H              11     1.03   0.00   0.00   0.00   1.03    -0.03
  H              12     1.00   0.00   0.00   0.00   1.00    -0.00
  H              13     0.97   0.00   0.00   0.00   0.97     0.03
  H              14     1.03   0.00   0.00   0.00   1.03    -0.03
  H              15     1.00   0.00   0.00   0.00   1.00    -0.00
  H              16     0.97   0.00   0.00   0.00   0.97     0.03
  H              17     1.03   0.00   0.00   0.00   1.03    -0.03
  H              18     1.00   0.00   0.00   0.00   1.00    -0.00
  H              19     0.97   0.00   0.00   0.00   0.97     0.03
  H              20     1.03   0.00   0.00   0.00   1.03    -0.03
  H              21     1.00   0.00   0.00   0.00   1.00    -0.00
  H              22     0.97   0.00   0.00   0.00   0.97     0.03
  H              23     1.03   0.00   0.00   0.00   1.03    -0.03
  H              24     1.00   0.00   0.00   0.00   1.00    -0.00
=====================================================================

                 Bond                   Population      Length (A)
======================================================================
              H 19 -- H 20                   1.41        0.74142
              H 7  -- H 8                    1.41        0.74142
              H 13 -- H 14                   1.41        0.74142
              H 2  -- H 3                    1.41        0.74142
              H 4  -- H 5                    1.41        0.74142
              H 16 -- H 17                   1.41        0.74142
              H 22 -- H 23                   1.41        0.74142
              H 10 -- H 11                   1.41        0.74142
              H 6  -- H 12                   1.36        0.74479
              H 18 -- H 24                   1.36        0.74479
              H 1  -- H 21                   1.36        0.74479
              H 9  -- H 15                   1.36        0.74479
              H 14 -- H 15                  -0.06        1.52095
              H 8  -- H 9                   -0.06        1.52095
              H 20 -- H 21                  -0.06        1.52095
              H 1  -- H 2                   -0.06        1.52095
              H 11 -- H 12                  -0.06        1.52098
              H 17 -- H 18                  -0.06        1.52098
              H 5  -- H 6                   -0.06        1.52098
              H 23 -- H 24                  -0.06        1.52098
              H 11 -- H 13                  -0.12        1.58014
              H 5  -- H 7                   -0.12        1.58014
              H 3  -- H 23                  -0.12        1.58014
              H 17 -- H 19                  -0.12        1.58014
              H 10 -- H 14                  -0.12        1.58018
              H 4  -- H 8                   -0.12        1.58018
              H 16 -- H 20                  -0.12        1.58018
              H 2  -- H 22                  -0.12        1.58018
              H 22 -- H 24                  -0.09        1.63882
              H 16 -- H 18                  -0.09        1.63882
              H 4  -- H 6                   -0.09        1.63882
              H 10 -- H 12                  -0.09        1.63882
              H 1  -- H 3                   -0.09        1.63885
              H 19 -- H 21                  -0.09        1.63885
              H 7  -- H 9                   -0.09        1.63885
              H 13 -- H 15                  -0.09        1.63885
              H 2  -- H 20                  -0.04        1.66531
              H 8  -- H 14                  -0.04        1.66531
              H 17 -- H 23                  -0.04        1.66532
              H 5  -- H 11                  -0.04        1.66532
              H 9  -- H 10                  -0.01        1.71380
              H 4  -- H 15                  -0.01        1.71380
              H 1  -- H 16                  -0.01        1.71380
              H 21 -- H 22                  -0.01        1.71380
              H 6  -- H 13                  -0.01        1.71382
              H 7  -- H 12                  -0.01        1.71382
              H 3  -- H 18                  -0.01        1.71382
              H 19 -- H 24                  -0.01        1.71382
              H 18 -- H 23                  -0.14        1.74589
              H 5  -- H 12                  -0.14        1.74589
              H 6  -- H 11                  -0.14        1.74589
              H 17 -- H 24                  -0.14        1.74589
              H 2  -- H 21                  -0.14        1.74590
              H 8  -- H 15                  -0.14        1.74590
              H 1  -- H 20                  -0.14        1.74590
              H 9  -- H 14                  -0.14        1.74590
              H 10 -- H 13                  -0.18        1.78652
              H 4  -- H 7                   -0.18        1.78652
              H 16 -- H 19                  -0.18        1.78652
              H 3  -- H 22                  -0.18        1.78652
              H 10 -- H 19                  -0.02        1.80170
              H 13 -- H 16                  -0.02        1.80170
              H 3  -- H 4                   -0.02        1.80170
              H 7  -- H 22                  -0.02        1.80170
              H 3  -- H 24                  -0.07        1.80518
              H 18 -- H 19                  -0.07        1.80518
              H 6  -- H 7                   -0.07        1.80518
              H 12 -- H 13                  -0.07        1.80518
              H 1  -- H 22                  -0.07        1.80522
              H 16 -- H 21                  -0.07        1.80522
              H 10 -- H 15                  -0.07        1.80522
              H 4  -- H 9                   -0.07        1.80522
              H 8  -- H 24                  -0.11        1.82774
              H 14 -- H 18                  -0.11        1.82774
              H 2  -- H 6                   -0.11        1.82774
              H 12 -- H 20                  -0.11        1.82774
              H 1  -- H 5                   -0.11        1.82777
              H 11 -- H 21                  -0.11        1.82777
              H 9  -- H 23                  -0.11        1.82777
              H 15 -- H 17                  -0.11        1.82777
              H 15 -- H 23                  -0.11        1.92154
              H 9  -- H 17                  -0.11        1.92154
              H 1  -- H 11                  -0.11        1.92154
              H 5  -- H 21                  -0.11        1.92154
              H 2  -- H 12                  -0.11        1.92156
              H 6  -- H 20                  -0.11        1.92156
              H 8  -- H 18                  -0.11        1.92156
              H 14 -- H 24                  -0.11        1.92156
              H 10 -- H 17                  -0.15        1.92706
              H 4  -- H 23                  -0.15        1.92706
              H 11 -- H 16                  -0.15        1.92706
              H 5  -- H 22                  -0.15        1.92706
              H 13 -- H 20                  -0.15        1.92707
              H 2  -- H 7                   -0.15        1.92707
              H 3  -- H 8                   -0.15        1.92707
              H 14 -- H 19                  -0.15        1.92707
              H 12 -- H 21                  -0.08        1.94154
              H 15 -- H 18                  -0.08        1.94154
              H 9  -- H 24                  -0.08        1.94154
              H 1  -- H 6                   -0.08        1.94154
              H 13 -- H 19                  -0.17        1.94362
              H 3  -- H 7                   -0.17        1.94362
              H 4  -- H 22                  -0.17        1.94363
              H 10 -- H 16                  -0.17        1.94363
              H 14 -- H 16                  -0.09        2.10390
              H 8  -- H 22                  -0.09        2.10390
              H 10 -- H 20                  -0.09        2.10390
              H 2  -- H 4                   -0.09        2.10390
              H 3  -- H 5                   -0.09        2.10392
              H 11 -- H 19                  -0.09        2.10392
              H 13 -- H 17                  -0.09        2.10392
              H 7  -- H 23                  -0.09        2.10392
              H 7  -- H 24                  -0.15        2.14235
              H 13 -- H 18                  -0.15        2.14235
              H 3  -- H 6                   -0.15        2.14235
              H 12 -- H 19                  -0.15        2.14236
              H 1  -- H 4                   -0.15        2.14237
              H 10 -- H 21                  -0.15        2.14237
              H 9  -- H 22                  -0.15        2.14237
              H 15 -- H 16                  -0.15        2.14237
              H 11 -- H 17                  -0.14        2.17918
              H 5  -- H 23                  -0.14        2.17918
              H 14 -- H 20                  -0.14        2.17920
              H 2  -- H 8                   -0.14        2.17920
              H 7  -- H 15                  -0.16        2.21658
              H 9  -- H 13                  -0.16        2.21658
              H 1  -- H 19                  -0.16        2.21658
              H 3  -- H 21                  -0.16        2.21658
              H 6  -- H 10                  -0.16        2.21659
              H 4  -- H 12                  -0.16        2.21659
              H 18 -- H 22                  -0.16        2.21659
              H 16 -- H 24                  -0.16        2.21659
              H 18 -- H 20                  -0.09        2.23458
              H 2  -- H 24                  -0.09        2.23458
              H 6  -- H 8                   -0.09        2.23458
              H 12 -- H 14                  -0.09        2.23458
              H 1  -- H 23                  -0.09        2.23459
              H 17 -- H 21                  -0.09        2.23459
              H 5  -- H 9                   -0.09        2.23459
              H 11 -- H 15                  -0.09        2.23459
              H 11 -- H 14                  -0.14        2.27605
              H 5  -- H 8                   -0.14        2.27605
              H 17 -- H 20                  -0.14        2.27605
              H 2  -- H 23                  -0.14        2.27605
              H 14 -- H 17                  -0.13        2.28375
              H 11 -- H 20                  -0.13        2.28375
              H 2  -- H 5                   -0.13        2.28375
              H 8  -- H 23                  -0.13        2.28375
              H 5  -- H 15                  -0.05        2.33422
              H 9  -- H 11                  -0.05        2.33422
              H 1  -- H 17                  -0.05        2.33422
              H 21 -- H 23                  -0.05        2.33422
              H 6  -- H 14                  -0.05        2.33426
              H 8  -- H 12                  -0.05        2.33426
              H 20 -- H 24                  -0.05        2.33426
              H 2  -- H 18                  -0.05        2.33426
              H 16 -- H 23                  -0.04        2.34489
              H 17 -- H 22                  -0.04        2.34489
              H 4  -- H 11                  -0.04        2.34489
              H 5  -- H 10                  -0.04        2.34489
              H 2  -- H 19                  -0.04        2.34490
              H 3  -- H 20                  -0.04        2.34490
              H 7  -- H 14                  -0.04        2.34490
              H 8  -- H 13                  -0.04        2.34490
              H 15 -- H 22                  -0.13        2.39128
              H 9  -- H 16                  -0.13        2.39128
              H 4  -- H 21                  -0.13        2.39128
              H 1  -- H 10                  -0.13        2.39128
              H 3  -- H 12                  -0.13        2.39131
              H 6  -- H 19                  -0.13        2.39131
              H 7  -- H 18                  -0.13        2.39131
              H 13 -- H 24                  -0.13        2.39131
              H 15 -- H 24                  -0.09        2.41902
              H 6  -- H 21                  -0.09        2.41902
              H 9  -- H 18                  -0.09        2.41902
              H 1  -- H 12                  -0.09        2.41902
              H 3  -- H 15                   0.01        2.53025
              H 9  -- H 19                   0.01        2.53025
              H 7  -- H 21                   0.01        2.53025
              H 1  -- H 13                   0.01        2.53025
              H 6  -- H 16                   0.01        2.53029
              H 12 -- H 22                   0.01        2.53029
              H 10 -- H 24                   0.01        2.53029
              H 4  -- H 18                   0.01        2.53029
              H 8  -- H 10                  -0.01        2.73282
              H 4  -- H 14                  -0.01        2.73282
              H 2  -- H 16                  -0.01        2.73282
              H 20 -- H 22                  -0.01        2.73282
              H 5  -- H 13                  -0.01        2.73283
              H 7  -- H 11                  -0.01        2.73283
              H 19 -- H 23                  -0.01        2.73283
              H 3  -- H 17                  -0.01        2.73283
              H 10 -- H 18                  -0.01        2.79691
              H 4  -- H 24                  -0.01        2.79691
              H 6  -- H 22                  -0.01        2.79691
              H 12 -- H 16                  -0.01        2.79691
              H 1  -- H 7                   -0.01        2.79692
              H 13 -- H 21                  -0.01        2.79692
              H 3  -- H 9                   -0.01        2.79692
              H 15 -- H 19                  -0.01        2.79692
              H 14 -- H 23                  -0.00        2.92811
              H 8  -- H 17                  -0.00        2.92811
              H 2  -- H 11                  -0.00        2.92811
              H 5  -- H 20                  -0.00        2.92811
              H 2  -- H 13                   0.00        2.99342
              H 7  -- H 20                   0.00        2.99342
              H 8  -- H 19                   0.00        2.99342
              H 3  -- H 14                   0.00        2.99342
              H 10 -- H 23                   0.00        2.99345
              H 4  -- H 17                   0.00        2.99345
              H 5  -- H 16                   0.00        2.99345
              H 11 -- H 22                   0.00        2.99345
======================================================================


Writing analysis data to Cmca-12.castep_bin

Writing model to Cmca-12.check
 
 A BibTeX formatted list of references used in this run has been written to 
 Cmca-12.bib
 
Initialisation time =      5.46 s
Calculation time    =  11025.90 s
Finalisation time   =      9.38 s
Total time          =  11040.75 s
Peak Memory Use     = 735248 kB
  
Overall parallel efficiency rating: Excellent (98%)                             
  
Data was distributed by:-
k-point (16-way); efficiency rating: Excellent (98%)                            
