 +-------------------------------------------------+
 |                                                 |
 |      CCC   AA    SSS  TTTTT  EEEEE  PPPP        |
 |     C     A  A  S       T    E      P   P       |
 |     C     AAAA   SS     T    EEE    PPPP        |
 |     C     A  A     S    T    E      P           |
 |      CCC  A  A  SSS     T    EEEEE  P           |
 |                                                 |
 +-------------------------------------------------+
 |                                                 |
 | Welcome to Academic Release CASTEP version 18.1 |          
 | Ab Initio Total Energy Program                  |
 |                                                 |
 | Authors:                                        |
 | M. Segall, M. Probert, C. Pickard, P. Hasnip,   |
 | S. Clark, K. Refson, J. R. Yates, M. Payne      |
 |                                                 |
 | Contributors:                                   |
 | P. Lindan, P. Haynes, J. White, V. Milman,      |
 | N. Govind, M. Gibson, P. Tulip, V. Cocula,      |
 | B. Montanari, D. Quigley, M. Glover,            |
 | L. Bernasconi, A. Perlov, M. Plummer,           |
 | E. McNellis, J. Meyer, J. Gale, D. Jochym       |
 | J. Aarons, B. Walker, R. Gillen, D. Jones       |
 | T. Green, I. J. Bush, C. J. Armstrong,          |
 | E. J. Higgins, E. L. Brown, M. S. McFly,        |
 | J. Wilkins, B-C. Shih, P. J. P. Byrne           |
 |                                                 |
 | Copyright (c) 2000 - 2017                       |
 |                                                 |
 |     Distributed under the terms of an           |
 |     Agreement between the United Kingdom        |
 |     Car-Parrinello (UKCP) Consortium,           |
 |     Daresbury Laboratory and Accelrys, Inc.     |
 |                                                 |
 | Please cite                                     |
 |                                                 |
 |     "First principles methods using CASTEP"     |
 |                                                 |
 |         Zeitschrift fuer Kristallographie       |
 |           220(5-6) pp. 567-570 (2005)           |
 |                                                 |
 | S. J. Clark, M. D. Segall, C. J. Pickard,       |
 | P. J. Hasnip, M. J. Probert, K. Refson,         |
 | M. C. Payne                                     |
 |                                                 |
 |       in all publications arising from          |
 |              your use of CASTEP                 |
 |                                                 |
 +-------------------------------------------------+


 Compiled for linux_x86_64_gfortran4.8 on Thu, 19 Jul 2018 15:42:32 +0100
 from code version 70483bd0ad64+  Sun, 10 Dec 2017 12:18:29 +0000
 Compiler: GNU Fortran 4.8.5; Optimisation: fast
 MATHLIBS: Intel MKL(2018.0.0) (LAPACK version 3.7.0)
 FFT Lib : mkl
 Fundamental constants values: CODATA 2014

 Run started: Fri, 14 Aug 2020 00:02:11 +0100

 Atomic calculation performed for H: 1s1

 Converged in 41 iterations to an ae energy of -12.488 eV

   ============================================================                
   | Pseudopotential Report - Date of generation 14-08-2020   |                
   ------------------------------------------------------------                
   | Element: H Ionic charge:  1.00 Level of theory: PBE      |                
   | Atomic Solver: Koelling-Harmon                           |                
   |                                                          |                
   |               Reference Electronic Structure             |                
   |         Orbital         Occupation         Energy        |                
   |            1s              1.000           -0.239        |                
   |                                                          |                
   |                 Pseudopotential Definition               |                
   |        Beta     l      e      Rc     scheme   norm       |                
   |          1      0   -0.239   0.599     qc      0         |                
   |          2      0    0.250   0.599     qc      0         |                
   |         loc     1    0.000   0.599     pn      0         |                
   |                                                          |                
   | Augmentation charge Rinner = 0.421                       |                
   | No partial core correction                               |                
   ------------------------------------------------------------                
   | "1|0.6|13|15|17|10(qc=8)"                                |                
   ------------------------------------------------------------                
   |      Author: Chris J. Pickard, Cambridge University      |                
   ============================================================                

 Pseudo atomic calculation performed for H 1s1

 Converged in 24 iterations to a total energy of -12.4866 eV

 Calculation parallelised over 16 processes.
 Data is distributed by k-point(16-way)

 ************************************ Title ************************************
 

 ***************************** General Parameters ******************************
  
 output verbosity                               : normal  (1)
 write checkpoint data to                       : Cmca-12.check
 type of calculation                            : geometry optimization
 stress calculation                             : on
 density difference calculation                 : off
 electron localisation func (ELF) calculation   : off
 Hirshfeld analysis                             : off
 unlimited duration calculation
 timing information                             : on
 memory usage estimate                          : on
 write extra output files                       : on
 write final potential to formatted file        : off
 write final density to formatted file          : off
 write structure in CELL formatted file         : on
 write BibTeX reference list                    : on
 write OTFG pseudopotential files               : on
 write electrostatic potential file             : on
 write bands file                               : on
 checkpoint writing                             : both castep_bin and check files
  
 output         length unit                     : A
 output           mass unit                     : amu
 output           time unit                     : ps
 output         charge unit                     : e
 output           spin unit                     : hbar/2
 output         energy unit                     : eV
 output          force unit                     : eV/A
 output       velocity unit                     : A/ps
 output       pressure unit                     : GPa
 output     inv_length unit                     : 1/A
 output      frequency unit                     : cm-1
 output force constant unit                     : eV/A**2
 output         volume unit                     : A**3
 output   IR intensity unit                     : (D/A)**2/amu
 output         dipole unit                     : D
 output         efield unit                     : eV/A/e
 output        entropy unit                     : J/mol/K
  
 wavefunctions paging                           : none
 random number generator seed                   : randomised (212029)
 data distribution                              : optimal for this architecture
 optimization strategy                          : maximize speed(+++)

 *********************** Exchange-Correlation Parameters ***********************
  
 using functional                               : Perdew Burke Ernzerhof
 relativistic treatment                         : Koelling-Harmon
 DFT+D: Semi-empirical dispersion correction    : off

 ************************* Pseudopotential Parameters **************************
  
 pseudopotential representation                 : reciprocal space
 <beta|phi> representation                      : reciprocal space
 spin-orbit coupling                            : off

 **************************** Basis Set Parameters *****************************
  
 plane wave basis set cut-off                   :  1200.0000   eV
 size of standard grid                          :     2.0000
 size of   fine   gmax                          :    35.4943   1/A
 finite basis set correction                    : automatic
 number of sample energies                      :          3
           sample  spacing                      :     5.0000   eV

 **************************** Electronic Parameters ****************************
  
 number of  electrons                           :  24.00    
 net charge of system                           :  0.000    
 treating system as non-spin-polarized
 number of bands                                :         12

 ********************* Electronic Minimization Parameters **********************
  
 Method: Treating system as non-metallic,
         and number of  SD  steps               :          1
         and number of  CG  steps               :          4
  
 total energy / atom convergence tol.           : 0.1000E-10   eV
 eigen-energy convergence tolerance             : 0.2000E-10   eV
 max force / atom convergence tol.              : ignored
 convergence tolerance window                   :          3   cycles
 max. number of SCF cycles                      :        100
 periodic dipole correction                     : NONE

 ************************** Density Mixing Parameters **************************
  
 density-mixing scheme                          : Broyden
 max. length of mixing history                  :         20
 charge density mixing amplitude                : 0.8000    
 cut-off energy for mixing                      :  1200.       eV

 *********************** Population Analysis Parameters ************************
  
 Population analysis with cutoff                :  3.000       A
 Population analysis output                     : summary and pdos components

 ********************** Geometry Optimization Parameters ***********************
  
 optimization method                            : LBFGS
 max. no. of LBFGS updates                      : unbounded
 variable cell method                           : fixed basis quality
 max. number of steps                           :        200
 estimated bulk modulus                         :  500.0       GPa
 estimated <frequency>                          :  1668.       cm-1
 geom line minimiser                            : on
 with line minimiser tolerance                  :     0.4000
 total energy convergence tolerance             : 0.1000E-08   eV/atom
        max ionic |force| tolerance             : 0.1000E-04   eV/A
 max ionic |displacement| tolerance             : 0.1000E-04   A
   max |stress component| tolerance             : 0.1000E-04   GPa
 convergence tolerance window                   :          2   steps
 backup results every                           :      14400   seconds
 write geom trajectory file                     : on

 *******************************************************************************
  

                           -------------------------------
                                      Unit Cell
                           -------------------------------
        Real Lattice(A)                      Reciprocal Lattice(1/A)
     2.6925365    -0.0000000     0.0000000        2.333556206   0.000000000  -0.000000000
    -0.0000000     4.9917313    -0.0000000        0.000000000   1.258718650   0.000000001
     0.0000000    -0.0000000     3.0031237       -0.000000000   0.000000002   2.092216617

                       Lattice parameters(A)       Cell Angles
                    a =      2.692537          alpha =   90.000000
                    b =      4.991731          beta  =   90.000000
                    c =      3.003124          gamma =   90.000000

                       Current cell volume =            40.363240       A**3
                                   density =             0.599322   AMU/A**3
                                           =             0.995197     g/cm^3

                           -------------------------------
                                     Cell Contents
                           -------------------------------
                         Total number of ions in cell =   24
                      Total number of species in cell =    1
                        Max number of any one species =   24

            xxxxxxxxxxxxxxxxxxxxxxxxxxxxxxxxxxxxxxxxxxxxxxxxxxxxxxxxxxxx
            x  Element    Atom        Fractional coordinates of atoms  x
            x            Number           u          v          w      x
            x----------------------------------------------------------x
            x  H            1        -0.000000   0.001371   0.127831   x 
            x  H            2         0.000000   0.132677   0.454991   x 
            x  H            3        -0.000000   0.260494   0.321085   x 
            x  H            4         0.500000   0.260494   0.178915   x 
            x  H            5         0.500000   0.132677   0.045009   x 
            x  H            6         0.500000   0.001371   0.372169   x 
            x  H            7         0.500000   0.239506   0.678915   x 
            x  H            8         0.500000   0.367323   0.545009   x 
            x  H            9         0.500000   0.498629   0.872169   x 
            x  H           10         0.500000   0.739506   0.821085   x 
            x  H           11         0.500000   0.867323   0.954991   x 
            x  H           12         0.500000   0.998629   0.627831   x 
            x  H           13         0.500000   0.760494   0.321085   x 
            x  H           14         0.500000   0.632677   0.454991   x 
            x  H           15         0.500000   0.501371   0.127831   x 
            x  H           16        -0.000000   0.760494   0.178915   x 
            x  H           17        -0.000000   0.632677   0.045009   x 
            x  H           18         0.000000   0.501371   0.372169   x 
            x  H           19         0.000000   0.739506   0.678915   x 
            x  H           20         0.000000   0.867323   0.545009   x 
            x  H           21         0.000000   0.998629   0.872169   x 
            x  H           22        -0.000000   0.239506   0.821085   x 
            x  H           23         0.000000   0.367323   0.954991   x 
            x  H           24         0.000000   0.498629   0.627831   x 
            xxxxxxxxxxxxxxxxxxxxxxxxxxxxxxxxxxxxxxxxxxxxxxxxxxxxxxxxxxxx


                         No user defined ionic velocities

                           -------------------------------
                                   Details of Species
                           -------------------------------

                               Mass of species in AMU
                                    H    1.0078250

                          Electric Quadrupole Moment (Barn)
                                    H    0.0028600 Isotope  2

                          Files used for pseudopotentials:
                                    H 1|0.6|13|15|17|10(qc=8)

                           -------------------------------
                              k-Points For BZ Sampling
                           -------------------------------
                       MP grid size for SCF calculation is 10 10 10
                            with an offset of   0.000  0.000  0.000
                       Number of kpoints used =           500

                           -------------------------------
                               Symmetry and Constraints
                           -------------------------------

                      Cell is a supercell containing 2 primitive cells
                      Maximum deviation from symmetry =  0.00000         ANG

                      Number of symmetry operations   =           1
                      Number of ionic constraints     =           3
                      Point group of crystal =     1: C1, 1, 1
                      Space group of crystal =    64: Cmce, -C 2bc 2

             Set iprint > 1 for details on symmetry rotations/translations

                         Centre of mass is constrained
             Set iprint > 1 for details of linear ionic constraints

                         Number of cell constraints= 0
                         Cell constraints are:  1 2 3 4 5 6

                         External pressure/stress (GPa)
                        180.00000   0.00000   0.00000
                                  180.00000   0.00000
                                            180.00000
  
+---------------- MEMORY AND SCRATCH DISK ESTIMATES PER PROCESS --------------+
|                                                     Memory          Disk    |
| Baseline code, static data and system overhead      411.0 MB         0.0 MB |
| BLAS internal memory storage                          0.0 MB         0.0 MB |
| Model and support data                               73.7 MB         0.0 MB |
| Electronic energy minimisation requirements          63.4 MB         0.0 MB |
| Force calculation requirements                        7.9 MB         0.0 MB |
| Stress calculation requirements                      10.0 MB         0.0 MB |
|                                               ----------------------------- |
| Approx. total storage required per process          548.1 MB         0.0 MB |
|                                                                             |
| Requirements will fluctuate during execution and may exceed these estimates |
+-----------------------------------------------------------------------------+
Calculating finite basis set correction with  3 cut-off energies.
Calculating total energy with cut-off of 1190.000 eV.
------------------------------------------------------------------------ <-- SCF
SCF loop      Energy                           Energy gain       Timer   <-- SCF
                                               per atom          (sec)   <-- SCF
------------------------------------------------------------------------ <-- SCF
Initial   5.64541175E+002                                          7.99  <-- SCF
      1  -2.93997674E+002                    3.57724520E+001      25.13  <-- SCF
      2  -3.50028048E+002                    2.33459890E+000      39.54  <-- SCF
      3  -3.49747177E+002                   -1.17029497E-002      56.20  <-- SCF
      4  -3.49726258E+002                   -8.71616140E-004      72.35  <-- SCF
      5  -3.49726699E+002                    1.83942254E-005      89.65  <-- SCF
      6  -3.49726735E+002                    1.47417807E-006     105.37  <-- SCF
      7  -3.49726735E+002                    2.31131648E-009     122.87  <-- SCF
      8  -3.49726735E+002                    2.44928274E-010     137.03  <-- SCF
      9  -3.49726735E+002                    5.74607653E-012     147.94  <-- SCF
     10  -3.49726735E+002                    2.61826130E-014     160.20  <-- SCF
------------------------------------------------------------------------ <-- SCF
 
Final energy =  -349.7267348532     eV
(energy not corrected for finite basis set)
 
Calculating total energy with cut-off of 1195.000 eV.
------------------------------------------------------------------------ <-- SCF
SCF loop      Energy                           Energy gain       Timer   <-- SCF
                                               per atom          (sec)   <-- SCF
------------------------------------------------------------------------ <-- SCF
Initial  -3.49726735E+002                                        165.47  <-- SCF
      1  -3.49726775E+002                    1.69084745E-006     180.05  <-- SCF
      2  -3.49726775E+002                    1.13592259E-012     191.29  <-- SCF
      3  -3.49726775E+002                    4.97969131E-010     202.81  <-- SCF
      4  -3.49726775E+002                    9.87285914E-012     214.03  <-- SCF
      5  -3.49726775E+002                   -1.61123772E-014     224.84  <-- SCF
------------------------------------------------------------------------ <-- SCF
 
Final energy =  -349.7267754458     eV
(energy not corrected for finite basis set)
 
Calculating total energy with cut-off of 1200.000 eV.
------------------------------------------------------------------------ <-- SCF
SCF loop      Energy                           Energy gain       Timer   <-- SCF
                                               per atom          (sec)   <-- SCF
------------------------------------------------------------------------ <-- SCF
Initial  -3.49726775E+002                                        229.38  <-- SCF
      1  -3.49726816E+002                    1.69442246E-006     244.33  <-- SCF
      2  -3.49726816E+002                    1.19835806E-012     255.95  <-- SCF
      3  -3.49726816E+002                    4.91101230E-010     267.10  <-- SCF
      4  -3.49726816E+002                    9.53651327E-012     277.99  <-- SCF
      5  -3.49726816E+002                   -1.53067584E-013     291.80  <-- SCF
------------------------------------------------------------------------ <-- SCF
 
Final energy =  -349.7268161239     eV
(energy not corrected for finite basis set)
 
 For future reference: finite basis dEtot/dlog(Ecut) =      -0.009668eV
 Total energy corrected for finite basis set =    -349.726816 eV
 
+---------------- MEMORY AND SCRATCH DISK ESTIMATES PER PROCESS --------------+
|                                                     Memory          Disk    |
| Model and support data                               81.5 MB         0.0 MB |
| Electronic energy minimisation requirements          63.4 MB         0.0 MB |
| Geometry minimisation requirements                   87.9 MB         0.0 MB |
|                                               ----------------------------- |
| Approx. total storage required per process          232.8 MB         0.0 MB |
|                                                                             |
| Requirements will fluctuate during execution and may exceed these estimates |
+-----------------------------------------------------------------------------+
 

 ************************************** Forces **************************************
 *                                                                                  *
 *                           Cartesian components (eV/A)                            *
 * -------------------------------------------------------------------------------- *
 *                         x                    y                    z              *
 *                                                                                  *
 * H               1      0.00000              0.00000             -0.00000         *
 * H               2     -0.00000              0.00000             -0.00000         *
 * H               3      0.00000             -0.00000              0.00000         *
 * H               4     -0.00000              0.00000              0.00000         *
 * H               5      0.00000             -0.00000             -0.00000         *
 * H               6      0.00000              0.00000             -0.00000         *
 * H               7     -0.00000              0.00000             -0.00000         *
 * H               8      0.00000             -0.00000              0.00000         *
 * H               9     -0.00000             -0.00000              0.00000         *
 * H              10      0.00000             -0.00000              0.00000         *
 * H              11     -0.00000              0.00000             -0.00000         *
 * H              12     -0.00000             -0.00000             -0.00000         *
 * H              13     -0.00000              0.00000             -0.00000         *
 * H              14      0.00000             -0.00000              0.00000         *
 * H              15     -0.00000              0.00000             -0.00000         *
 * H              16      0.00000             -0.00000             -0.00000         *
 * H              17      0.00000              0.00000              0.00000         *
 * H              18     -0.00000              0.00000             -0.00000         *
 * H              19      0.00000              0.00000              0.00000         *
 * H              20     -0.00000             -0.00000              0.00000         *
 * H              21     -0.00000             -0.00000              0.00000         *
 * H              22      0.00000              0.00000              0.00000         *
 * H              23     -0.00000             -0.00000             -0.00000         *
 * H              24      0.00000              0.00000              0.00000         *
 *                                                                                  *
 ************************************************************************************

 ***************** Stress Tensor *****************
 *                                               *
 *          Cartesian components (GPa)           *
 * --------------------------------------------- *
 *             x             y             z     *
 *                                               *
 *  x   -209.997782      0.000000     -0.000000  *
 *  y      0.000000   -209.997782     -0.000001  *
 *  z     -0.000000     -0.000001   -209.997781  *
 *                                               *
 *  Pressure:  209.9978                          *
 *                                               *
 *************************************************
 LBFGS: finished iteration     0 with enthalpy= -3.04379860E+002 eV
  
 +-----------+-----------------+-----------------+------------+-----+ <-- LBFGS
 | Parameter |      value      |    tolerance    |    units   | OK? | <-- LBFGS
 +-----------+-----------------+-----------------+------------+-----+ <-- LBFGS
 |  dE/ion   |   0.000000E+000 |   1.000000E-009 |         eV | No  | <-- LBFGS
 |  |F|max   |   5.501926E-007 |   1.000000E-005 |       eV/A | Yes | <-- LBFGS
 |  |dR|max  |   0.000000E+000 |   1.000000E-005 |          A | No  | <-- LBFGS
 |   Smax    |   2.999778E+001 |   1.000000E-005 |        GPa | No  | <-- LBFGS
 +-----------+-----------------+-----------------+------------+-----+ <-- LBFGS
  

================================================================================
 Starting LBFGS iteration          1 ...
================================================================================
  
 +------------+-------------+-------------+-----------------+ <-- min LBFGS
 |    Step    |   lambda    |   F.delta'  |    enthalpy     | <-- min LBFGS
 +------------+-------------+-------------+-----------------+ <-- min LBFGS
 |  previous  |    0.000000 |    0.481033 |     -304.379860 | <-- min LBFGS
 +------------+-------------+-------------+-----------------+ <-- min LBFGS
  

--------------------------------------------------------------------------------
 LBFGS: starting iteration         1 with trial guess (lambda=  1.000000)
--------------------------------------------------------------------------------
 
+---------------- MEMORY AND SCRATCH DISK ESTIMATES PER PROCESS --------------+
|                                                     Memory          Disk    |
| Model and support data                               83.9 MB         0.0 MB |
| Electronic energy minimisation requirements          66.6 MB         0.0 MB |
| Geometry minimisation requirements                   92.4 MB         0.0 MB |
|                                               ----------------------------- |
| Approx. total storage required per process          242.9 MB         0.0 MB |
|                                                                             |
| Requirements will fluctuate during execution and may exceed these estimates |
+-----------------------------------------------------------------------------+
 

                           -------------------------------
                                      Unit Cell
                           -------------------------------
        Real Lattice(A)              Reciprocal Lattice(1/A)
     2.7463833    -0.0000000     0.0000000        2.287803518   0.000000000  -0.000000000
    -0.0000000     5.0915586    -0.0000000        0.000000000   1.234039681   0.000000001
     0.0000000    -0.0000000     3.0631817       -0.000000000   0.000000001   2.051195736

                       Lattice parameters(A)       Cell Angles
                    a =      2.746383          alpha =   90.000000
                    b =      5.091559          beta  =   90.000000
                    c =      3.063182          gamma =   90.000000

                Current cell volume =            42.833607 A**3

                           -------------------------------
                                     Cell Contents
                           -------------------------------

            xxxxxxxxxxxxxxxxxxxxxxxxxxxxxxxxxxxxxxxxxxxxxxxxxxxxxxxxxxxxxxxxx
            x  Element         Atom        Fractional coordinates of atoms  x
            x                 Number           u          v          w      x
            x---------------------------------------------------------------x
            x  H                 1         0.000000   0.001371   0.127831   x
            x  H                 2         0.000000   0.132677   0.454991   x
            x  H                 3        -0.000000   0.260494   0.321085   x
            x  H                 4         0.500000   0.260494   0.178915   x
            x  H                 5         0.500000   0.132677   0.045009   x
            x  H                 6         0.500000   0.001371   0.372169   x
            x  H                 7         0.500000   0.239506   0.678915   x
            x  H                 8         0.500000   0.367323   0.545009   x
            x  H                 9         0.500000   0.498629   0.872169   x
            x  H                10         0.500000   0.739506   0.821085   x
            x  H                11         0.500000   0.867323   0.954991   x
            x  H                12         0.500000   0.998629   0.627831   x
            x  H                13         0.500000   0.760494   0.321085   x
            x  H                14         0.500000   0.632677   0.454991   x
            x  H                15         0.500000   0.501371   0.127831   x
            x  H                16         0.000000   0.760494   0.178915   x
            x  H                17         0.000000   0.632677   0.045009   x
            x  H                18        -0.000000   0.501371   0.372169   x
            x  H                19         0.000000   0.739506   0.678915   x
            x  H                20        -0.000000   0.867323   0.545009   x
            x  H                21        -0.000000   0.998629   0.872169   x
            x  H                22        -0.000000   0.239506   0.821085   x
            x  H                23        -0.000000   0.367323   0.954991   x
            x  H                24         0.000000   0.498629   0.627831   x
            xxxxxxxxxxxxxxxxxxxxxxxxxxxxxxxxxxxxxxxxxxxxxxxxxxxxxxxxxxxxxxxxx


------------------------------------------------------------------------ <-- SCF
SCF loop      Energy                           Energy gain       Timer   <-- SCF
                                               per atom          (sec)   <-- SCF
------------------------------------------------------------------------ <-- SCF
Initial  -3.52631615E+002                                        325.86  <-- SCF
      1  -3.52702910E+002                    2.97062735E-003     339.66  <-- SCF
      2  -3.52703103E+002                    8.02102111E-006     355.32  <-- SCF
      3  -3.52702305E+002                   -3.32269584E-005     371.93  <-- SCF
      4  -3.52702304E+002                   -5.88032546E-008     387.65  <-- SCF
      5  -3.52702305E+002                    2.92871881E-008     403.20  <-- SCF
      6  -3.52702305E+002                    2.81967004E-009     418.66  <-- SCF
      7  -3.52702305E+002                    1.63983719E-011     429.59  <-- SCF
      8  -3.52702305E+002                    8.88194795E-013     441.34  <-- SCF
      9  -3.52702305E+002                    2.41685658E-014     453.39  <-- SCF
------------------------------------------------------------------------ <-- SCF
 
Final energy =  -352.7023046783     eV
(energy not corrected for finite basis set)
 

 ************************************** Forces **************************************
 *                                                                                  *
 *                           Cartesian components (eV/A)                            *
 * -------------------------------------------------------------------------------- *
 *                         x                    y                    z              *
 *                                                                                  *
 * H               1     -0.00000             -0.00053             -0.32054         *
 * H               2     -0.00000              0.28793             -0.19138         *
 * H               3      0.00000             -0.28027              0.17223         *
 * H               4      0.00000             -0.28027             -0.17223         *
 * H               5     -0.00000              0.28794              0.19138         *
 * H               6      0.00000             -0.00053              0.32054         *
 * H               7     -0.00000              0.28027             -0.17223         *
 * H               8     -0.00000             -0.28793              0.19138         *
 * H               9      0.00000              0.00053              0.32054         *
 * H              10     -0.00000              0.28027              0.17223         *
 * H              11      0.00000             -0.28793             -0.19138         *
 * H              12     -0.00000              0.00053             -0.32054         *
 * H              13      0.00000             -0.28027              0.17223         *
 * H              14     -0.00000              0.28794             -0.19138         *
 * H              15      0.00000             -0.00053             -0.32054         *
 * H              16     -0.00000             -0.28027             -0.17223         *
 * H              17      0.00000              0.28793              0.19138         *
 * H              18      0.00000             -0.00053              0.32054         *
 * H              19      0.00000              0.28027             -0.17223         *
 * H              20      0.00000             -0.28793              0.19138         *
 * H              21      0.00000              0.00053              0.32054         *
 * H              22      0.00000              0.28027              0.17223         *
 * H              23     -0.00000             -0.28793             -0.19138         *
 * H              24     -0.00000              0.00053             -0.32054         *
 *                                                                                  *
 ************************************************************************************

 ***************** Stress Tensor *****************
 *                                               *
 *          Cartesian components (GPa)           *
 * --------------------------------------------- *
 *             x             y             z     *
 *                                               *
 *  x   -182.186966     -0.000000      0.000000  *
 *  y     -0.000000   -174.779582      0.000001  *
 *  z      0.000000      0.000001   -174.105723  *
 *                                               *
 *  Pressure:  177.0241                          *
 *                                               *
 *************************************************
  
 +------------+-------------+-------------+-----------------+ <-- min LBFGS
 |    Step    |   lambda    |   F.delta'  |    enthalpy     | <-- min LBFGS
 +------------+-------------+-------------+-----------------+ <-- min LBFGS
 |  previous  |    0.000000 |    0.481033 |     -304.379860 | <-- min LBFGS
 | trial step |    1.000000 |   -0.049648 |     -304.579962 | <-- min LBFGS
 +------------+-------------+-------------+-----------------+ <-- min LBFGS
  
 LBFGS: finished iteration     1 with enthalpy= -3.04579962E+002 eV
  
 +-----------+-----------------+-----------------+------------+-----+ <-- LBFGS
 | Parameter |      value      |    tolerance    |    units   | OK? | <-- LBFGS
 +-----------+-----------------+-----------------+------------+-----+ <-- LBFGS
 |  dE/ion   |   8.337582E-003 |   1.000000E-009 |         eV | No  | <-- LBFGS
 |  |F|max   |   3.457360E-001 |   1.000000E-005 |       eV/A | No  | <-- LBFGS
 |  |dR|max  |   5.443656E-008 |   1.000000E-005 |          A | Yes | <-- LBFGS
 |   Smax    |   5.894277E+000 |   1.000000E-005 |        GPa | No  | <-- LBFGS
 +-----------+-----------------+-----------------+------------+-----+ <-- LBFGS
  

================================================================================
 Starting LBFGS iteration          2 ...
================================================================================
  
 +------------+-------------+-------------+-----------------+ <-- min LBFGS
 |    Step    |   lambda    |   F.delta'  |    enthalpy     | <-- min LBFGS
 +------------+-------------+-------------+-----------------+ <-- min LBFGS
 |  previous  |    0.000000 |    0.197044 |     -304.579962 | <-- min LBFGS
 +------------+-------------+-------------+-----------------+ <-- min LBFGS
  

--------------------------------------------------------------------------------
 LBFGS: starting iteration         2 with trial guess (lambda=  1.000000)
--------------------------------------------------------------------------------
 
+---------------- MEMORY AND SCRATCH DISK ESTIMATES PER PROCESS --------------+
|                                                     Memory          Disk    |
| Model and support data                               85.1 MB         0.0 MB |
| Electronic energy minimisation requirements          68.1 MB         0.0 MB |
| Geometry minimisation requirements                   94.4 MB         0.0 MB |
|                                               ----------------------------- |
| Approx. total storage required per process          247.6 MB         0.0 MB |
|                                                                             |
| Requirements will fluctuate during execution and may exceed these estimates |
+-----------------------------------------------------------------------------+
 

                           -------------------------------
                                      Unit Cell
                           -------------------------------
        Real Lattice(A)              Reciprocal Lattice(1/A)
     2.7768351    -0.0000000     0.0000000        2.262714615   0.000000000  -0.000000000
    -0.0000000     5.1247667    -0.0000000        0.000000000   1.226043189   0.000000001
     0.0000000    -0.0000000     3.0818881       -0.000000000   0.000000002   2.038745445

                       Lattice parameters(A)       Cell Angles
                    a =      2.776835          alpha =   90.000000
                    b =      5.124767          beta  =   90.000000
                    c =      3.081888          gamma =   90.000000

                Current cell volume =            43.857215 A**3

                           -------------------------------
                                     Cell Contents
                           -------------------------------

            xxxxxxxxxxxxxxxxxxxxxxxxxxxxxxxxxxxxxxxxxxxxxxxxxxxxxxxxxxxxxxxxx
            x  Element         Atom        Fractional coordinates of atoms  x
            x                 Number           u          v          w      x
            x---------------------------------------------------------------x
            x  H                 1         0.000000   0.001361   0.118259   x
            x  H                 2        -0.000000   0.137850   0.449276   x
            x  H                 3         0.000000   0.255459   0.326228   x
            x  H                 4         0.500000   0.255459   0.173772   x
            x  H                 5         0.500000   0.137851   0.050724   x
            x  H                 6         0.500000   0.001361   0.381741   x
            x  H                 7         0.500000   0.244541   0.673772   x
            x  H                 8         0.500000   0.362150   0.550724   x
            x  H                 9         0.500000   0.498639   0.881741   x
            x  H                10         0.500000   0.744541   0.826228   x
            x  H                11         0.500000   0.862149   0.949276   x
            x  H                12         0.500000   0.998639   0.618259   x
            x  H                13         0.500000   0.755459   0.326228   x
            x  H                14         0.500000   0.637851   0.449276   x
            x  H                15         0.500000   0.501361   0.118259   x
            x  H                16        -0.000000   0.755459   0.173772   x
            x  H                17         0.000000   0.637851   0.050724   x
            x  H                18         0.000000   0.501361   0.381741   x
            x  H                19         0.000000   0.744541   0.673772   x
            x  H                20        -0.000000   0.862149   0.550724   x
            x  H                21        -0.000000   0.998639   0.881741   x
            x  H                22         0.000000   0.244541   0.826228   x
            x  H                23        -0.000000   0.362149   0.949276   x
            x  H                24        -0.000000   0.498639   0.618259   x
            xxxxxxxxxxxxxxxxxxxxxxxxxxxxxxxxxxxxxxxxxxxxxxxxxxxxxxxxxxxxxxxxx


------------------------------------------------------------------------ <-- SCF
SCF loop      Energy                           Energy gain       Timer   <-- SCF
                                               per atom          (sec)   <-- SCF
------------------------------------------------------------------------ <-- SCF
Initial  -3.51591352E+002                                        489.95  <-- SCF
      1  -3.53897647E+002                    9.60956136E-002     505.25  <-- SCF
      2  -3.53907409E+002                    4.06765179E-004     521.84  <-- SCF
      3  -3.53613883E+002                   -1.22302498E-002     540.05  <-- SCF
      4  -3.53604479E+002                   -3.91851706E-004     556.35  <-- SCF
      5  -3.53604474E+002                   -2.12194355E-007     574.44  <-- SCF
      6  -3.53604475E+002                    3.71066980E-008     591.38  <-- SCF
      7  -3.53604475E+002                    1.20556029E-009     608.57  <-- SCF
      8  -3.53604475E+002                    1.11342569E-010     621.12  <-- SCF
      9  -3.53604475E+002                    8.74096464E-013     632.70  <-- SCF
     10  -3.53604475E+002                    2.59812083E-013     644.49  <-- SCF
------------------------------------------------------------------------ <-- SCF
 
Final energy =  -353.6044747786     eV
(energy not corrected for finite basis set)
 

 ************************************** Forces **************************************
 *                                                                                  *
 *                           Cartesian components (eV/A)                            *
 * -------------------------------------------------------------------------------- *
 *                         x                    y                    z              *
 *                                                                                  *
 * H               1     -0.00000             -0.01180              0.88554         *
 * H               2     -0.00000             -1.13601              0.70678         *
 * H               3      0.00000              0.93178             -0.57619         *
 * H               4      0.00000              0.93179              0.57620         *
 * H               5      0.00000             -1.13602             -0.70678         *
 * H               6      0.00000             -0.01180             -0.88554         *
 * H               7     -0.00000             -0.93178              0.57619         *
 * H               8      0.00000              1.13601             -0.70678         *
 * H               9     -0.00000              0.01180             -0.88554         *
 * H              10      0.00000             -0.93179             -0.57619         *
 * H              11     -0.00000              1.13602              0.70678         *
 * H              12     -0.00000              0.01180              0.88554         *
 * H              13     -0.00000              0.93180             -0.57620         *
 * H              14      0.00000             -1.13603              0.70679         *
 * H              15      0.00000             -0.01180              0.88554         *
 * H              16      0.00000              0.93179              0.57619         *
 * H              17     -0.00000             -1.13602             -0.70678         *
 * H              18     -0.00000             -0.01180             -0.88555         *
 * H              19      0.00000             -0.93179              0.57619         *
 * H              20      0.00000              1.13602             -0.70678         *
 * H              21     -0.00000              0.01180             -0.88554         *
 * H              22      0.00000             -0.93179             -0.57619         *
 * H              23     -0.00000              1.13602              0.70678         *
 * H              24      0.00000              0.01180              0.88555         *
 *                                                                                  *
 ************************************************************************************

 ***************** Stress Tensor *****************
 *                                               *
 *          Cartesian components (GPa)           *
 * --------------------------------------------- *
 *             x             y             z     *
 *                                               *
 *  x   -167.806129     -0.000000     -0.000000  *
 *  y     -0.000000   -191.660471     -0.000006  *
 *  z     -0.000000     -0.000006   -188.737637  *
 *                                               *
 *  Pressure:  182.7347                          *
 *                                               *
 *************************************************
  
 +------------+-------------+-------------+-----------------+ <-- min LBFGS
 |    Step    |   lambda    |   F.delta'  |    enthalpy     | <-- min LBFGS
 +------------+-------------+-------------+-----------------+ <-- min LBFGS
 |  previous  |    0.000000 |    0.197044 |     -304.579962 | <-- min LBFGS
 | trial step |    1.000000 |   -0.700554 |     -304.332138 | <-- min LBFGS
 +------------+-------------+-------------+-----------------+ <-- min LBFGS
  

--------------------------------------------------------------------------------
 LBFGS: improving iteration         2 with line minimization (lambda=  0.219524)
--------------------------------------------------------------------------------

                           -------------------------------
                                      Unit Cell
                           -------------------------------
        Real Lattice(A)              Reciprocal Lattice(1/A)
     2.7530682    -0.0000000     0.0000000        2.282248356   0.000000000  -0.000000000
    -0.0000000     5.0988485    -0.0000000        0.000000000   1.232275337   0.000000001
     0.0000000    -0.0000000     3.0672882       -0.000000000   0.000000001   2.048449590

                       Lattice parameters(A)       Cell Angles
                    a =      2.753068          alpha =   90.000000
                    b =      5.098849          beta  =   90.000000
                    c =      3.067288          gamma =   90.000000

                Current cell volume =            43.056990 A**3

                           -------------------------------
                                     Cell Contents
                           -------------------------------

            xxxxxxxxxxxxxxxxxxxxxxxxxxxxxxxxxxxxxxxxxxxxxxxxxxxxxxxxxxxxxxxxx
            x  Element         Atom        Fractional coordinates of atoms  x
            x                 Number           u          v          w      x
            x---------------------------------------------------------------x
            x  H                 1         0.000000   0.001369   0.125730   x
            x  H                 2        -0.000000   0.133813   0.453737   x
            x  H                 3         0.000000   0.259389   0.322214   x
            x  H                 4         0.500000   0.259389   0.177786   x
            x  H                 5         0.500000   0.133813   0.046263   x
            x  H                 6         0.500000   0.001369   0.374270   x
            x  H                 7         0.500000   0.240611   0.677786   x
            x  H                 8         0.500000   0.366187   0.546263   x
            x  H                 9         0.500000   0.498631   0.874270   x
            x  H                10         0.500000   0.740611   0.822214   x
            x  H                11         0.500000   0.866187   0.953737   x
            x  H                12         0.500000   0.998631   0.625730   x
            x  H                13         0.500000   0.759389   0.322214   x
            x  H                14         0.500000   0.633813   0.453737   x
            x  H                15         0.500000   0.501369   0.125730   x
            x  H                16        -0.000000   0.759389   0.177786   x
            x  H                17         0.000000   0.633813   0.046263   x
            x  H                18         0.000000   0.501369   0.374270   x
            x  H                19         0.000000   0.740611   0.677786   x
            x  H                20        -0.000000   0.866187   0.546263   x
            x  H                21        -0.000000   0.998631   0.874270   x
            x  H                22        -0.000000   0.240611   0.822214   x
            x  H                23        -0.000000   0.366187   0.953737   x
            x  H                24        -0.000000   0.498631   0.625730   x
            xxxxxxxxxxxxxxxxxxxxxxxxxxxxxxxxxxxxxxxxxxxxxxxxxxxxxxxxxxxxxxxxx


------------------------------------------------------------------------ <-- SCF
SCF loop      Energy                           Energy gain       Timer   <-- SCF
                                               per atom          (sec)   <-- SCF
------------------------------------------------------------------------ <-- SCF
Initial  -3.51718279E+002                                        680.34  <-- SCF
      1  -3.53165788E+002                    6.03128409E-002     697.80  <-- SCF
      2  -3.53172011E+002                    2.59324601E-004     714.65  <-- SCF
      3  -3.52989173E+002                   -7.61826725E-003     732.00  <-- SCF
      4  -3.52983818E+002                   -2.23122286E-004     748.81  <-- SCF
      5  -3.52983810E+002                   -3.46120710E-007     766.14  <-- SCF
      6  -3.52983810E+002                    1.39420783E-008     784.18  <-- SCF
      7  -3.52983810E+002                    6.80536463E-010     801.96  <-- SCF
      8  -3.52983810E+002                    3.70181867E-011     814.18  <-- SCF
      9  -3.52983810E+002                    2.01404715E-014     826.24  <-- SCF
     10  -3.52983810E+002                    2.17517093E-013     837.48  <-- SCF
------------------------------------------------------------------------ <-- SCF
 
Final energy =  -352.9838100060     eV
(energy not corrected for finite basis set)
 

 ************************************** Forces **************************************
 *                                                                                  *
 *                           Cartesian components (eV/A)                            *
 * -------------------------------------------------------------------------------- *
 *                         x                    y                    z              *
 *                                                                                  *
 * H               1     -0.00000             -0.00483             -0.11142         *
 * H               2      0.00000              0.02997             -0.03075         *
 * H               3     -0.00000             -0.07231              0.04358         *
 * H               4      0.00000             -0.07231             -0.04358         *
 * H               5     -0.00000              0.02997              0.03075         *
 * H               6      0.00000             -0.00483              0.11142         *
 * H               7     -0.00000              0.07231             -0.04358         *
 * H               8     -0.00000             -0.02997              0.03075         *
 * H               9      0.00000              0.00483              0.11142         *
 * H              10     -0.00000              0.07231              0.04358         *
 * H              11      0.00000             -0.02997             -0.03075         *
 * H              12     -0.00000              0.00483             -0.11142         *
 * H              13      0.00000             -0.07231              0.04358         *
 * H              14     -0.00000              0.02997             -0.03075         *
 * H              15      0.00000             -0.00483             -0.11142         *
 * H              16     -0.00000             -0.07231             -0.04358         *
 * H              17     -0.00000              0.02997              0.03075         *
 * H              18     -0.00000             -0.00483              0.11142         *
 * H              19     -0.00000              0.07231             -0.04358         *
 * H              20      0.00000             -0.02997              0.03075         *
 * H              21      0.00000              0.00483              0.11142         *
 * H              22     -0.00000              0.07231              0.04358         *
 * H              23      0.00000             -0.02997             -0.03075         *
 * H              24      0.00000              0.00483             -0.11142         *
 *                                                                                  *
 ************************************************************************************

 ***************** Stress Tensor *****************
 *                                               *
 *          Cartesian components (GPa)           *
 * --------------------------------------------- *
 *             x             y             z     *
 *                                               *
 *  x   -178.999345     -0.000000      0.000000  *
 *  y     -0.000000   -177.824017     -0.000000  *
 *  z      0.000000     -0.000000   -176.698500  *
 *                                               *
 *  Pressure:  177.8406                          *
 *                                               *
 *************************************************
  
 +------------+-------------+-------------+-----------------+ <-- min LBFGS
 |    Step    |   lambda    |   F.delta'  |    enthalpy     | <-- min LBFGS
 +------------+-------------+-------------+-----------------+ <-- min LBFGS
 |  previous  |    0.000000 |    0.197044 |     -304.579962 | <-- min LBFGS
 | trial step |    1.000000 |   -0.700554 |     -304.332138 | <-- min LBFGS
 |  line step |    0.219524 |    0.038588 |     -304.610502 | <-- min LBFGS
 +------------+-------------+-------------+-----------------+ <-- min LBFGS
  
 LBFGS: finished iteration     2 with enthalpy= -3.04610502E+002 eV
  
 +-----------+-----------------+-----------------+------------+-----+ <-- LBFGS
 | Parameter |      value      |    tolerance    |    units   | OK? | <-- LBFGS
 +-----------+-----------------+-----------------+------------+-----+ <-- LBFGS
 |  dE/ion   |   1.272514E-003 |   1.000000E-009 |         eV | No  | <-- LBFGS
 |  |F|max   |   1.115218E-001 |   1.000000E-005 |       eV/A | No  | <-- LBFGS
 |  |dR|max  |   6.952677E-003 |   1.000000E-005 |          A | No  | <-- LBFGS
 |   Smax    |   3.301500E+000 |   1.000000E-005 |        GPa | No  | <-- LBFGS
 +-----------+-----------------+-----------------+------------+-----+ <-- LBFGS
  

================================================================================
 Starting LBFGS iteration          3 ...
================================================================================
  
 +------------+-------------+-------------+-----------------+ <-- min LBFGS
 |    Step    |   lambda    |   F.delta'  |    enthalpy     | <-- min LBFGS
 +------------+-------------+-------------+-----------------+ <-- min LBFGS
 |  previous  |    0.000000 |    0.045596 |     -304.610502 | <-- min LBFGS
 +------------+-------------+-------------+-----------------+ <-- min LBFGS
  

--------------------------------------------------------------------------------
 LBFGS: starting iteration         3 with trial guess (lambda=  1.000000)
--------------------------------------------------------------------------------

                           -------------------------------
                                      Unit Cell
                           -------------------------------
        Real Lattice(A)              Reciprocal Lattice(1/A)
     2.7515490    -0.0000000     0.0000000        2.283508419   0.000000000  -0.000000000
    -0.0000000     5.0969482    -0.0000000        0.000000000   1.232734782   0.000000000
     0.0000000    -0.0000000     3.0635462       -0.000000000   0.000000001   2.050951730

                       Lattice parameters(A)       Cell Angles
                    a =      2.751549          alpha =   90.000000
                    b =      5.096948          beta  =   90.000000
                    c =      3.063546          gamma =   90.000000

                Current cell volume =            42.964711 A**3

                           -------------------------------
                                     Cell Contents
                           -------------------------------

            xxxxxxxxxxxxxxxxxxxxxxxxxxxxxxxxxxxxxxxxxxxxxxxxxxxxxxxxxxxxxxxxx
            x  Element         Atom        Fractional coordinates of atoms  x
            x                 Number           u          v          w      x
            x---------------------------------------------------------------x
            x  H                 1         0.000000   0.001252   0.123630   x
            x  H                 2         0.000000   0.133218   0.453950   x
            x  H                 3        -0.000000   0.258904   0.322674   x
            x  H                 4         0.500000   0.258904   0.177326   x
            x  H                 5         0.500000   0.133218   0.046050   x
            x  H                 6         0.500000   0.001252   0.376370   x
            x  H                 7         0.500000   0.241096   0.677326   x
            x  H                 8         0.500000   0.366782   0.546050   x
            x  H                 9         0.500000   0.498748   0.876370   x
            x  H                10         0.500000   0.741096   0.822674   x
            x  H                11         0.500000   0.866782   0.953950   x
            x  H                12         0.500000   0.998748   0.623630   x
            x  H                13         0.500000   0.758904   0.322674   x
            x  H                14         0.500000   0.633218   0.453950   x
            x  H                15         0.500000   0.501252   0.123630   x
            x  H                16         0.000000   0.758904   0.177326   x
            x  H                17        -0.000000   0.633218   0.046050   x
            x  H                18        -0.000000   0.501252   0.376370   x
            x  H                19         0.000000   0.741096   0.677326   x
            x  H                20         0.000000   0.866782   0.546050   x
            x  H                21        -0.000000   0.998748   0.876370   x
            x  H                22        -0.000000   0.241096   0.822674   x
            x  H                23         0.000000   0.366782   0.953950   x
            x  H                24         0.000000   0.498748   0.623630   x
            xxxxxxxxxxxxxxxxxxxxxxxxxxxxxxxxxxxxxxxxxxxxxxxxxxxxxxxxxxxxxxxxx


------------------------------------------------------------------------ <-- SCF
SCF loop      Energy                           Energy gain       Timer   <-- SCF
                                               per atom          (sec)   <-- SCF
------------------------------------------------------------------------ <-- SCF
Initial  -3.52850361E+002                                        872.73  <-- SCF
      1  -3.52881274E+002                    1.28807999E-003     888.51  <-- SCF
      2  -3.52881381E+002                    4.44274326E-006     906.71  <-- SCF
      3  -3.52878279E+002                   -1.29269045E-004     922.73  <-- SCF
      4  -3.52878253E+002                   -1.05120388E-006     939.59  <-- SCF
      5  -3.52878253E+002                   -2.59981464E-009     955.90  <-- SCF
      6  -3.52878253E+002                    2.89531363E-010     973.43  <-- SCF
      7  -3.52878253E+002                    2.70164285E-011     985.24  <-- SCF
      8  -3.52878253E+002                    7.33113164E-013     996.52  <-- SCF
      9  -3.52878253E+002                    2.98078979E-013    1008.02  <-- SCF
------------------------------------------------------------------------ <-- SCF
 
Final energy =  -352.8782533389     eV
(energy not corrected for finite basis set)
 

 ************************************** Forces **************************************
 *                                                                                  *
 *                           Cartesian components (eV/A)                            *
 * -------------------------------------------------------------------------------- *
 *                         x                    y                    z              *
 *                                                                                  *
 * H               1     -0.00000              0.00638              0.24301         *
 * H               2     -0.00000              0.07404             -0.03615         *
 * H               3      0.00000             -0.10781              0.04828         *
 * H               4      0.00000             -0.10781             -0.04828         *
 * H               5     -0.00000              0.07405              0.03615         *
 * H               6      0.00000              0.00638             -0.24301         *
 * H               7      0.00000              0.10781             -0.04828         *
 * H               8     -0.00000             -0.07404              0.03615         *
 * H               9      0.00000             -0.00638             -0.24301         *
 * H              10     -0.00000              0.10781              0.04828         *
 * H              11      0.00000             -0.07404             -0.03615         *
 * H              12     -0.00000             -0.00638              0.24301         *
 * H              13      0.00000             -0.10781              0.04828         *
 * H              14     -0.00000              0.07405             -0.03615         *
 * H              15     -0.00000              0.00638              0.24301         *
 * H              16     -0.00000             -0.10781             -0.04828         *
 * H              17      0.00000              0.07404              0.03615         *
 * H              18      0.00000              0.00638             -0.24301         *
 * H              19     -0.00000              0.10781             -0.04828         *
 * H              20      0.00000             -0.07404              0.03615         *
 * H              21     -0.00000             -0.00638             -0.24301         *
 * H              22      0.00000              0.10781              0.04828         *
 * H              23     -0.00000             -0.07404             -0.03615         *
 * H              24     -0.00000             -0.00638              0.24301         *
 *                                                                                  *
 ************************************************************************************

 ***************** Stress Tensor *****************
 *                                               *
 *          Cartesian components (GPa)           *
 * --------------------------------------------- *
 *             x             y             z     *
 *                                               *
 *  x   -180.032552      0.000000      0.000000  *
 *  y      0.000000   -178.142308      0.000002  *
 *  z      0.000000      0.000002   -182.070747  *
 *                                               *
 *  Pressure:  180.0819                          *
 *                                               *
 *************************************************
  
 +------------+-------------+-------------+-----------------+ <-- min LBFGS
 |    Step    |   lambda    |   F.delta'  |    enthalpy     | <-- min LBFGS
 +------------+-------------+-------------+-----------------+ <-- min LBFGS
 |  previous  |    0.000000 |    0.045596 |     -304.610502 | <-- min LBFGS
 | trial step |    1.000000 |   -0.068247 |     -304.608619 | <-- min LBFGS
 +------------+-------------+-------------+-----------------+ <-- min LBFGS
  

--------------------------------------------------------------------------------
 LBFGS: improving iteration         3 with line minimization (lambda=  0.400516)
--------------------------------------------------------------------------------

                           -------------------------------
                                      Unit Cell
                           -------------------------------
        Real Lattice(A)              Reciprocal Lattice(1/A)
     2.7524597    -0.0000000     0.0000000        2.282752864   0.000000000  -0.000000000
    -0.0000000     5.0980874    -0.0000000        0.000000000   1.232459311   0.000000001
     0.0000000    -0.0000000     3.0657895       -0.000000000   0.000000001   2.049451003

                       Lattice parameters(A)       Cell Angles
                    a =      2.752460          alpha =   90.000000
                    b =      5.098087          beta  =   90.000000
                    c =      3.065789          gamma =   90.000000

                Current cell volume =            43.020017 A**3

                           -------------------------------
                                     Cell Contents
                           -------------------------------

            xxxxxxxxxxxxxxxxxxxxxxxxxxxxxxxxxxxxxxxxxxxxxxxxxxxxxxxxxxxxxxxxx
            x  Element         Atom        Fractional coordinates of atoms  x
            x                 Number           u          v          w      x
            x---------------------------------------------------------------x
            x  H                 1         0.000000   0.001322   0.124889   x
            x  H                 2         0.000000   0.133574   0.453822   x
            x  H                 3        -0.000000   0.259194   0.322398   x
            x  H                 4         0.500000   0.259194   0.177602   x
            x  H                 5         0.500000   0.133574   0.046178   x
            x  H                 6         0.500000   0.001322   0.375111   x
            x  H                 7         0.500000   0.240806   0.677602   x
            x  H                 8         0.500000   0.366426   0.546178   x
            x  H                 9         0.500000   0.498678   0.875111   x
            x  H                10         0.500000   0.740806   0.822398   x
            x  H                11         0.500000   0.866426   0.953822   x
            x  H                12         0.500000   0.998678   0.624889   x
            x  H                13         0.500000   0.759194   0.322398   x
            x  H                14         0.500000   0.633574   0.453822   x
            x  H                15         0.500000   0.501322   0.124889   x
            x  H                16         0.000000   0.759194   0.177602   x
            x  H                17        -0.000000   0.633574   0.046178   x
            x  H                18        -0.000000   0.501322   0.375111   x
            x  H                19         0.000000   0.740806   0.677602   x
            x  H                20        -0.000000   0.866426   0.546178   x
            x  H                21        -0.000000   0.998678   0.875111   x
            x  H                22        -0.000000   0.240806   0.822398   x
            x  H                23         0.000000   0.366426   0.953822   x
            x  H                24         0.000000   0.498678   0.624889   x
            xxxxxxxxxxxxxxxxxxxxxxxxxxxxxxxxxxxxxxxxxxxxxxxxxxxxxxxxxxxxxxxxx


------------------------------------------------------------------------ <-- SCF
SCF loop      Energy                           Energy gain       Timer   <-- SCF
                                               per atom          (sec)   <-- SCF
------------------------------------------------------------------------ <-- SCF
Initial  -3.52933920E+002                                       1045.72  <-- SCF
      1  -3.52945074E+002                    4.64755586E-004    1060.83  <-- SCF
      2  -3.52945114E+002                    1.63836340E-006    1076.79  <-- SCF
      3  -3.52943991E+002                   -4.68016952E-005    1092.38  <-- SCF
      4  -3.52943982E+002                   -3.73733389E-007    1109.41  <-- SCF
      5  -3.52943982E+002                   -1.20841017E-009    1126.60  <-- SCF
      6  -3.52943982E+002                    9.66742633E-011    1141.12  <-- SCF
      7  -3.52943982E+002                    1.03683147E-011    1152.20  <-- SCF
      8  -3.52943982E+002                    2.01404715E-013    1163.19  <-- SCF
      9  -3.52943982E+002                    1.10772593E-013    1174.31  <-- SCF
------------------------------------------------------------------------ <-- SCF
 
Final energy =  -352.9439815084     eV
(energy not corrected for finite basis set)
 

 ************************************** Forces **************************************
 *                                                                                  *
 *                           Cartesian components (eV/A)                            *
 * -------------------------------------------------------------------------------- *
 *                         x                    y                    z              *
 *                                                                                  *
 * H               1     -0.00000             -0.00029              0.02606         *
 * H               2     -0.00000              0.04764             -0.03291         *
 * H               3      0.00000             -0.08659              0.04544         *
 * H               4      0.00000             -0.08659             -0.04544         *
 * H               5     -0.00000              0.04764              0.03291         *
 * H               6      0.00000             -0.00029             -0.02606         *
 * H               7     -0.00000              0.08659             -0.04544         *
 * H               8     -0.00000             -0.04764              0.03291         *
 * H               9      0.00000              0.00029             -0.02606         *
 * H              10     -0.00000              0.08659              0.04544         *
 * H              11      0.00000             -0.04764             -0.03291         *
 * H              12     -0.00000              0.00029              0.02606         *
 * H              13      0.00000             -0.08659              0.04544         *
 * H              14     -0.00000              0.04764             -0.03291         *
 * H              15     -0.00000             -0.00029              0.02606         *
 * H              16     -0.00000             -0.08659             -0.04544         *
 * H              17      0.00000              0.04764              0.03291         *
 * H              18      0.00000             -0.00029             -0.02606         *
 * H              19     -0.00000              0.08659             -0.04544         *
 * H              20      0.00000             -0.04764              0.03291         *
 * H              21      0.00000              0.00029             -0.02606         *
 * H              22     -0.00000              0.08659              0.04544         *
 * H              23     -0.00000             -0.04764             -0.03291         *
 * H              24     -0.00000              0.00029              0.02606         *
 *                                                                                  *
 ************************************************************************************

 ***************** Stress Tensor *****************
 *                                               *
 *          Cartesian components (GPa)           *
 * --------------------------------------------- *
 *             x             y             z     *
 *                                               *
 *  x   -179.412956     -0.000000      0.000000  *
 *  y     -0.000000   -177.952910      0.000001  *
 *  z      0.000000      0.000001   -178.816693  *
 *                                               *
 *  Pressure:  178.7275                          *
 *                                               *
 *************************************************
  
 +------------+-------------+-------------+-----------------+ <-- min LBFGS
 |    Step    |   lambda    |   F.delta'  |    enthalpy     | <-- min LBFGS
 +------------+-------------+-------------+-----------------+ <-- min LBFGS
 |  previous  |    0.000000 |    0.045596 |     -304.610502 | <-- min LBFGS
 | trial step |    1.000000 |   -0.068247 |     -304.608619 | <-- min LBFGS
 |  line step |    0.400516 |    0.001306 |     -304.612212 | <-- min LBFGS
 +------------+-------------+-------------+-----------------+ <-- min LBFGS
  
 LBFGS: finished iteration     3 with enthalpy= -3.04612212E+002 eV
  
 +-----------+-----------------+-----------------+------------+-----+ <-- LBFGS
 | Parameter |      value      |    tolerance    |    units   | OK? | <-- LBFGS
 +-----------+-----------------+-----------------+------------+-----+ <-- LBFGS
 |  dE/ion   |   7.124051E-005 |   1.000000E-009 |         eV | No  | <-- LBFGS
 |  |F|max   |   9.779362E-002 |   1.000000E-005 |       eV/A | No  | <-- LBFGS
 |  |dR|max  |   2.589898E-003 |   1.000000E-005 |          A | No  | <-- LBFGS
 |   Smax    |   2.047090E+000 |   1.000000E-005 |        GPa | No  | <-- LBFGS
 +-----------+-----------------+-----------------+------------+-----+ <-- LBFGS
  

================================================================================
 Starting LBFGS iteration          4 ...
================================================================================
  
 +------------+-------------+-------------+-----------------+ <-- min LBFGS
 |    Step    |   lambda    |   F.delta'  |    enthalpy     | <-- min LBFGS
 +------------+-------------+-------------+-----------------+ <-- min LBFGS
 |  previous  |    0.000000 |    0.045159 |     -304.612212 | <-- min LBFGS
 +------------+-------------+-------------+-----------------+ <-- min LBFGS
  

--------------------------------------------------------------------------------
 LBFGS: starting iteration         4 with trial guess (lambda=  1.000000)
--------------------------------------------------------------------------------

                           -------------------------------
                                      Unit Cell
                           -------------------------------
        Real Lattice(A)              Reciprocal Lattice(1/A)
     2.7495226     0.0000000     0.0000000        2.285191400  -0.000000000  -0.000000000
     0.0000000     5.0916184    -0.0000000       -0.000000000   1.234025169   0.000000001
     0.0000000    -0.0000000     3.0612601       -0.000000000   0.000000001   2.052483329

                       Lattice parameters(A)       Cell Angles
                    a =      2.749523          alpha =   90.000000
                    b =      5.091618          beta  =   90.000000
                    c =      3.061260          gamma =   90.000000

                Current cell volume =            42.856171 A**3

                           -------------------------------
                                     Cell Contents
                           -------------------------------

            xxxxxxxxxxxxxxxxxxxxxxxxxxxxxxxxxxxxxxxxxxxxxxxxxxxxxxxxxxxxxxxxx
            x  Element         Atom        Fractional coordinates of atoms  x
            x                 Number           u          v          w      x
            x---------------------------------------------------------------x
            x  H                 1         0.000000   0.001197   0.124954   x
            x  H                 2        -0.000000   0.133211   0.453725   x
            x  H                 3         0.000000   0.257632   0.323694   x
            x  H                 4         0.500000   0.257632   0.176306   x
            x  H                 5         0.500000   0.133211   0.046275   x
            x  H                 6         0.500000   0.001197   0.375046   x
            x  H                 7         0.500000   0.242368   0.676306   x
            x  H                 8         0.500000   0.366789   0.546275   x
            x  H                 9         0.500000   0.498803   0.875046   x
            x  H                10         0.500000   0.742368   0.823694   x
            x  H                11         0.500000   0.866789   0.953725   x
            x  H                12         0.500000   0.998803   0.624954   x
            x  H                13         0.500000   0.757632   0.323694   x
            x  H                14         0.500000   0.633211   0.453725   x
            x  H                15         0.500000   0.501197   0.124954   x
            x  H                16        -0.000000   0.757632   0.176306   x
            x  H                17         0.000000   0.633211   0.046275   x
            x  H                18        -0.000000   0.501197   0.375046   x
            x  H                19        -0.000000   0.742368   0.676306   x
            x  H                20         0.000000   0.866789   0.546275   x
            x  H                21        -0.000000   0.998803   0.875046   x
            x  H                22        -0.000000   0.242368   0.823694   x
            x  H                23         0.000000   0.366789   0.953725   x
            x  H                24         0.000000   0.498803   0.624954   x
            xxxxxxxxxxxxxxxxxxxxxxxxxxxxxxxxxxxxxxxxxxxxxxxxxxxxxxxxxxxxxxxxx


------------------------------------------------------------------------ <-- SCF
[...]
      H     1      S                    1.000
      H     2      S                    1.026
      H     3      S                    0.975
      H     4      S                    0.975
      H     5      S                    1.026
      H     6      S                    1.000
      H     7      S                    0.975
      H     8      S                    1.026
      H     9      S                    1.000
      H    10      S                    0.975
      H    11      S                    1.026
      H    12      S                    1.000
      H    13      S                    0.975
      H    14      S                    1.026
      H    15      S                    1.000
      H    16      S                    0.975
      H    17      S                    1.026
      H    18      S                    1.000
      H    19      S                    0.975
      H    20      S                    1.026
      H    21      S                    1.000
      H    22      S                    0.975
      H    23      S                    1.026
      H    24      S                    1.000
  -------------------------------------------
                           Total:      24.000
  -------------------------------------------

     Atomic Populations (Mulliken)
     -----------------------------
Species          Ion     s      p      d      f     Total  Charge (e)
=====================================================================
  H               1     1.00   0.00   0.00   0.00   1.00     0.00
  H               2     1.03   0.00   0.00   0.00   1.03    -0.03
  H               3     0.97   0.00   0.00   0.00   0.97     0.03
  H               4     0.97   0.00   0.00   0.00   0.97     0.03
  H               5     1.03   0.00   0.00   0.00   1.03    -0.03
  H               6     1.00   0.00   0.00   0.00   1.00     0.00
  H               7     0.97   0.00   0.00   0.00   0.97     0.03
  H               8     1.03   0.00   0.00   0.00   1.03    -0.03
  H               9     1.00   0.00   0.00   0.00   1.00     0.00
  H              10     0.97   0.00   0.00   0.00   0.97     0.03
  H              11     1.03   0.00   0.00   0.00   1.03    -0.03
  H              12     1.00   0.00   0.00   0.00   1.00     0.00
  H              13     0.97   0.00   0.00   0.00   0.97     0.03
  H              14     1.03   0.00   0.00   0.00   1.03    -0.03
  H              15     1.00   0.00   0.00   0.00   1.00     0.00
  H              16     0.97   0.00   0.00   0.00   0.97     0.03
  H              17     1.03   0.00   0.00   0.00   1.03    -0.03
  H              18     1.00   0.00   0.00   0.00   1.00     0.00
  H              19     0.97   0.00   0.00   0.00   0.97     0.03
  H              20     1.03   0.00   0.00   0.00   1.03    -0.03
  H              21     1.00   0.00   0.00   0.00   1.00     0.00
  H              22     0.97   0.00   0.00   0.00   0.97     0.03
  H              23     1.03   0.00   0.00   0.00   1.03    -0.03
  H              24     1.00   0.00   0.00   0.00   1.00     0.00
=====================================================================

                 Bond                   Population      Length (A)
======================================================================
              H 7  -- H 8                    1.62        0.75290
              H 22 -- H 23                   1.62        0.75290
              H 16 -- H 17                   1.62        0.75290
              H 10 -- H 11                   1.62        0.75290
              H 13 -- H 14                   1.62        0.75290
              H 4  -- H 5                    1.62        0.75290
              H 19 -- H 20                   1.62        0.75290
              H 2  -- H 3                    1.62        0.75290
              H 18 -- H 24                   1.46        0.76528
              H 1  -- H 21                   1.46        0.76528
              H 9  -- H 15                   1.46        0.76528
              H 6  -- H 12                   1.46        0.76528
              H 20 -- H 21                   0.08        1.21632
              H 23 -- H 24                   0.09        1.21632
              H 1  -- H 2                    0.09        1.21632
              H 11 -- H 12                   0.09        1.21632
              H 17 -- H 18                   0.08        1.21632
              H 5  -- H 6                    0.08        1.21632
              H 14 -- H 15                   0.08        1.21632
              H 8  -- H 9                    0.08        1.21632
              H 3  -- H 18                   0.15        1.24911
              H 1  -- H 16                   0.15        1.24911
              H 19 -- H 24                   0.15        1.24911
              H 9  -- H 10                   0.15        1.24911
              H 4  -- H 15                   0.15        1.24911
              H 6  -- H 13                   0.15        1.24911
              H 21 -- H 22                   0.15        1.24911
              H 7  -- H 12                   0.15        1.24911
              H 3  -- H 23                  -0.10        1.25784
              H 10 -- H 14                  -0.10        1.25784
              H 17 -- H 19                  -0.10        1.25784
              H 11 -- H 13                  -0.10        1.25784
              H 16 -- H 20                  -0.10        1.25784
              H 4  -- H 8                   -0.10        1.25784
              H 2  -- H 22                  -0.10        1.25784
              H 5  -- H 7                   -0.10        1.25784
              H 2  -- H 20                  -0.04        1.38421
              H 5  -- H 11                  -0.04        1.38421
              H 8  -- H 14                  -0.04        1.38421
              H 17 -- H 23                  -0.04        1.38421
              H 22 -- H 24                  -0.09        1.44419
              H 4  -- H 6                   -0.09        1.44419
              H 19 -- H 21                  -0.09        1.44419
              H 7  -- H 9                   -0.09        1.44419
              H 13 -- H 15                  -0.09        1.44419
              H 10 -- H 12                  -0.09        1.44419
              H 16 -- H 18                  -0.09        1.44419
              H 1  -- H 3                   -0.09        1.44419
              H 10 -- H 19                   0.01        1.44687
              H 3  -- H 4                    0.01        1.44687
              H 13 -- H 16                   0.01        1.44687
              H 7  -- H 22                   0.01        1.44687
              H 5  -- H 12                  -0.23        1.45609
              H 2  -- H 21                  -0.23        1.45609
              H 6  -- H 11                  -0.23        1.45609
              H 9  -- H 14                  -0.23        1.45609
              H 8  -- H 15                  -0.23        1.45609
              H 17 -- H 24                  -0.23        1.45609
              H 1  -- H 20                  -0.23        1.45609
              H 18 -- H 23                  -0.23        1.45609
              H 4  -- H 7                   -0.27        1.53388
              H 16 -- H 19                  -0.27        1.53388
              H 3  -- H 22                  -0.27        1.53388
              H 10 -- H 13                  -0.27        1.53388
              H 3  -- H 24                  -0.19        1.53960
              H 18 -- H 19                  -0.19        1.53960
              H 4  -- H 9                   -0.19        1.53960
              H 16 -- H 21                  -0.19        1.53960
              H 1  -- H 22                  -0.19        1.53960
              H 12 -- H 13                  -0.19        1.53960
              H 10 -- H 15                  -0.19        1.53960
              H 6  -- H 7                   -0.19        1.53960
              H 1  -- H 5                   -0.13        1.55142
              H 2  -- H 6                   -0.13        1.55142
              H 14 -- H 18                  -0.13        1.55142
              H 12 -- H 20                  -0.13        1.55142
              H 9  -- H 23                  -0.13        1.55142
              H 11 -- H 21                  -0.13        1.55142
              H 15 -- H 17                  -0.13        1.55142
              H 8  -- H 24                  -0.13        1.55142
              H 12 -- H 21                  -0.17        1.57456
              H 9  -- H 24                  -0.17        1.57456
              H 15 -- H 18                  -0.17        1.57456
              H 1  -- H 6                   -0.17        1.57456
              H 5  -- H 21                  -0.13        1.62078
              H 2  -- H 12                  -0.13        1.62078
              H 6  -- H 20                  -0.13        1.62078
              H 14 -- H 24                  -0.13        1.62078
              H 1  -- H 11                  -0.13        1.62078
              H 15 -- H 23                  -0.13        1.62078
              H 9  -- H 17                  -0.13        1.62078
              H 8  -- H 18                  -0.13        1.62078
              H 3  -- H 8                   -0.19        1.63155
              H 11 -- H 16                  -0.19        1.63155
              H 10 -- H 17                  -0.19        1.63155
              H 4  -- H 23                  -0.19        1.63155
              H 14 -- H 19                  -0.19        1.63155
              H 13 -- H 20                  -0.19        1.63155
              H 2  -- H 7                   -0.19        1.63155
              H 5  -- H 22                  -0.19        1.63155
              H 8  -- H 22                  -0.28        1.73880
              H 13 -- H 17                  -0.28        1.73880
              H 11 -- H 19                  -0.28        1.73880
              H 2  -- H 4                   -0.28        1.73880
              H 7  -- H 23                  -0.28        1.73880
              H 10 -- H 20                  -0.28        1.73880
              H 14 -- H 16                  -0.28        1.73880
              H 3  -- H 5                   -0.28        1.73880
              H 3  -- H 7                   -0.31        1.75198
              H 10 -- H 16                  -0.31        1.75198
              H 4  -- H 22                  -0.31        1.75198
              H 13 -- H 19                  -0.31        1.75198
              H 11 -- H 17                  -0.22        1.84070
              H 2  -- H 8                   -0.22        1.84070
              H 14 -- H 20                  -0.22        1.84070
              H 5  -- H 23                  -0.22        1.84070
              H 8  -- H 23                  -0.48        1.86353
              H 14 -- H 17                  -0.48        1.86353
              H 11 -- H 20                  -0.48        1.86353
              H 2  -- H 5                   -0.48        1.86353
              H 8  -- H 12                  -0.14        1.89030
              H 1  -- H 17                  -0.14        1.89030
              H 21 -- H 23                  -0.14        1.89030
              H 9  -- H 11                  -0.14        1.89030
              H 6  -- H 14                  -0.14        1.89030
              H 20 -- H 24                  -0.14        1.89030
              H 5  -- H 15                  -0.14        1.89030
              H 2  -- H 18                  -0.14        1.89030
              H 18 -- H 22                  -0.34        1.90297
              H 1  -- H 19                  -0.34        1.90297
              H 9  -- H 13                  -0.34        1.90297
              H 4  -- H 12                  -0.34        1.90297
              H 7  -- H 15                  -0.34        1.90297
              H 6  -- H 10                  -0.34        1.90297
              H 16 -- H 24                  -0.34        1.90297
              H 3  -- H 21                  -0.34        1.90297
              H 7  -- H 24                  -0.26        1.90596
              H 9  -- H 22                  -0.26        1.90596
              H 13 -- H 18                  -0.26        1.90596
              H 1  -- H 4                   -0.26        1.90596
              H 12 -- H 19                  -0.26        1.90596
              H 10 -- H 21                  -0.26        1.90596
              H 15 -- H 16                  -0.26        1.90596
              H 3  -- H 6                   -0.26        1.90596
              H 1  -- H 23                  -0.24        1.93791
              H 6  -- H 8                   -0.24        1.93791
              H 18 -- H 20                  -0.24        1.93791
              H 12 -- H 14                  -0.24        1.93791
              H 17 -- H 21                  -0.24        1.93791
              H 5  -- H 9                   -0.24        1.93791
              H 11 -- H 15                  -0.24        1.93791
              H 2  -- H 24                  -0.24        1.93791
              H 5  -- H 8                   -0.30        1.94115
              H 17 -- H 20                  -0.30        1.94115
              H 11 -- H 14                  -0.30        1.94115
              H 2  -- H 23                  -0.30        1.94115
              H 3  -- H 15                  -0.08        1.94840
              H 6  -- H 16                  -0.08        1.94840
              H 10 -- H 24                  -0.08        1.94840
              H 9  -- H 19                  -0.08        1.94840
              H 12 -- H 22                  -0.08        1.94840
              H 7  -- H 21                  -0.08        1.94840
              H 1  -- H 13                  -0.08        1.94840
              H 4  -- H 18                  -0.08        1.94840
              H 1  -- H 12                  -0.34        2.05869
              H 6  -- H 21                  -0.34        2.05869
              H 9  -- H 18                  -0.34        2.05869
              H 15 -- H 24                  -0.34        2.05869
              H 3  -- H 17                  -0.06        2.09534
              H 2  -- H 16                  -0.06        2.09534
              H 5  -- H 13                  -0.06        2.09534
              H 19 -- H 23                  -0.06        2.09534
              H 20 -- H 22                  -0.06        2.09534
              H 8  -- H 10                  -0.06        2.09534
              H 4  -- H 14                  -0.06        2.09534
              H 7  -- H 11                  -0.06        2.09534
              H 7  -- H 14                  -0.10        2.10441
              H 5  -- H 10                  -0.10        2.10441
              H 2  -- H 19                  -0.10        2.10441
              H 4  -- H 11                  -0.10        2.10441
              H 17 -- H 22                  -0.10        2.10441
              H 8  -- H 13                  -0.10        2.10441
              H 16 -- H 23                  -0.10        2.10441
              H 3  -- H 20                  -0.10        2.10441
              H 7  -- H 18                  -0.22        2.11672
              H 15 -- H 22                  -0.22        2.11672
              H 13 -- H 24                  -0.22        2.11672
              H 1  -- H 10                  -0.22        2.11672
              H 4  -- H 21                  -0.22        2.11672
              H 9  -- H 16                  -0.22        2.11672
              H 6  -- H 19                  -0.22        2.11672
              H 3  -- H 12                  -0.22        2.11672
              H 3  -- H 9                   -0.12        2.30090
              H 10 -- H 18                  -0.12        2.30090
              H 12 -- H 16                  -0.12        2.30090
              H 15 -- H 19                  -0.12        2.30090
              H 1  -- H 7                   -0.12        2.30090
              H 6  -- H 22                  -0.12        2.30090
              H 4  -- H 24                  -0.12        2.30090
              H 13 -- H 21                  -0.12        2.30090
              H 3  -- H 14                  -0.02        2.39100
              H 5  -- H 16                  -0.02        2.39100
              H 2  -- H 13                  -0.02        2.39100
              H 10 -- H 23                  -0.02        2.39100
              H 7  -- H 20                  -0.02        2.39100
              H 4  -- H 17                  -0.02        2.39100
              H 8  -- H 19                  -0.02        2.39100
              H 11 -- H 22                  -0.02        2.39100
              H 5  -- H 20                  -0.04        2.46554
              H 2  -- H 11                  -0.04        2.46554
              H 14 -- H 23                  -0.04        2.46554
              H 8  -- H 17                  -0.04        2.46554
              H 8  -- H 21                   0.06        2.53550
              H 6  -- H 17                   0.06        2.53550
              H 11 -- H 24                   0.06        2.53550
              H 12 -- H 23                   0.06        2.53550
              H 2  -- H 15                   0.06        2.53550
              H 9  -- H 20                   0.06        2.53550
              H 1  -- H 14                   0.06        2.53550
              H 5  -- H 18                   0.06        2.53550
              H 3  -- H 16                  -0.04        2.58828
              H 19 -- H 22                  -0.04        2.58828
              H 7  -- H 10                  -0.04        2.58828
              H 4  -- H 13                  -0.04        2.58828
              H 14 -- H 21                   0.05        2.65175
              H 6  -- H 23                   0.05        2.65175
              H 1  -- H 8                    0.05        2.65175
              H 12 -- H 17                   0.05        2.65175
              H 11 -- H 18                   0.05        2.65175
              H 5  -- H 24                   0.05        2.65175
              H 15 -- H 20                   0.05        2.65175
              H 2  -- H 9                    0.05        2.65175
              H 6  -- H 15                   0.01        2.66176
              H 21 -- H 24                   0.01        2.66176
              H 9  -- H 12                   0.01        2.66176
              H 1  -- H 18                   0.01        2.66176
              H 5  -- H 19                   0.06        2.67053
              H 14 -- H 22                   0.06        2.67053
              H 4  -- H 20                   0.06        2.67053
              H 2  -- H 10                   0.06        2.67053
              H 13 -- H 23                   0.06        2.67053
              H 7  -- H 17                   0.06        2.67053
              H 3  -- H 11                   0.06        2.67053
              H 8  -- H 16                   0.06        2.67053
              H 3  -- H 19                  -0.02        2.69734
              H 4  -- H 10                  -0.02        2.69734
              H 16 -- H 22                  -0.02        2.69734
              H 7  -- H 13                  -0.02        2.69734
======================================================================


Writing analysis data to Cmca-12.castep_bin

Writing model to Cmca-12.check
 
 A BibTeX formatted list of references used in this run has been written to 
 Cmca-12.bib
 
Initialisation time =      5.25 s
Calculation time    =   4545.61 s
Finalisation time   =      7.77 s
Total time          =   4558.62 s
Peak Memory Use     = 662624 kB
  
Overall parallel efficiency rating: Excellent (92%)                             
  
Data was distributed by:-
k-point (16-way); efficiency rating: Excellent (92%)                            
