 +-------------------------------------------------+
 |                                                 |
 |      CCC   AA    SSS  TTTTT  EEEEE  PPPP        |
 |     C     A  A  S       T    E      P   P       |
 |     C     AAAA   SS     T    EEE    PPPP        |
 |     C     A  A     S    T    E      P           |
 |      CCC  A  A  SSS     T    EEEEE  P           |
 |                                                 |
 +-------------------------------------------------+
 |                                                 |
 | Welcome to Academic Release CASTEP version 18.1 |          
 | Ab Initio Total Energy Program                  |
 |                                                 |
 | Authors:                                        |
 | M. Segall, M. Probert, C. Pickard, P. Hasnip,   |
 | S. Clark, K. Refson, J. R. Yates, M. Payne      |
 |                                                 |
 | Contributors:                                   |
 | P. Lindan, P. Haynes, J. White, V. Milman,      |
 | N. Govind, M. Gibson, P. Tulip, V. Cocula,      |
 | B. Montanari, D. Quigley, M. Glover,            |
 | L. Bernasconi, A. Perlov, M. Plummer,           |
 | E. McNellis, J. Meyer, J. Gale, D. Jochym       |
 | J. Aarons, B. Walker, R. Gillen, D. Jones       |
 | T. Green, I. J. Bush, C. J. Armstrong,          |
 | E. J. Higgins, E. L. Brown, M. S. McFly,        |
 | J. Wilkins, B-C. Shih, P. J. P. Byrne           |
 |                                                 |
 | Copyright (c) 2000 - 2017                       |
 |                                                 |
 |     Distributed under the terms of an           |
 |     Agreement between the United Kingdom        |
 |     Car-Parrinello (UKCP) Consortium,           |
 |     Daresbury Laboratory and Accelrys, Inc.     |
 |                                                 |
 | Please cite                                     |
 |                                                 |
 |     "First principles methods using CASTEP"     |
 |                                                 |
 |         Zeitschrift fuer Kristallographie       |
 |           220(5-6) pp. 567-570 (2005)           |
 |                                                 |
 | S. J. Clark, M. D. Segall, C. J. Pickard,       |
 | P. J. Hasnip, M. J. Probert, K. Refson,         |
 | M. C. Payne                                     |
 |                                                 |
 |       in all publications arising from          |
 |              your use of CASTEP                 |
 |                                                 |
 +-------------------------------------------------+


 Compiled for linux_x86_64_gfortran4.8 on Thu, 19 Jul 2018 15:42:32 +0100
 from code version 70483bd0ad64+  Sun, 10 Dec 2017 12:18:29 +0000
 Compiler: GNU Fortran 4.8.5; Optimisation: fast
 MATHLIBS: Intel MKL(2018.0.0) (LAPACK version 3.7.0)
 FFT Lib : mkl
 Fundamental constants values: CODATA 2014

 Run started: Fri, 21 Aug 2020 17:14:40 +0100

 Atomic calculation performed for H: 1s1

 Converged in 41 iterations to an ae energy of -12.488 eV

   ============================================================                
   | Pseudopotential Report - Date of generation 21-08-2020   |                
   ------------------------------------------------------------                
   | Element: H Ionic charge:  1.00 Level of theory: PBE      |                
   | Atomic Solver: Koelling-Harmon                           |                
   |                                                          |                
   |               Reference Electronic Structure             |                
   |         Orbital         Occupation         Energy        |                
   |            1s              1.000           -0.239        |                
   |                                                          |                
   |                 Pseudopotential Definition               |                
   |        Beta     l      e      Rc     scheme   norm       |                
   |         loc     0   -0.239   0.702     qc      1         |                
   |                                                          |                
   | No charge augmentation                                   |                
   | No partial core correction                               |                
   ------------------------------------------------------------                
   | "0|0.7|2|6|8|10L(qc=10)"                                 |                
   ------------------------------------------------------------                
   |      Author: Chris J. Pickard, Cambridge University      |                
   ============================================================                

 Pseudo atomic calculation performed for H 1s1

 Converged in 24 iterations to a total energy of -12.4843 eV

 Calculation parallelised over 16 processes.
 Data is distributed by k-point(16-way)

 ************************************ Title ************************************
 

 ***************************** General Parameters ******************************
  
 output verbosity                               : normal  (1)
 write checkpoint data to                       : P21c.check
 type of calculation                            : geometry optimization
 stress calculation                             : on
 density difference calculation                 : off
 electron localisation func (ELF) calculation   : off
 Hirshfeld analysis                             : off
 unlimited duration calculation
 timing information                             : on
 memory usage estimate                          : on
 write extra output files                       : on
 write final potential to formatted file        : off
 write final density to formatted file          : off
 write structure in CELL formatted file         : on
 write BibTeX reference list                    : on
 write OTFG pseudopotential files               : on
 write electrostatic potential file             : on
 write bands file                               : on
 checkpoint writing                             : both castep_bin and check files
  
 output         length unit                     : A
 output           mass unit                     : amu
 output           time unit                     : ps
 output         charge unit                     : e
 output           spin unit                     : hbar/2
 output         energy unit                     : eV
 output          force unit                     : eV/A
 output       velocity unit                     : A/ps
 output       pressure unit                     : GPa
 output     inv_length unit                     : 1/A
 output      frequency unit                     : cm-1
 output force constant unit                     : eV/A**2
 output         volume unit                     : A**3
 output   IR intensity unit                     : (D/A)**2/amu
 output         dipole unit                     : D
 output         efield unit                     : eV/A/e
 output        entropy unit                     : J/mol/K
  
 wavefunctions paging                           : none
 random number generator seed                   : randomised (171440880)
 data distribution                              : optimal for this architecture
 optimization strategy                          : maximize speed(+++)

 *********************** Exchange-Correlation Parameters ***********************
  
 using functional                               : Perdew Burke Ernzerhof
 relativistic treatment                         : Koelling-Harmon
 DFT+D: Semi-empirical dispersion correction    : off

 ************************* Pseudopotential Parameters **************************
  
 pseudopotential representation                 : reciprocal space
 <beta|phi> representation                      : reciprocal space
 spin-orbit coupling                            : off

 **************************** Basis Set Parameters *****************************
  
 plane wave basis set cut-off                   :  1200.0000   eV
 size of standard grid                          :     2.0000
 size of   fine   gmax                          :    35.4943   1/A
 finite basis set correction                    : automatic
 number of sample energies                      :          3
           sample  spacing                      :     5.0000   eV

 **************************** Electronic Parameters ****************************
  
 number of  electrons                           :  24.00    
 net charge of system                           :  0.000    
 treating system as non-spin-polarized
 number of bands                                :         12

 ********************* Electronic Minimization Parameters **********************
  
 Method: Treating system as non-metallic,
         and number of  SD  steps               :          1
         and number of  CG  steps               :          4
  
 total energy / atom convergence tol.           : 0.1000E-10   eV
 eigen-energy convergence tolerance             : 0.2000E-10   eV
 max force / atom convergence tol.              : ignored
 convergence tolerance window                   :          3   cycles
 max. number of SCF cycles                      :        100
 periodic dipole correction                     : NONE

 ************************** Density Mixing Parameters **************************
  
 density-mixing scheme                          : Broyden
 max. length of mixing history                  :         20
 charge density mixing amplitude                : 0.8000    
 cut-off energy for mixing                      :  1200.       eV

 *********************** Population Analysis Parameters ************************
  
 Population analysis with cutoff                :  3.000       A
 Population analysis output                     : summary and pdos components

 ********************** Geometry Optimization Parameters ***********************
  
 optimization method                            : LBFGS
 max. no. of LBFGS updates                      : unbounded
 variable cell method                           : fixed basis quality
 max. number of steps                           :        200
 estimated bulk modulus                         :  500.0       GPa
 estimated <frequency>                          :  1668.       cm-1
 geom line minimiser                            : on
 with line minimiser tolerance                  :     0.4000
 total energy convergence tolerance             : 0.1000E-08   eV/atom
        max ionic |force| tolerance             : 0.1000E-04   eV/A
 max ionic |displacement| tolerance             : 0.1000E-04   A
   max |stress component| tolerance             : 0.1000E-04   GPa
 convergence tolerance window                   :          2   steps
 backup results every                           :      14400   seconds
 write geom trajectory file                     : on

 *******************************************************************************
  

                           -------------------------------
                                      Unit Cell
                           -------------------------------
        Real Lattice(A)                      Reciprocal Lattice(1/A)
     9.4193350     0.0000000     0.0017875        0.666818899   0.000000000   1.227841239
     0.0000000     1.9777781     0.0000000        0.000000000   3.176890948   0.000000000
    -6.2808700     0.0000000     3.4110296       -0.000349427   0.000000000   1.841376759

                       Lattice parameters(A)       Cell Angles
                    a =      9.419335          alpha =   90.000000
                    b =      1.977778          beta  =  151.483523
                    c =      7.147339          gamma =   90.000000

                       Current cell volume =            63.567483       A**3
                                   density =             0.380549   AMU/A**3
                                           =             0.631917     g/cm^3

                           -------------------------------
                                     Cell Contents
                           -------------------------------
                         Total number of ions in cell =   24
                      Total number of species in cell =    1
                        Max number of any one species =   24

            xxxxxxxxxxxxxxxxxxxxxxxxxxxxxxxxxxxxxxxxxxxxxxxxxxxxxxxxxxxx
            x  Element    Atom        Fractional coordinates of atoms  x
            x            Number           u          v          w      x
            x----------------------------------------------------------x
            x  H            1         0.832432   0.665002   0.099186   x 
            x  H            2         0.167568   0.334998   0.900814   x 
            x  H            3         0.832432   0.834998   0.599186   x 
            x  H            4         0.167568   0.165002   0.400814   x 
            x  H            5         0.884723   0.405855   0.225556   x 
            x  H            6         0.115277   0.594145   0.774444   x 
            x  H            7         0.884723   0.094145   0.725556   x 
            x  H            8         0.115277   0.905855   0.274444   x 
            x  H            9         0.862118   0.126437   0.419090   x 
            x  H           10         0.137882   0.873563   0.580910   x 
            x  H           11         0.862118   0.373563   0.919090   x 
            x  H           12         0.137882   0.626437   0.080910   x 
            x  H           13         0.747115   0.907018   0.244919   x 
            x  H           14         0.252885   0.092982   0.755081   x 
            x  H           15         0.747115   0.592982   0.744919   x 
            x  H           16         0.252885   0.407018   0.255081   x 
            x  H           17         0.575268   0.385997   0.194694   x 
            x  H           18         0.424732   0.614003   0.805306   x 
            x  H           19         0.575268   0.114003   0.694694   x 
            x  H           20         0.424732   0.885997   0.305306   x 
            x  H           21         0.476014   0.605119   0.134384   x 
            x  H           22         0.523986   0.394881   0.865616   x 
            x  H           23         0.476014   0.894881   0.634384   x 
            x  H           24         0.523986   0.105119   0.365616   x 
            xxxxxxxxxxxxxxxxxxxxxxxxxxxxxxxxxxxxxxxxxxxxxxxxxxxxxxxxxxxx


                         No user defined ionic velocities

                           -------------------------------
                                   Details of Species
                           -------------------------------

                               Mass of species in AMU
                                    H    1.0079400

                          Electric Quadrupole Moment (Barn)
                                    H    0.0028600 Isotope  2

                          Files used for pseudopotentials:
                                    H 0|0.7|2|6|8|10L(qc=10)

                           -------------------------------
                              k-Points For BZ Sampling
                           -------------------------------
                       MP grid size for SCF calculation is  8 13 11
                            with an offset of   0.000  0.000  0.000
                       Number of kpoints used =           308

                           -------------------------------
                               Symmetry and Constraints
                           -------------------------------

                      Maximum deviation from symmetry = 0.191722E-13     ANG

                      Number of symmetry operations   =           4
                      Number of ionic constraints     =           3
                      Point group of crystal =     5: C2h, 2/m, 2/m
                      Space group of crystal =    14: P2_1/c, -P 2ybc

             Set iprint > 1 for details on symmetry rotations/translations

                         Centre of mass is constrained
             Set iprint > 1 for details of linear ionic constraints

                         Number of cell constraints= 2
                         Cell constraints are:  1 2 3 0 5 0

                         External pressure/stress (GPa)
                         60.00000   0.00000   0.00000
                                   60.00000   0.00000
                                             60.00000
  
+---------------- MEMORY AND SCRATCH DISK ESTIMATES PER PROCESS --------------+
|                                                     Memory          Disk    |
| Baseline code, static data and system overhead      412.0 MB         0.0 MB |
| BLAS internal memory storage                          0.0 MB         0.0 MB |
| Model and support data                               88.7 MB         0.0 MB |
| Electronic energy minimisation requirements          80.8 MB         0.0 MB |
| Force calculation requirements                       24.0 MB         0.0 MB |
| Stress calculation requirements                      30.4 MB         0.0 MB |
|                                               ----------------------------- |
| Approx. total storage required per process          581.5 MB         0.0 MB |
|                                                                             |
| Requirements will fluctuate during execution and may exceed these estimates |
+-----------------------------------------------------------------------------+
Calculating finite basis set correction with  3 cut-off energies.
Calculating total energy with cut-off of 1190.000 eV.
------------------------------------------------------------------------ <-- SCF
SCF loop      Energy                           Energy gain       Timer   <-- SCF
                                               per atom          (sec)   <-- SCF
------------------------------------------------------------------------ <-- SCF
Initial   6.08540065E+002                                          7.62  <-- SCF
      1  -2.97539710E+002                    3.77533240E+001      28.38  <-- SCF
      2  -3.68445319E+002                    2.95440038E+000      42.24  <-- SCF
      3  -3.69637692E+002                    4.96822108E-002      54.08  <-- SCF
      4  -3.67560543E+002                   -8.65478721E-002      74.41  <-- SCF
      5  -3.67485777E+002                   -3.11525702E-003      94.79  <-- SCF
      6  -3.67488221E+002                    1.01847018E-004     115.17  <-- SCF
      7  -3.67488473E+002                    1.04863879E-005     135.37  <-- SCF
      8  -3.67488474E+002                    2.90143150E-008     155.50  <-- SCF
      9  -3.67488474E+002                    1.73778836E-009     175.30  <-- SCF
     10  -3.67488474E+002                    2.62510906E-011     189.62  <-- SCF
     11  -3.67488474E+002                    1.15606307E-012     203.76  <-- SCF
     12  -3.67488474E+002                   -2.39671611E-013     218.00  <-- SCF
------------------------------------------------------------------------ <-- SCF
 
Final energy =  -367.4884737764     eV
(energy not corrected for finite basis set)
 
Calculating total energy with cut-off of 1195.000 eV.
------------------------------------------------------------------------ <-- SCF
SCF loop      Energy                           Energy gain       Timer   <-- SCF
                                               per atom          (sec)   <-- SCF
------------------------------------------------------------------------ <-- SCF
Initial  -3.67488474E+002                                        224.83  <-- SCF
      1  -3.67490266E+002                    7.46561527E-005     241.80  <-- SCF
      2  -3.67490266E+002                    1.01971207E-010     262.64  <-- SCF
      3  -3.67490266E+002                    3.25958426E-008     283.26  <-- SCF
      4  -3.67490266E+002                    1.96255804E-009     304.18  <-- SCF
      5  -3.67490266E+002                    3.35379132E-011     319.25  <-- SCF
      6  -3.67490266E+002                   -9.28475738E-013     334.23  <-- SCF
      7  -3.67490266E+002                    3.26477044E-012     349.24  <-- SCF
------------------------------------------------------------------------ <-- SCF
 
Final energy =  -367.4902663568     eV
(energy not corrected for finite basis set)
 
Calculating total energy with cut-off of 1200.000 eV.
------------------------------------------------------------------------ <-- SCF
SCF loop      Energy                           Energy gain       Timer   <-- SCF
                                               per atom          (sec)   <-- SCF
------------------------------------------------------------------------ <-- SCF
Initial  -3.67490266E+002                                        356.15  <-- SCF
      1  -3.67492004E+002                    7.24004616E-005     373.37  <-- SCF
      2  -3.67492004E+002                    9.73590394E-011     393.95  <-- SCF
      3  -3.67492005E+002                    3.14640005E-008     414.50  <-- SCF
      4  -3.67492005E+002                    1.88068702E-009     434.91  <-- SCF
      5  -3.67492005E+002                    3.26336060E-011     449.48  <-- SCF
      6  -3.67492005E+002                   -9.98967388E-013     464.46  <-- SCF
      7  -3.67492005E+002                    3.22650354E-012     478.96  <-- SCF
------------------------------------------------------------------------ <-- SCF
 
Final energy =  -367.4920047713     eV
(energy not corrected for finite basis set)
 
 For future reference: finite basis dEtot/dlog(Ecut) =      -0.423635eV
 Total energy corrected for finite basis set =    -367.492009 eV
 
+---------------- MEMORY AND SCRATCH DISK ESTIMATES PER PROCESS --------------+
|                                                     Memory          Disk    |
| Model and support data                               90.1 MB         0.0 MB |
| Electronic energy minimisation requirements          80.8 MB         0.0 MB |
| Geometry minimisation requirements                  106.6 MB         0.0 MB |
|                                               ----------------------------- |
| Approx. total storage required per process          277.4 MB         0.0 MB |
|                                                                             |
| Requirements will fluctuate during execution and may exceed these estimates |
+-----------------------------------------------------------------------------+
 

 ******************************** Symmetrised Forces ********************************
 *                                                                                  *
 *                           Cartesian components (eV/A)                            *
 * -------------------------------------------------------------------------------- *
 *                         x                    y                    z              *
 *                                                                                  *
 * H               1     -0.00000             -0.00000              0.00000         *
 * H               2      0.00000              0.00000             -0.00000         *
 * H               3     -0.00000              0.00000              0.00000         *
 * H               4      0.00000             -0.00000             -0.00000         *
 * H               5      0.00000              0.00000              0.00000         *
 * H               6     -0.00000             -0.00000             -0.00000         *
 * H               7      0.00000             -0.00000              0.00000         *
 * H               8     -0.00000              0.00000             -0.00000         *
 * H               9      0.00000              0.00000             -0.00000         *
 * H              10     -0.00000             -0.00000              0.00000         *
 * H              11      0.00000             -0.00000             -0.00000         *
 * H              12     -0.00000              0.00000              0.00000         *
 * H              13     -0.00000             -0.00000             -0.00000         *
 * H              14      0.00000              0.00000              0.00000         *
 * H              15     -0.00000              0.00000             -0.00000         *
 * H              16      0.00000             -0.00000              0.00000         *
 * H              17     -0.00000             -0.00000              0.00000         *
 * H              18      0.00000              0.00000             -0.00000         *
 * H              19     -0.00000              0.00000              0.00000         *
 * H              20      0.00000             -0.00000             -0.00000         *
 * H              21     -0.00000              0.00000              0.00000         *
 * H              22      0.00000             -0.00000             -0.00000         *
 * H              23     -0.00000             -0.00000              0.00000         *
 * H              24      0.00000              0.00000             -0.00000         *
 *                                                                                  *
 ************************************************************************************

 *********** Symmetrised Stress Tensor ***********
 *                                               *
 *          Cartesian components (GPa)           *
 * --------------------------------------------- *
 *             x             y             z     *
 *                                               *
 *  x    -69.994080      0.000000     -0.000010  *
 *  y      0.000000    -69.994071      0.000000  *
 *  z     -0.000010      0.000000    -69.994077  *
 *                                               *
 *  Pressure:   69.9941                          *
 *                                               *
 *************************************************
 LBFGS: finished iteration     0 with enthalpy= -3.43686588E+002 eV
  
 +-----------+-----------------+-----------------+------------+-----+ <-- LBFGS
 | Parameter |      value      |    tolerance    |    units   | OK? | <-- LBFGS
 +-----------+-----------------+-----------------+------------+-----+ <-- LBFGS
 |  dE/ion   |   0.000000E+000 |   1.000000E-009 |         eV | No  | <-- LBFGS
 |  |F|max   |   1.268114E-006 |   1.000000E-005 |       eV/A | Yes | <-- LBFGS
 |  |dR|max  |   0.000000E+000 |   1.000000E-005 |          A | No  | <-- LBFGS
 |   Smax    |   9.994080E+000 |   1.000000E-005 |        GPa | No  | <-- LBFGS
 +-----------+-----------------+-----------------+------------+-----+ <-- LBFGS
  

================================================================================
 Starting LBFGS iteration          1 ...
================================================================================
  
 +------------+-------------+-------------+-----------------+ <-- min LBFGS
 |    Step    |   lambda    |   F.delta'  |    enthalpy     | <-- min LBFGS
 +------------+-------------+-------------+-----------------+ <-- min LBFGS
 |  previous  |    0.000000 |    0.252393 |     -343.686588 | <-- min LBFGS
 +------------+-------------+-------------+-----------------+ <-- min LBFGS
  

--------------------------------------------------------------------------------
 LBFGS: starting iteration         1 with trial guess (lambda=  1.000000)
--------------------------------------------------------------------------------
 
+---------------- MEMORY AND SCRATCH DISK ESTIMATES PER PROCESS --------------+
|                                                     Memory          Disk    |
| Model and support data                               94.5 MB         0.0 MB |
| Electronic energy minimisation requirements          84.1 MB         0.0 MB |
| Geometry minimisation requirements                  110.6 MB         0.0 MB |
|                                               ----------------------------- |
| Approx. total storage required per process          289.2 MB         0.0 MB |
|                                                                             |
| Requirements will fluctuate during execution and may exceed these estimates |
+-----------------------------------------------------------------------------+
 

                           -------------------------------
                                      Unit Cell
                           -------------------------------
        Real Lattice(A)              Reciprocal Lattice(1/A)
     9.4820934     0.0000000     0.0017994        0.662405469   0.000000000   1.219714620
     0.0000000     1.9909555     0.0000000        0.000000000   3.155864327   0.000000000
    -6.3227176     0.0000000     3.4337563       -0.000347127   0.000000000   1.829189386

                       Lattice parameters(A)       Cell Angles
                    a =      9.482094          alpha =   90.000000
                    b =      1.990955          beta  =  151.483523
                    c =      7.194959          gamma =   90.000000

                Current cell volume =            64.846564 A**3

                           -------------------------------
                                     Cell Contents
                           -------------------------------

            xxxxxxxxxxxxxxxxxxxxxxxxxxxxxxxxxxxxxxxxxxxxxxxxxxxxxxxxxxxxxxxxx
            x  Element         Atom        Fractional coordinates of atoms  x
            x                 Number           u          v          w      x
            x---------------------------------------------------------------x
            x  H                 1         0.832432   0.665002   0.099186   x
            x  H                 2         0.167568   0.334998   0.900814   x
            x  H                 3         0.832432   0.834998   0.599186   x
            x  H                 4         0.167568   0.165002   0.400814   x
            x  H                 5         0.884723   0.405855   0.225556   x
            x  H                 6         0.115277   0.594145   0.774444   x
            x  H                 7         0.884723   0.094145   0.725556   x
            x  H                 8         0.115277   0.905855   0.274444   x
            x  H                 9         0.862118   0.126437   0.419090   x
            x  H                10         0.137882   0.873563   0.580910   x
            x  H                11         0.862118   0.373563   0.919090   x
            x  H                12         0.137882   0.626437   0.080910   x
            x  H                13         0.747115   0.907018   0.244919   x
            x  H                14         0.252885   0.092982   0.755081   x
            x  H                15         0.747115   0.592982   0.744919   x
            x  H                16         0.252885   0.407018   0.255081   x
            x  H                17         0.575268   0.385997   0.194694   x
            x  H                18         0.424732   0.614003   0.805306   x
            x  H                19         0.575268   0.114003   0.694694   x
            x  H                20         0.424732   0.885997   0.305306   x
            x  H                21         0.476014   0.605119   0.134384   x
            x  H                22         0.523986   0.394881   0.865616   x
            x  H                23         0.476014   0.894881   0.634384   x
            x  H                24         0.523986   0.105119   0.365616   x
            xxxxxxxxxxxxxxxxxxxxxxxxxxxxxxxxxxxxxxxxxxxxxxxxxxxxxxxxxxxxxxxxx


------------------------------------------------------------------------ <-- SCF
SCF loop      Energy                           Energy gain       Timer   <-- SCF
                                               per atom          (sec)   <-- SCF
------------------------------------------------------------------------ <-- SCF
Initial  -3.68017775E+002                                        492.79  <-- SCF
      1  -3.68032400E+002                    6.09356391E-004     511.39  <-- SCF
      2  -3.68032430E+002                    1.26015465E-006     533.53  <-- SCF
      3  -3.68031957E+002                   -1.97114468E-005     555.76  <-- SCF
      4  -3.68031945E+002                   -5.01880271E-007     577.97  <-- SCF
      5  -3.68031946E+002                    2.28389825E-008     600.17  <-- SCF
      6  -3.68031946E+002                    2.25000688E-009     622.30  <-- SCF
      7  -3.68031946E+002                    7.19216238E-012     637.75  <-- SCF
      8  -3.68031946E+002                    5.13582024E-013     653.24  <-- SCF
------------------------------------------------------------------------ <-- SCF
 
Final energy =  -368.0319456106     eV
(energy not corrected for finite basis set)
 

 ******************************** Symmetrised Forces ********************************
 *                                                                                  *
 *                           Cartesian components (eV/A)                            *
 * -------------------------------------------------------------------------------- *
 *                         x                    y                    z              *
 *                                                                                  *
 * H               1     -0.06130             -0.10408              0.08777         *
 * H               2      0.06130              0.10408             -0.08777         *
 * H               3     -0.06130              0.10408              0.08777         *
 * H               4      0.06130             -0.10408             -0.08777         *
 * H               5      0.06033              0.10342             -0.08643         *
 * H               6     -0.06033             -0.10342              0.08643         *
 * H               7      0.06033             -0.10342             -0.08643         *
 * H               8     -0.06033              0.10342              0.08643         *
 * H               9      0.00163             -0.08727             -0.11854         *
 * H              10     -0.00163              0.08727              0.11854         *
 * H              11      0.00163              0.08727             -0.11854         *
 * H              12     -0.00163             -0.08727              0.11854         *
 * H              13     -0.00244              0.08695              0.11917         *
 * H              14      0.00244             -0.08695             -0.11917         *
 * H              15     -0.00244             -0.08695              0.11917         *
 * H              16      0.00244              0.08695             -0.11917         *
 * H              17     -0.11142              0.08731             -0.04140         *
 * H              18      0.11142             -0.08731              0.04140         *
 * H              19     -0.11142             -0.08731             -0.04140         *
 * H              20      0.11142              0.08731              0.04140         *
 * H              21      0.11147             -0.08802              0.04199         *
 * H              22     -0.11147              0.08802             -0.04199         *
 * H              23      0.11147              0.08802              0.04199         *
 * H              24     -0.11147             -0.08802             -0.04199         *
 *                                                                                  *
 ************************************************************************************

 *********** Symmetrised Stress Tensor ***********
 *                                               *
 *          Cartesian components (GPa)           *
 * --------------------------------------------- *
 *             x             y             z     *
 *                                               *
 *  x    -65.715706      0.000000     -0.040592  *
 *  y      0.000000    -65.150875      0.000000  *
 *  z     -0.040592      0.000000    -65.253500  *
 *                                               *
 *  Pressure:   65.3734                          *
 *                                               *
 *************************************************
  
 +------------+-------------+-------------+-----------------+ <-- min LBFGS
 |    Step    |   lambda    |   F.delta'  |    enthalpy     | <-- min LBFGS
 +------------+-------------+-------------+-----------------+ <-- min LBFGS
 |  previous  |    0.000000 |    0.252393 |     -343.686588 | <-- min LBFGS
 | trial step |    1.000000 |    0.137514 |     -343.747526 | <-- min LBFGS
 +------------+-------------+-------------+-----------------+ <-- min LBFGS
  

--------------------------------------------------------------------------------
 LBFGS: improving iteration         1 with line minimization (lambda=  2.197041)
--------------------------------------------------------------------------------
 
+---------------- MEMORY AND SCRATCH DISK ESTIMATES PER PROCESS --------------+
|                                                     Memory          Disk    |
| Model and support data                               95.5 MB         0.0 MB |
| Electronic energy minimisation requirements          85.7 MB         0.0 MB |
| Geometry minimisation requirements                  112.8 MB         0.0 MB |
|                                               ----------------------------- |
| Approx. total storage required per process          294.0 MB         0.0 MB |
|                                                                             |
| Requirements will fluctuate during execution and may exceed these estimates |
+-----------------------------------------------------------------------------+
 

                           -------------------------------
                                      Unit Cell
                           -------------------------------
        Real Lattice(A)              Reciprocal Lattice(1/A)
     9.5572178     0.0000000     0.0018138        0.657198631   0.000000000   1.210127069
     0.0000000     2.0067293     0.0000000        0.000000000   3.131057723   0.000000000
    -6.3728110     0.0000000     3.4609610       -0.000344413   0.000000000   1.814811073

                       Lattice parameters(A)       Cell Angles
                    a =      9.557218          alpha =   90.000000
                    b =      2.006729          beta  =  151.483523
                    c =      7.251963          gamma =   90.000000

                Current cell volume =            66.400099 A**3

                           -------------------------------
                                     Cell Contents
                           -------------------------------

            xxxxxxxxxxxxxxxxxxxxxxxxxxxxxxxxxxxxxxxxxxxxxxxxxxxxxxxxxxxxxxxxx
            x  Element         Atom        Fractional coordinates of atoms  x
            x                 Number           u          v          w      x
            x---------------------------------------------------------------x
            x  H                 1         0.832432   0.665002   0.099186   x
            x  H                 2         0.167568   0.334998   0.900814   x
            x  H                 3         0.832432   0.834998   0.599186   x
            x  H                 4         0.167568   0.165002   0.400814   x
            x  H                 5         0.884723   0.405855   0.225556   x
            x  H                 6         0.115277   0.594145   0.774444   x
            x  H                 7         0.884723   0.094145   0.725556   x
            x  H                 8         0.115277   0.905855   0.274444   x
            x  H                 9         0.862118   0.126437   0.419090   x
            x  H                10         0.137882   0.873563   0.580910   x
            x  H                11         0.862118   0.373563   0.919090   x
            x  H                12         0.137882   0.626437   0.080910   x
            x  H                13         0.747115   0.907018   0.244919   x
            x  H                14         0.252885   0.092982   0.755081   x
            x  H                15         0.747115   0.592982   0.744919   x
            x  H                16         0.252885   0.407018   0.255081   x
            x  H                17         0.575268   0.385997   0.194694   x
            x  H                18         0.424732   0.614003   0.805306   x
            x  H                19         0.575268   0.114003   0.694694   x
            x  H                20         0.424732   0.885997   0.305306   x
            x  H                21         0.476014   0.605119   0.134384   x
            x  H                22         0.523986   0.394881   0.865616   x
            x  H                23         0.476014   0.894881   0.634384   x
            x  H                24         0.523986   0.105119   0.365616   x
            xxxxxxxxxxxxxxxxxxxxxxxxxxxxxxxxxxxxxxxxxxxxxxxxxxxxxxxxxxxxxxxxx


------------------------------------------------------------------------ <-- SCF
SCF loop      Energy                           Energy gain       Timer   <-- SCF
                                               per atom          (sec)   <-- SCF
------------------------------------------------------------------------ <-- SCF
Initial  -3.68621197E+002                                        667.21  <-- SCF
      1  -3.68640609E+002                    8.08860087E-004     685.35  <-- SCF
      2  -3.68640652E+002                    1.78765977E-006     707.42  <-- SCF
      3  -3.68639976E+002                   -2.81767004E-005     729.62  <-- SCF
      4  -3.68639959E+002                   -7.19576670E-007     751.30  <-- SCF
      5  -3.68639960E+002                    3.40512797E-008     773.28  <-- SCF
      6  -3.68639960E+002                    3.39335526E-009     794.77  <-- SCF
      7  -3.68639960E+002                    1.19775384E-011     810.51  <-- SCF
      8  -3.68639960E+002                    8.37843616E-013     826.24  <-- SCF
      9  -3.68639960E+002                    1.97376621E-013     842.14  <-- SCF
------------------------------------------------------------------------ <-- SCF
 
Final energy =  -368.6399597912     eV
(energy not corrected for finite basis set)
 

 ******************************** Symmetrised Forces ********************************
 *                                                                                  *
 *                           Cartesian components (eV/A)                            *
 * -------------------------------------------------------------------------------- *
 *                         x                    y                    z              *
 *                                                                                  *
 * H               1     -0.13237             -0.22476              0.18953         *
 * H               2      0.13237              0.22476             -0.18953         *
 * H               3     -0.13237              0.22476              0.18953         *
 * H               4      0.13237             -0.22476             -0.18953         *
 * H               5      0.13032              0.22333             -0.18666         *
 * H               6     -0.13032             -0.22333              0.18666         *
 * H               7      0.13032             -0.22333             -0.18666         *
 * H               8     -0.13032              0.22333              0.18666         *
 * H               9      0.00347             -0.18849             -0.25601         *
 * H              10     -0.00347              0.18849              0.25601         *
 * H              11      0.00347              0.18849             -0.25601         *
 * H              12     -0.00347             -0.18849              0.25601         *
 * H              13     -0.00530              0.18783              0.25737         *
 * H              14      0.00530             -0.18783             -0.25737         *
 * H              15     -0.00530             -0.18783              0.25737         *
 * H              16      0.00530              0.18783             -0.25737         *
 * H              17     -0.24061              0.18856             -0.08941         *
 * H              18      0.24061             -0.18856              0.08941         *
 * H              19     -0.24061             -0.18856             -0.08941         *
 * H              20      0.24061              0.18856              0.08941         *
 * H              21      0.24079             -0.19012              0.09064         *
 * H              22     -0.24079              0.19012             -0.09064         *
 * H              23      0.24079              0.19012              0.09064         *
 * H              24     -0.24079             -0.19012             -0.09064         *
 *                                                                                  *
 ************************************************************************************

 *********** Symmetrised Stress Tensor ***********
 *                                               *
 *          Cartesian components (GPa)           *
 * --------------------------------------------- *
 *             x             y             z     *
 *                                               *
 *  x    -60.886861      0.000000     -0.086024  *
 *  y      0.000000    -59.690832      0.000000  *
 *  z     -0.086024      0.000000    -59.908035  *
 *                                               *
 *  Pressure:   60.1619                          *
 *                                               *
 *************************************************
  
 +------------+-------------+-------------+-----------------+ <-- min LBFGS
 |    Step    |   lambda    |   F.delta'  |    enthalpy     | <-- min LBFGS
 +------------+-------------+-------------+-----------------+ <-- min LBFGS
 |  previous  |    0.000000 |    0.252393 |     -343.686588 | <-- min LBFGS
 | trial step |    1.000000 |    0.137514 |     -343.747526 | <-- min LBFGS
 |  line step |    2.197041 |    0.004209 |     -343.773752 | <-- min LBFGS
 +------------+-------------+-------------+-----------------+ <-- min LBFGS
  
 LBFGS: finished iteration     1 with enthalpy= -3.43773752E+002 eV
  
 +-----------+-----------------+-----------------+------------+-----+ <-- LBFGS
 | Parameter |      value      |    tolerance    |    units   | OK? | <-- LBFGS
 +-----------+-----------------+-----------------+------------+-----+ <-- LBFGS
 |  dE/ion   |   3.631860E-003 |   1.000000E-009 |         eV | No  | <-- LBFGS
 |  |F|max   |   3.224241E-001 |   1.000000E-005 |       eV/A | No  | <-- LBFGS
 |  |dR|max  |   2.741791E-007 |   1.000000E-005 |          A | Yes | <-- LBFGS
 |   Smax    |   8.868609E-001 |   1.000000E-005 |        GPa | No  | <-- LBFGS
 +-----------+-----------------+-----------------+------------+-----+ <-- LBFGS
  

================================================================================
 Starting LBFGS iteration          2 ...
================================================================================
  
 +------------+-------------+-------------+-----------------+ <-- min LBFGS
 |    Step    |   lambda    |   F.delta'  |    enthalpy     | <-- min LBFGS
 +------------+-------------+-------------+-----------------+ <-- min LBFGS
 |  previous  |    0.000000 |    0.131295 |     -343.773752 | <-- min LBFGS
 +------------+-------------+-------------+-----------------+ <-- min LBFGS
  

--------------------------------------------------------------------------------
 LBFGS: starting iteration         2 with trial guess (lambda=  1.000000)
--------------------------------------------------------------------------------
 
+---------------- MEMORY AND SCRATCH DISK ESTIMATES PER PROCESS --------------+
|                                                     Memory          Disk    |
| Model and support data                              102.1 MB         0.0 MB |
| Electronic energy minimisation requirements          92.1 MB         0.0 MB |
| Geometry minimisation requirements                  121.1 MB         0.0 MB |
|                                               ----------------------------- |
| Approx. total storage required per process          315.3 MB         0.0 MB |
|                                                                             |
| Requirements will fluctuate during execution and may exceed these estimates |
+-----------------------------------------------------------------------------+
 

                           -------------------------------
                                      Unit Cell
                           -------------------------------
        Real Lattice(A)              Reciprocal Lattice(1/A)
     9.7647071     0.0000000     0.0024177        0.643165221   0.000000000   1.185156999
     0.0000000     2.0486448     0.0000000        0.000000000   3.066996007   0.000000000
    -6.5109612     0.0000000     3.5333916       -0.000440076   0.000000000   1.777419746

                       Lattice parameters(A)       Cell Angles
                    a =      9.764707          alpha =   90.000000
                    b =      2.048645          beta  =  151.497858
                    c =      7.407933          gamma =   90.000000

                Current cell volume =            70.715684 A**3

                           -------------------------------
                                     Cell Contents
                           -------------------------------

            xxxxxxxxxxxxxxxxxxxxxxxxxxxxxxxxxxxxxxxxxxxxxxxxxxxxxxxxxxxxxxxxx
            x  Element         Atom        Fractional coordinates of atoms  x
            x                 Number           u          v          w      x
            x---------------------------------------------------------------x
            x  H                 1         0.834733   0.653629   0.104745   x
            x  H                 2         0.165267   0.346371   0.895255   x
            x  H                 3         0.834733   0.846371   0.604745   x
            x  H                 4         0.165267   0.153629   0.395255   x
            x  H                 5         0.882456   0.417156   0.220080   x
            x  H                 6         0.117544   0.582844   0.779920   x
            x  H                 7         0.882456   0.082844   0.720080   x
            x  H                 8         0.117544   0.917156   0.279920   x
            x  H                 9         0.857148   0.116899   0.411582   x
            x  H                10         0.142852   0.883101   0.588418   x
            x  H                11         0.857148   0.383101   0.911582   x
            x  H                12         0.142852   0.616899   0.088418   x
            x  H                13         0.752092   0.916523   0.252467   x
            x  H                14         0.247908   0.083477   0.747533   x
            x  H                15         0.752092   0.583477   0.752467   x
            x  H                16         0.247908   0.416523   0.247533   x
            x  H                17         0.570964   0.395538   0.192073   x
            x  H                18         0.429036   0.604462   0.807927   x
            x  H                19         0.570964   0.104462   0.692073   x
            x  H                20         0.429036   0.895538   0.307927   x
            x  H                21         0.480344   0.595499   0.137041   x
            x  H                22         0.519656   0.404501   0.862959   x
            x  H                23         0.480344   0.904501   0.637041   x
            x  H                24         0.519656   0.095499   0.362959   x
            xxxxxxxxxxxxxxxxxxxxxxxxxxxxxxxxxxxxxxxxxxxxxxxxxxxxxxxxxxxxxxxxx


------------------------------------------------------------------------ <-- SCF
SCF loop      Energy                           Energy gain       Timer   <-- SCF
                                               per atom          (sec)   <-- SCF
------------------------------------------------------------------------ <-- SCF
Initial  -3.67224454E+002                                        856.78  <-- SCF
      1  -3.70041116E+002                    1.17360896E-001     877.21  <-- SCF
      2  -3.70050178E+002                    3.77584213E-004     901.75  <-- SCF
      3  -3.69826752E+002                   -9.30938584E-003     925.75  <-- SCF
      4  -3.69818664E+002                   -3.37040018E-004     950.24  <-- SCF
      5  -3.69818791E+002                    5.31549537E-006     974.64  <-- SCF
      6  -3.69818805E+002                    5.66368311E-007     998.71  <-- SCF
      7  -3.69818805E+002                    3.32409218E-009    1022.66  <-- SCF
      8  -3.69818805E+002                    2.94848447E-010    1046.23  <-- SCF
      9  -3.69818805E+002                    8.00180934E-012    1063.03  <-- SCF
     10  -3.69818805E+002                    4.41076327E-013    1080.07  <-- SCF
------------------------------------------------------------------------ <-- SCF
 
Final energy =  -369.8188047663     eV
(energy not corrected for finite basis set)
 

 ******************************** Symmetrised Forces ********************************
 *                                                                                  *
 *                           Cartesian components (eV/A)                            *
 * -------------------------------------------------------------------------------- *
 *                         x                    y                    z              *
 *                                                                                  *
 * H               1      0.68009              1.12861             -0.95948         *
 * H               2     -0.68009             -1.12861              0.95948         *
 * H               3      0.68009             -1.12861             -0.95948         *
 * H               4     -0.68009              1.12861              0.95948         *
 * H               5     -0.67661             -1.16597              0.97427         *
 * H               6      0.67661              1.16597             -0.97427         *
 * H               7     -0.67661              1.16597              0.97427         *
 * H               8      0.67661             -1.16597             -0.97427         *
 * H               9     -0.01690              0.92384              1.29133         *
 * H              10      0.01690             -0.92384             -1.29133         *
 * H              11     -0.01690             -0.92384              1.29133         *
 * H              12      0.01690              0.92384             -1.29133         *
 * H              13      0.02918             -0.95026             -1.27852         *
 * H              14     -0.02918              0.95026              1.27852         *
 * H              15      0.02918              0.95026             -1.27852         *
 * H              16     -0.02918             -0.95026              1.27852         *
 * H              17      1.23356             -0.95248              0.45719         *
 * H              18     -1.23356              0.95248             -0.45719         *
 * H              19      1.23356              0.95248              0.45719         *
 * H              20     -1.23356             -0.95248             -0.45719         *
 * H              21     -1.22387              0.95224             -0.45067         *
 * H              22      1.22387             -0.95224              0.45067         *
 * H              23     -1.22387             -0.95224             -0.45067         *
 * H              24      1.22387              0.95224              0.45067         *
 *                                                                                  *
 ************************************************************************************

 *********** Symmetrised Stress Tensor ***********
 *                                               *
 *          Cartesian components (GPa)           *
 * --------------------------------------------- *
 *             x             y             z     *
 *                                               *
 *  x    -60.008928      0.000000      0.417115  *
 *  y      0.000000    -63.403691      0.000000  *
 *  z      0.417115      0.000000    -62.557333  *
 *                                               *
 *  Pressure:   61.9900                          *
 *                                               *
 *************************************************
  
 +------------+-------------+-------------+-----------------+ <-- min LBFGS
 |    Step    |   lambda    |   F.delta'  |    enthalpy     | <-- min LBFGS
 +------------+-------------+-------------+-----------------+ <-- min LBFGS
 |  previous  |    0.000000 |    0.131295 |     -343.773752 | <-- min LBFGS
 | trial step |    1.000000 |   -0.639407 |     -343.336457 | <-- min LBFGS
 +------------+-------------+-------------+-----------------+ <-- min LBFGS
  

--------------------------------------------------------------------------------
 LBFGS: improving iteration         2 with line minimization (lambda=  0.170358)
--------------------------------------------------------------------------------

                           -------------------------------
                                      Unit Cell
                           -------------------------------
        Real Lattice(A)              Reciprocal Lattice(1/A)
     9.5925652     0.0000000     0.0019166        0.654764823   0.000000000   1.205799132
     0.0000000     2.0138699     0.0000000        0.000000000   3.119955870   0.000000000
    -6.3963459     0.0000000     3.4733001       -0.000361313   0.000000000   1.808330396

                       Lattice parameters(A)       Cell Angles
                    a =      9.592565          alpha =   90.000000
                    b =      2.013870          beta  =  151.486009
                    c =      7.278534          gamma =   90.000000

                Current cell volume =            67.122521 A**3

                           -------------------------------
                                     Cell Contents
                           -------------------------------

            xxxxxxxxxxxxxxxxxxxxxxxxxxxxxxxxxxxxxxxxxxxxxxxxxxxxxxxxxxxxxxxxx
            x  Element         Atom        Fractional coordinates of atoms  x
            x                 Number           u          v          w      x
            x---------------------------------------------------------------x
            x  H                 1         0.832824   0.663065   0.100133   x
            x  H                 2         0.167176   0.336935   0.899867   x
            x  H                 3         0.832824   0.836935   0.600133   x
            x  H                 4         0.167176   0.163065   0.399867   x
            x  H                 5         0.884337   0.407780   0.224623   x
            x  H                 6         0.115663   0.592220   0.775377   x
            x  H                 7         0.884337   0.092220   0.724623   x
            x  H                 8         0.115663   0.907780   0.275377   x
            x  H                 9         0.861271   0.124812   0.417811   x
            x  H                10         0.138729   0.875188   0.582189   x
            x  H                11         0.861271   0.375188   0.917811   x
            x  H                12         0.138729   0.624812   0.082189   x
            x  H                13         0.747963   0.908637   0.246205   x
            x  H                14         0.252037   0.091363   0.753795   x
            x  H                15         0.747963   0.591363   0.746205   x
            x  H                16         0.252037   0.408637   0.253795   x
            x  H                17         0.574535   0.387622   0.194248   x
            x  H                18         0.425465   0.612378   0.805752   x
            x  H                19         0.574535   0.112378   0.694248   x
            x  H                20         0.425465   0.887622   0.305752   x
            x  H                21         0.476752   0.603480   0.134837   x
            x  H                22         0.523248   0.396520   0.865163   x
            x  H                23         0.476752   0.896520   0.634837   x
            x  H                24         0.523248   0.103480   0.365163   x
            xxxxxxxxxxxxxxxxxxxxxxxxxxxxxxxxxxxxxxxxxxxxxxxxxxxxxxxxxxxxxxxxx


------------------------------------------------------------------------ <-- SCF
SCF loop      Energy                           Energy gain       Timer   <-- SCF
                                               per atom          (sec)   <-- SCF
------------------------------------------------------------------------ <-- SCF
Initial  -3.67027677E+002                                       1095.60  <-- SCF
      1  -3.69097795E+002                    8.62549247E-002    1115.80  <-- SCF
      2  -3.69104193E+002                    2.66586854E-004    1140.07  <-- SCF
      3  -3.68941348E+002                   -6.78521896E-003    1163.85  <-- SCF
      4  -3.68935754E+002                   -2.33090008E-004    1187.51  <-- SCF
      5  -3.68935810E+002                    2.35280773E-006    1211.36  <-- SCF
      6  -3.68935815E+002                    2.16963262E-007    1235.73  <-- SCF
      7  -3.68935815E+002                    1.04817862E-009    1259.44  <-- SCF
      8  -3.68935815E+002                    1.46644787E-010    1276.84  <-- SCF
      9  -3.68935815E+002                    6.22944784E-012    1294.24  <-- SCF
     10  -3.68935815E+002                   -5.43792731E-014    1311.63  <-- SCF
------------------------------------------------------------------------ <-- SCF
 
Final energy =  -368.9358153422     eV
(energy not corrected for finite basis set)
 

 ******************************** Symmetrised Forces ********************************
 *                                                                                  *
 *                           Cartesian components (eV/A)                            *
 * -------------------------------------------------------------------------------- *
 *                         x                    y                    z              *
 *                                                                                  *
 * H               1     -0.01822             -0.03657              0.02894         *
 * H               2      0.01822              0.03657             -0.02894         *
 * H               3     -0.01822              0.03657              0.02894         *
 * H               4      0.01822             -0.03657             -0.02894         *
 * H               5      0.01726              0.02763             -0.02367         *
 * H               6     -0.01726             -0.02763              0.02367         *
 * H               7      0.01726             -0.02763             -0.02367         *
 * H               8     -0.01726              0.02763              0.02367         *
 * H               9      0.00117             -0.03380             -0.03919         *
 * H              10     -0.00117              0.03380              0.03919         *
 * H              11      0.00117              0.03380             -0.03919         *
 * H              12     -0.00117             -0.03380              0.03919         *
 * H              13      0.00006              0.02760              0.04303         *
 * H              14     -0.00006             -0.02760             -0.04303         *
 * H              15      0.00006             -0.02760              0.04303         *
 * H              16     -0.00006              0.02760             -0.04303         *
 * H              17     -0.03370              0.02874             -0.01247         *
 * H              18      0.03370             -0.02874              0.01247         *
 * H              19     -0.03370             -0.02874             -0.01247         *
 * H              20      0.03370              0.02874              0.01247         *
 * H              21      0.03565             -0.02973              0.01491         *
 * H              22     -0.03565              0.02973             -0.01491         *
 * H              23      0.03565              0.02973              0.01491         *
 * H              24     -0.03565             -0.02973             -0.01491         *
 *                                                                                  *
 ************************************************************************************

 *********** Symmetrised Stress Tensor ***********
 *                                               *
 *          Cartesian components (GPa)           *
 * --------------------------------------------- *
 *             x             y             z     *
 *                                               *
 *  x    -60.545933      0.000000     -0.011139  *
 *  y      0.000000    -60.023411      0.000000  *
 *  z     -0.011139      0.000000    -60.089272  *
 *                                               *
 *  Pressure:   60.2195                          *
 *                                               *
 *************************************************
  
 +------------+-------------+-------------+-----------------+ <-- min LBFGS
 |    Step    |   lambda    |   F.delta'  |    enthalpy     | <-- min LBFGS
 +------------+-------------+-------------+-----------------+ <-- min LBFGS
 |  previous  |    0.000000 |    0.131295 |     -343.773752 | <-- min LBFGS
 | trial step |    1.000000 |   -0.639407 |     -343.336457 | <-- min LBFGS
 |  line step |    0.170358 |    0.022500 |     -343.799079 | <-- min LBFGS
 +------------+-------------+-------------+-----------------+ <-- min LBFGS
  
 LBFGS: finished iteration     2 with enthalpy= -3.43799079E+002 eV
  
 +-----------+-----------------+-----------------+------------+-----+ <-- LBFGS
 | Parameter |      value      |    tolerance    |    units   | OK? | <-- LBFGS
 +-----------+-----------------+-----------------+------------+-----+ <-- LBFGS
 |  dE/ion   |   1.055277E-003 |   1.000000E-009 |         eV | No  | <-- LBFGS
 |  |F|max   |   5.176716E-002 |   1.000000E-005 |       eV/A | No  | <-- LBFGS
 |  |dR|max  |   5.597564E-003 |   1.000000E-005 |          A | No  | <-- LBFGS
 |   Smax    |   5.459330E-001 |   1.000000E-005 |        GPa | No  | <-- LBFGS
 +-----------+-----------------+-----------------+------------+-----+ <-- LBFGS
  

================================================================================
 Starting LBFGS iteration          3 ...
================================================================================
  
 +------------+-------------+-------------+-----------------+ <-- min LBFGS
 |    Step    |   lambda    |   F.delta'  |    enthalpy     | <-- min LBFGS
 +------------+-------------+-------------+-----------------+ <-- min LBFGS
 |  previous  |    0.000000 |    0.019600 |     -343.799079 | <-- min LBFGS
 +------------+-------------+-------------+-----------------+ <-- min LBFGS
  

--------------------------------------------------------------------------------
 LBFGS: starting iteration         3 with trial guess (lambda=  1.000000)
--------------------------------------------------------------------------------

                           -------------------------------
                                      Unit Cell
                           -------------------------------
        Real Lattice(A)              Reciprocal Lattice(1/A)
     9.6050715     0.0000000     0.0019250        0.653911479   0.000000000   1.204562904
     0.0000000     2.0158703     0.0000000        0.000000000   3.116859828   0.000000000
    -6.4046829     0.0000000     3.4768592       -0.000362044   0.000000000   1.806477082

                       Lattice parameters(A)       Cell Angles
                    a =      9.605072          alpha =   90.000000
                    b =      2.015870          beta  =  151.492662
                    c =      7.287559          gamma =   90.000000

                Current cell volume =            67.345815 A**3

                           -------------------------------
                                     Cell Contents
                           -------------------------------

            xxxxxxxxxxxxxxxxxxxxxxxxxxxxxxxxxxxxxxxxxxxxxxxxxxxxxxxxxxxxxxxxx
            x  Element         Atom        Fractional coordinates of atoms  x
            x                 Number           u          v          w      x
            x---------------------------------------------------------------x
            x  H                 1         0.832938   0.662491   0.100347   x
            x  H                 2         0.167062   0.337509   0.899653   x
            x  H                 3         0.832938   0.837509   0.600347   x
            x  H                 4         0.167062   0.162491   0.399653   x
            x  H                 5         0.884328   0.407826   0.224580   x
            x  H                 6         0.115672   0.592174   0.775420   x
            x  H                 7         0.884328   0.092174   0.724580   x
            x  H                 8         0.115672   0.907826   0.275420   x
            x  H                 9         0.861086   0.124142   0.417518   x
            x  H                10         0.138914   0.875858   0.582482   x
            x  H                11         0.861086   0.375858   0.917518   x
            x  H                12         0.138914   0.624142   0.082482   x
            x  H                13         0.748253   0.908938   0.246627   x
            x  H                14         0.251747   0.091062   0.753373   x
            x  H                15         0.748253   0.591062   0.746627   x
            x  H                16         0.251747   0.408938   0.253373   x
            x  H                17         0.574435   0.387987   0.194188   x
            x  H                18         0.425565   0.612013   0.805812   x
            x  H                19         0.574435   0.112013   0.694188   x
            x  H                20         0.425565   0.887987   0.305812   x
            x  H                21         0.476930   0.603067   0.134977   x
            x  H                22         0.523070   0.396933   0.865023   x
            x  H                23         0.476930   0.896933   0.634977   x
            x  H                24         0.523070   0.103067   0.365023   x
            xxxxxxxxxxxxxxxxxxxxxxxxxxxxxxxxxxxxxxxxxxxxxxxxxxxxxxxxxxxxxxxxx


------------------------------------------------------------------------ <-- SCF
SCF loop      Energy                           Energy gain       Timer   <-- SCF
                                               per atom          (sec)   <-- SCF
------------------------------------------------------------------------ <-- SCF
Initial  -3.69015145E+002                                       1327.26  <-- SCF
      1  -3.69020560E+002                    2.25630831E-004    1347.26  <-- SCF
      2  -3.69020578E+002                    7.39976783E-007    1371.41  <-- SCF
      3  -3.69020186E+002                   -1.63242556E-005    1395.68  <-- SCF
      4  -3.69020172E+002                   -5.55822407E-007    1419.36  <-- SCF
      5  -3.69020173E+002                    6.23917972E-009    1443.25  <-- SCF
      6  -3.69020173E+002                    6.88493963E-010    1466.79  <-- SCF
      7  -3.69020173E+002                    3.35540256E-012    1483.74  <-- SCF
      8  -3.69020173E+002                    2.24767662E-012    1500.78  <-- SCF
------------------------------------------------------------------------ <-- SCF
 
Final energy =  -369.0201725695     eV
(energy not corrected for finite basis set)
 

 ******************************** Symmetrised Forces ********************************
 *                                                                                  *
 *                           Cartesian components (eV/A)                            *
 * -------------------------------------------------------------------------------- *
 *                         x                    y                    z              *
 *                                                                                  *
 * H               1     -0.00795             -0.01818              0.01357         *
 * H               2      0.00795              0.01818             -0.01357         *
 * H               3     -0.00795              0.01818              0.01357         *
 * H               4      0.00795             -0.01818             -0.01357         *
 * H               5      0.00654              0.00916             -0.00938         *
 * H               6     -0.00654             -0.00916              0.00938         *
 * H               7      0.00654             -0.00916             -0.00938         *
 * H               8     -0.00654              0.00916              0.00938         *
 * H               9     -0.00087              0.01544              0.02769         *
 * H              10      0.00087             -0.01544             -0.02769         *
 * H              11     -0.00087             -0.01544              0.02769         *
 * H              12      0.00087              0.01544             -0.02769         *
 * H              13      0.00140             -0.02171             -0.02503         *
 * H              14     -0.00140              0.02171              0.02503         *
 * H              15      0.00140              0.02171             -0.02503         *
 * H              16     -0.00140             -0.02171              0.02503         *
 * H              17     -0.00057              0.00295             -0.00042         *
 * H              18      0.00057             -0.00295              0.00042         *
 * H              19     -0.00057             -0.00295             -0.00042         *
 * H              20      0.00057              0.00295              0.00042         *
 * H              21      0.00192             -0.00360              0.00214         *
 * H              22     -0.00192              0.00360             -0.00214         *
 * H              23      0.00192              0.00360              0.00214         *
 * H              24     -0.00192             -0.00360             -0.00214         *
 *                                                                                  *
 ************************************************************************************

 *********** Symmetrised Stress Tensor ***********
 *                                               *
 *          Cartesian components (GPa)           *
 * --------------------------------------------- *
 *             x             y             z     *
 *                                               *
 *  x    -60.189226      0.000000     -0.025086  *
 *  y      0.000000    -59.874164      0.000000  *
 *  z     -0.025086      0.000000    -60.002959  *
 *                                               *
 *  Pressure:   60.0221                          *
 *                                               *
 *************************************************
  
 +------------+-------------+-------------+-----------------+ <-- min LBFGS
 |    Step    |   lambda    |   F.delta'  |    enthalpy     | <-- min LBFGS
 +------------+-------------+-------------+-----------------+ <-- min LBFGS
 |  previous  |    0.000000 |    0.019600 |     -343.799079 | <-- min LBFGS
 | trial step |    1.000000 |   -0.001841 |     -343.799814 | <-- min LBFGS
 +------------+-------------+-------------+-----------------+ <-- min LBFGS
  
 LBFGS: finished iteration     3 with enthalpy= -3.43799814E+002 eV
  
 +-----------+-----------------+-----------------+------------+-----+ <-- LBFGS
 | Parameter |      value      |    tolerance    |    units   | OK? | <-- LBFGS
 +-----------+-----------------+-----------------+------------+-----+ <-- LBFGS
 |  dE/ion   |   3.060038E-005 |   1.000000E-009 |         eV | No  | <-- LBFGS
 |  |F|max   |   3.316455E-002 |   1.000000E-005 |       eV/A | No  | <-- LBFGS
 |  |dR|max  |   1.695585E-003 |   1.000000E-005 |          A | No  | <-- LBFGS
 |   Smax    |   1.892263E-001 |   1.000000E-005 |        GPa | No  | <-- LBFGS
 +-----------+-----------------+-----------------+------------+-----+ <-- LBFGS
  

================================================================================
 Starting LBFGS iteration          4 ...
================================================================================
  
 +------------+-------------+-------------+-----------------+ <-- min LBFGS
 |    Step    |   lambda    |   F.delta'  |    enthalpy     | <-- min LBFGS
 +------------+-------------+-------------+-----------------+ <-- min LBFGS
 |  previous  |    0.000000 |    0.008815 |     -343.799814 | <-- min LBFGS
 +------------+-------------+-------------+-----------------+ <-- min LBFGS
  

--------------------------------------------------------------------------------
 LBFGS: starting iteration         4 with trial guess (lambda=  1.000000)
--------------------------------------------------------------------------------

                           -------------------------------
                                      Unit Cell
                           -------------------------------
        Real Lattice(A)              Reciprocal Lattice(1/A)
     9.6130111     0.0000000     0.0020833        0.653351708   0.000000000   1.203886393
     0.0000000     2.0167855     0.0000000        0.000000000   3.115445529   0.000000000
    -6.4099201     0.0000000     3.4786773       -0.000391283   0.000000000   1.805478566

                       Lattice parameters(A)       Cell Angles
                    a =      9.613011          alpha =   90.000000
                    b =      2.016785          beta  =  151.498805
                    c =      7.293029          gamma =   90.000000

                Current cell volume =            67.469374 A**3

                           -------------------------------
                                     Cell Contents
                           -------------------------------

            xxxxxxxxxxxxxxxxxxxxxxxxxxxxxxxxxxxxxxxxxxxxxxxxxxxxxxxxxxxxxxxxx
            x  Element         Atom        Fractional coordinates of atoms  x
            x                 Number           u          v          w      x
            x---------------------------------------------------------------x
            x  H                 1         0.833181   0.661260   0.100866   x
            x  H                 2         0.166819   0.338740   0.899134   x
            x  H                 3         0.833181   0.838740   0.600866   x
            x  H                 4         0.166819   0.161260   0.399134   x
            x  H                 5         0.884205   0.408352   0.224269   x
            x  H                 6         0.115795   0.591648   0.775731   x
            x  H                 7         0.884205   0.091648   0.724269   x
            x  H                 8         0.115795   0.908352   0.275731   x
            x  H                 9         0.861427   0.124407   0.418035   x
            x  H                10         0.138573   0.875593   0.581965   x
            x  H                11         0.861427   0.375593   0.918035   x
            x  H                12         0.138573   0.624407   0.081965   x
            x  H                13         0.748020   0.908182   0.246251   x
            x  H                14         0.251980   0.091818   0.753749   x
            x  H                15         0.748020   0.591818   0.746251   x
[...]
 ************************************************************************************

 *********** Symmetrised Stress Tensor ***********
 *                                               *
 *          Cartesian components (GPa)           *
 * --------------------------------------------- *
 *             x             y             z     *
 *                                               *
 *  x    -60.000004      0.000000     -0.000008  *
 *  y      0.000000    -59.999995      0.000000  *
 *  z     -0.000008      0.000000    -60.000002  *
 *                                               *
 *  Pressure:   60.0000                          *
 *                                               *
 *************************************************
  
 +------------+-------------+-------------+-----------------+ <-- min LBFGS
 |    Step    |   lambda    |   F.delta'  |    enthalpy     | <-- min LBFGS
 +------------+-------------+-------------+-----------------+ <-- min LBFGS
 |  previous  |    0.000000 |  3.547E-007 |     -343.800166 | <-- min LBFGS
 | trial step |    1.000000 |  1.741E-007 |     -343.800166 | <-- min LBFGS
 |  line step |    1.963375 |  6.534E-008 |     -343.800166 | <-- min LBFGS
 +------------+-------------+-------------+-----------------+ <-- min LBFGS
  
 LBFGS: finished iteration    30 with enthalpy= -3.43800166E+002 eV
  
 +-----------+-----------------+-----------------+------------+-----+ <-- LBFGS
 | Parameter |      value      |    tolerance    |    units   | OK? | <-- LBFGS
 +-----------+-----------------+-----------------+------------+-----+ <-- LBFGS
 |  dE/ion   |   2.265803E-013 |   1.000000E-009 |         eV | Yes | <-- LBFGS
 |  |F|max   |   5.383975E-007 |   1.000000E-005 |       eV/A | Yes | <-- LBFGS
 |  |dR|max  |   1.412698E-006 |   1.000000E-005 |          A | Yes | <-- LBFGS
 |   Smax    |   7.794378E-006 |   1.000000E-005 |        GPa | Yes | <-- LBFGS
 +-----------+-----------------+-----------------+------------+-----+ <-- LBFGS
  
 LBFGS: Geometry optimization completed successfully.

================================================================================
 LBFGS: Final Configuration:
================================================================================

                           -------------------------------
                                      Unit Cell
                           -------------------------------
        Real Lattice(A)              Reciprocal Lattice(1/A)
     9.6177220     0.0000000     0.0015268        0.653101097   0.000000000   1.205435576
     0.0000000     2.0149483     0.0000000        0.000000000   3.118286161   0.000000000
    -6.4132621     0.0000000     3.4746847       -0.000286985   0.000000000   1.807745284

                       Lattice parameters(A)       Cell Angles
                    a =      9.617722          alpha =   90.000000
                    b =      2.014948          beta  =  151.542213
                    c =      7.294064          gamma =   90.000000

                Current cell volume =            67.356382 A**3

                           -------------------------------
                                     Cell Contents
                           -------------------------------

            xxxxxxxxxxxxxxxxxxxxxxxxxxxxxxxxxxxxxxxxxxxxxxxxxxxxxxxxxxxxxxxxx
            x  Element         Atom        Fractional coordinates of atoms  x
            x                 Number           u          v          w      x
            x---------------------------------------------------------------x
            x  H                 1         0.833949   0.659165   0.101315   x
            x  H                 2         0.166051   0.340835   0.898685   x
            x  H                 3         0.833949   0.840835   0.601315   x
            x  H                 4         0.166051   0.159165   0.398685   x
            x  H                 5         0.883669   0.406014   0.224479   x
            x  H                 6         0.116331   0.593986   0.775521   x
            x  H                 7         0.883669   0.093986   0.724479   x
            x  H                 8         0.116331   0.906014   0.275521   x
            x  H                 9         0.861064   0.122743   0.417782   x
            x  H                10         0.138936   0.877257   0.582218   x
            x  H                11         0.861064   0.377257   0.917782   x
            x  H                12         0.138936   0.622743   0.082218   x
            x  H                13         0.748113   0.907922   0.246271   x
            x  H                14         0.251887   0.092078   0.753729   x
            x  H                15         0.748113   0.592078   0.746271   x
            x  H                16         0.251887   0.407922   0.253729   x
            x  H                17         0.574603   0.389160   0.194071   x
            x  H                18         0.425397   0.610840   0.805929   x
            x  H                19         0.574603   0.110840   0.694071   x
            x  H                20         0.425397   0.889160   0.305929   x
            x  H                21         0.477389   0.602142   0.135901   x
            x  H                22         0.522611   0.397858   0.864099   x
            x  H                23         0.477389   0.897858   0.635901   x
            x  H                24         0.522611   0.102142   0.364099   x
            xxxxxxxxxxxxxxxxxxxxxxxxxxxxxxxxxxxxxxxxxxxxxxxxxxxxxxxxxxxxxxxxx


 LBFGS: Final Enthalpy     = -3.43800166E+002 eV
 LBFGS: Final <frequency>  =     797.60147 cm-1
 LBFGS: Final bulk modulus =     163.35544 GPa

 ******************************** Symmetrised Forces ********************************
 *                                                                                  *
 *                           Cartesian components (eV/A)                            *
 * -------------------------------------------------------------------------------- *
 *                         x                    y                    z              *
 *                                                                                  *
 * H               1     -0.00000              0.00000              0.00000         *
 * H               2      0.00000             -0.00000             -0.00000         *
 * H               3     -0.00000             -0.00000              0.00000         *
 * H               4      0.00000              0.00000             -0.00000         *
 * H               5      0.00000             -0.00000              0.00000         *
 * H               6     -0.00000              0.00000             -0.00000         *
 * H               7      0.00000              0.00000              0.00000         *
 * H               8     -0.00000             -0.00000             -0.00000         *
 * H               9      0.00000              0.00000             -0.00000         *
 * H              10     -0.00000             -0.00000              0.00000         *
 * H              11      0.00000             -0.00000             -0.00000         *
 * H              12     -0.00000              0.00000              0.00000         *
 * H              13      0.00000             -0.00000              0.00000         *
 * H              14     -0.00000              0.00000             -0.00000         *
 * H              15      0.00000              0.00000              0.00000         *
 * H              16     -0.00000             -0.00000             -0.00000         *
 * H              17     -0.00000             -0.00000             -0.00000         *
 * H              18      0.00000              0.00000              0.00000         *
 * H              19     -0.00000              0.00000             -0.00000         *
 * H              20      0.00000             -0.00000              0.00000         *
 * H              21      0.00000              0.00000              0.00000         *
 * H              22     -0.00000             -0.00000             -0.00000         *
 * H              23      0.00000             -0.00000              0.00000         *
 * H              24     -0.00000              0.00000             -0.00000         *
 *                                                                                  *
 ************************************************************************************

 *********** Symmetrised Stress Tensor ***********
 *                                               *
 *          Cartesian components (GPa)           *
 * --------------------------------------------- *
 *             x             y             z     *
 *                                               *
 *  x    -60.000004      0.000000     -0.000008  *
 *  y      0.000000    -59.999995      0.000000  *
 *  z     -0.000008      0.000000    -60.000002  *
 *                                               *
 *  Pressure:   60.0000                          *
 *                                               *
 *************************************************

 Pseudo atomic calculation performed for H 1s1

 Converged in 24 iterations to a total energy of -12.4843 eV

Charge spilling parameter for spin component 1 = 0.60%

            Orbital Populations       
     Ion    Atom   Orbital             Charge
  -------------------------------------------
      H     1      S                    0.986
      H     2      S                    0.986
      H     3      S                    0.986
      H     4      S                    0.986
      H     5      S                    1.013
      H     6      S                    1.013
      H     7      S                    1.014
      H     8      S                    1.014
      H     9      S                    1.009
      H    10      S                    1.009
      H    11      S                    1.009
      H    12      S                    1.009
      H    13      S                    0.992
      H    14      S                    0.992
      H    15      S                    0.991
      H    16      S                    0.991
      H    17      S                    1.001
      H    18      S                    1.001
      H    19      S                    1.002
      H    20      S                    1.002
      H    21      S                    0.997
      H    22      S                    0.997
      H    23      S                    0.998
      H    24      S                    0.998
  -------------------------------------------
                           Total:      24.000
  -------------------------------------------

     Atomic Populations (Mulliken)
     -----------------------------
Species          Ion     s      p      d      f     Total  Charge (e)
=====================================================================
  H               1     0.99   0.00   0.00   0.00   0.99     0.01
  H               2     0.99   0.00   0.00   0.00   0.99     0.01
  H               3     0.99   0.00   0.00   0.00   0.99     0.01
  H               4     0.99   0.00   0.00   0.00   0.99     0.01
  H               5     1.01   0.00   0.00   0.00   1.01    -0.01
  H               6     1.01   0.00   0.00   0.00   1.01    -0.01
  H               7     1.01   0.00   0.00   0.00   1.01    -0.01
  H               8     1.01   0.00   0.00   0.00   1.01    -0.01
  H               9     1.01   0.00   0.00   0.00   1.01    -0.01
  H              10     1.01   0.00   0.00   0.00   1.01    -0.01
  H              11     1.01   0.00   0.00   0.00   1.01    -0.01
  H              12     1.01   0.00   0.00   0.00   1.01    -0.01
  H              13     0.99   0.00   0.00   0.00   0.99     0.01
  H              14     0.99   0.00   0.00   0.00   0.99     0.01
  H              15     0.99   0.00   0.00   0.00   0.99     0.01
  H              16     0.99   0.00   0.00   0.00   0.99     0.01
  H              17     1.00   0.00   0.00   0.00   1.00    -0.00
  H              18     1.00   0.00   0.00   0.00   1.00    -0.00
  H              19     1.00   0.00   0.00   0.00   1.00    -0.00
  H              20     1.00   0.00   0.00   0.00   1.00    -0.00
  H              21     1.00   0.00   0.00   0.00   1.00     0.00
  H              22     1.00   0.00   0.00   0.00   1.00     0.00
  H              23     1.00   0.00   0.00   0.00   1.00     0.00
  H              24     1.00   0.00   0.00   0.00   1.00     0.00
=====================================================================

                 Bond                   Population      Length (A)
======================================================================
              H 2  -- H 6                    1.33        0.73522
              H 4  -- H 8                    1.33        0.73522
              H 1  -- H 5                    1.33        0.73522
              H 3  -- H 7                    1.33        0.73522
              H 19 -- H 23                   1.34        0.73541
              H 17 -- H 21                   1.34        0.73541
              H 18 -- H 22                   1.34        0.73541
              H 20 -- H 24                   1.34        0.73541
              H 9  -- H 13                   1.33        0.73682
              H 11 -- H 15                   1.33        0.73682
              H 10 -- H 14                   1.33        0.73682
              H 12 -- H 16                   1.33        0.73682
              H 7  -- H 12                  -0.11        1.57276
              H 6  -- H 9                   -0.11        1.57276
              H 5  -- H 10                  -0.11        1.57276
              H 8  -- H 11                  -0.11        1.57276
              H 11 -- H 19                  -0.12        1.62373
              H 9  -- H 17                  -0.12        1.62373
              H 10 -- H 18                  -0.12        1.62373
              H 12 -- H 20                  -0.12        1.62373
              H 21 -- H 24                  -0.13        1.64371
              H 22 -- H 23                  -0.13        1.64371
              H 14 -- H 18                  -0.11        1.65916
              H 16 -- H 20                  -0.11        1.65916
              H 15 -- H 19                  -0.11        1.65916
              H 13 -- H 17                  -0.11        1.65916
              H 16 -- H 19                  -0.10        1.66708
              H 14 -- H 17                  -0.10        1.66708
              H 13 -- H 18                  -0.10        1.66708
              H 15 -- H 20                  -0.10        1.66708
              H 1  -- H 11                  -0.07        1.67232
              H 3  -- H 9                   -0.07        1.67232
              H 4  -- H 10                  -0.07        1.67232
              H 2  -- H 12                  -0.07        1.67232
              H 13 -- H 22                  -0.11        1.67883
              H 16 -- H 23                  -0.11        1.67883
              H 15 -- H 24                  -0.11        1.67883
              H 14 -- H 21                  -0.11        1.67883
              H 4  -- H 18                  -0.13        1.68688
              H 1  -- H 19                  -0.13        1.68688
              H 3  -- H 17                  -0.13        1.68688
              H 2  -- H 20                  -0.13        1.68688
              H 6  -- H 10                  -0.13        1.70295
              H 8  -- H 12                  -0.13        1.70295
              H 7  -- H 11                  -0.13        1.70295
              H 5  -- H 9                   -0.13        1.70295
              H 7  -- H 24                  -0.05        1.70833
              H 5  -- H 22                  -0.05        1.70833
              H 6  -- H 21                  -0.05        1.70833
              H 8  -- H 23                  -0.05        1.70833
              H 2  -- H 9                   -0.15        1.73483
              H 3  -- H 12                  -0.15        1.73483
              H 1  -- H 10                  -0.15        1.73483
              H 4  -- H 11                  -0.15        1.73483
              H 4  -- H 22                  -0.13        1.74524
              H 2  -- H 24                  -0.13        1.74524
              H 3  -- H 21                  -0.13        1.74524
              H 1  -- H 23                  -0.13        1.74524
              H 7  -- H 15                  -0.12        1.75973
              H 5  -- H 13                  -0.12        1.75973
              H 6  -- H 14                  -0.12        1.75973
              H 8  -- H 16                  -0.12        1.75973
              H 2  -- H 21                  -0.05        1.76840
              H 3  -- H 24                  -0.05        1.76840
              H 1  -- H 22                  -0.05        1.76840
              H 4  -- H 23                  -0.05        1.76840
              H 17 -- H 18                  -0.07        1.76931
              H 19 -- H 20                  -0.07        1.76931
              H 1  -- H 8                   -0.11        1.78044
              H 3  -- H 6                   -0.11        1.78044
              H 4  -- H 5                   -0.11        1.78044
              H 2  -- H 7                   -0.11        1.78044
              H 9  -- H 10                  -0.04        1.78585
              H 11 -- H 12                  -0.04        1.78585
              H 17 -- H 24                  -0.14        1.79250
              H 19 -- H 22                  -0.14        1.79250
              H 20 -- H 21                  -0.14        1.79250
              H 18 -- H 23                  -0.14        1.79250
              H 2  -- H 14                  -0.13        1.89353
              H 3  -- H 15                  -0.13        1.89353
              H 4  -- H 16                  -0.13        1.89353
              H 1  -- H 13                  -0.13        1.89353
              H 4  -- H 14                  -0.07        1.90977
              H 1  -- H 15                  -0.07        1.90977
              H 3  -- H 13                  -0.07        1.90977
              H 2  -- H 16                  -0.07        1.90977
              H 1  -- H 4                   -0.13        1.93389
              H 2  -- H 3                   -0.13        1.93389
              H 7  -- H 16                  -0.11        1.95082
              H 6  -- H 13                  -0.11        1.95082
              H 5  -- H 14                  -0.11        1.95082
              H 8  -- H 15                  -0.11        1.95082
              H 20 -- H 23                  -0.06        1.98167
              H 18 -- H 21                  -0.06        1.98167
              H 17 -- H 22                  -0.06        1.98167
              H 19 -- H 24                  -0.06        1.98167
              H 8  -- H 18                  -0.11        1.98401
              H 5  -- H 19                  -0.11        1.98401
              H 6  -- H 20                  -0.11        1.98401
              H 7  -- H 17                  -0.11        1.98401
              H 12 -- H 15                  -0.06        1.98535
              H 10 -- H 13                  -0.06        1.98535
              H 11 -- H 16                  -0.06        1.98535
              H 9  -- H 14                  -0.06        1.98535
======================================================================


Writing analysis data to P21c.castep_bin

Writing model to P21c.check
 
 A BibTeX formatted list of references used in this run has been written to 
 P21c.bib
 
Initialisation time =      3.82 s
Calculation time    =   8046.03 s
Finalisation time   =     19.29 s
Total time          =   8069.14 s
Peak Memory Use     = 669248 kB
  
Overall parallel efficiency rating: Excellent (96%)                             
  
Data was distributed by:-
k-point (16-way); efficiency rating: Excellent (96%)                            
