 +-------------------------------------------------+
 |                                                 |
 |      CCC   AA    SSS  TTTTT  EEEEE  PPPP        |
 |     C     A  A  S       T    E      P   P       |
 |     C     AAAA   SS     T    EEE    PPPP        |
 |     C     A  A     S    T    E      P           |
 |      CCC  A  A  SSS     T    EEEEE  P           |
 |                                                 |
 +-------------------------------------------------+
 |                                                 |
 | Welcome to Academic Release CASTEP version 18.1 |          
 | Ab Initio Total Energy Program                  |
 |                                                 |
 | Authors:                                        |
 | M. Segall, M. Probert, C. Pickard, P. Hasnip,   |
 | S. Clark, K. Refson, J. R. Yates, M. Payne      |
 |                                                 |
 | Contributors:                                   |
 | P. Lindan, P. Haynes, J. White, V. Milman,      |
 | N. Govind, M. Gibson, P. Tulip, V. Cocula,      |
 | B. Montanari, D. Quigley, M. Glover,            |
 | L. Bernasconi, A. Perlov, M. Plummer,           |
 | E. McNellis, J. Meyer, J. Gale, D. Jochym       |
 | J. Aarons, B. Walker, R. Gillen, D. Jones       |
 | T. Green, I. J. Bush, C. J. Armstrong,          |
 | E. J. Higgins, E. L. Brown, M. S. McFly,        |
 | J. Wilkins, B-C. Shih, P. J. P. Byrne           |
 |                                                 |
 | Copyright (c) 2000 - 2017                       |
 |                                                 |
 |     Distributed under the terms of an           |
 |     Agreement between the United Kingdom        |
 |     Car-Parrinello (UKCP) Consortium,           |
 |     Daresbury Laboratory and Accelrys, Inc.     |
 |                                                 |
 | Please cite                                     |
 |                                                 |
 |     "First principles methods using CASTEP"     |
 |                                                 |
 |         Zeitschrift fuer Kristallographie       |
 |           220(5-6) pp. 567-570 (2005)           |
 |                                                 |
 | S. J. Clark, M. D. Segall, C. J. Pickard,       |
 | P. J. Hasnip, M. J. Probert, K. Refson,         |
 | M. C. Payne                                     |
 |                                                 |
 |       in all publications arising from          |
 |              your use of CASTEP                 |
 |                                                 |
 +-------------------------------------------------+


 Compiled for linux_x86_64_gfortran4.8 on Thu, 19 Jul 2018 15:42:32 +0100
 from code version 70483bd0ad64+  Sun, 10 Dec 2017 12:18:29 +0000
 Compiler: GNU Fortran 4.8.5; Optimisation: fast
 MATHLIBS: Intel MKL(2018.0.0) (LAPACK version 3.7.0)
 FFT Lib : mkl
 Fundamental constants values: CODATA 2014

 Run started: Sat, 22 Aug 2020 07:30:48 +0100

 Atomic calculation performed for H: 1s1

 Converged in 41 iterations to an ae energy of -12.488 eV

   ============================================================                
   | Pseudopotential Report - Date of generation 22-08-2020   |                
   ------------------------------------------------------------                
   | Element: H Ionic charge:  1.00 Level of theory: PBE      |                
   | Atomic Solver: Koelling-Harmon                           |                
   |                                                          |                
   |               Reference Electronic Structure             |                
   |         Orbital         Occupation         Energy        |                
   |            1s              1.000           -0.239        |                
   |                                                          |                
   |                 Pseudopotential Definition               |                
   |        Beta     l      e      Rc     scheme   norm       |                
   |         loc     0   -0.239   0.702     qc      1         |                
   |                                                          |                
   | No charge augmentation                                   |                
   | No partial core correction                               |                
   ------------------------------------------------------------                
   | "0|0.7|2|6|8|10L(qc=10)"                                 |                
   ------------------------------------------------------------                
   |      Author: Chris J. Pickard, Cambridge University      |                
   ============================================================                

 Pseudo atomic calculation performed for H 1s1

 Converged in 24 iterations to a total energy of -12.4843 eV

 Calculation parallelised over 16 processes.
 Data is distributed by k-point(16-way)

 ************************************ Title ************************************
 

 ***************************** General Parameters ******************************
  
 output verbosity                               : normal  (1)
 write checkpoint data to                       : P21c.check
 type of calculation                            : geometry optimization
 stress calculation                             : on
 density difference calculation                 : off
 electron localisation func (ELF) calculation   : off
 Hirshfeld analysis                             : off
 unlimited duration calculation
 timing information                             : on
 memory usage estimate                          : on
 write extra output files                       : on
 write final potential to formatted file        : off
 write final density to formatted file          : off
 write structure in CELL formatted file         : on
 write BibTeX reference list                    : on
 write OTFG pseudopotential files               : on
 write electrostatic potential file             : on
 write bands file                               : on
 checkpoint writing                             : both castep_bin and check files
  
 output         length unit                     : A
 output           mass unit                     : amu
 output           time unit                     : ps
 output         charge unit                     : e
 output           spin unit                     : hbar/2
 output         energy unit                     : eV
 output          force unit                     : eV/A
 output       velocity unit                     : A/ps
 output       pressure unit                     : GPa
 output     inv_length unit                     : 1/A
 output      frequency unit                     : cm-1
 output force constant unit                     : eV/A**2
 output         volume unit                     : A**3
 output   IR intensity unit                     : (D/A)**2/amu
 output         dipole unit                     : D
 output         efield unit                     : eV/A/e
 output        entropy unit                     : J/mol/K
  
 wavefunctions paging                           : none
 random number generator seed                   : randomised (73048540)
 data distribution                              : optimal for this architecture
 optimization strategy                          : maximize speed(+++)

 *********************** Exchange-Correlation Parameters ***********************
  
 using functional                               : Perdew Burke Ernzerhof
 relativistic treatment                         : Koelling-Harmon
 DFT+D: Semi-empirical dispersion correction    : off

 ************************* Pseudopotential Parameters **************************
  
 pseudopotential representation                 : reciprocal space
 <beta|phi> representation                      : reciprocal space
 spin-orbit coupling                            : off

 **************************** Basis Set Parameters *****************************
  
 plane wave basis set cut-off                   :  1200.0000   eV
 size of standard grid                          :     2.0000
 size of   fine   gmax                          :    35.4943   1/A
 finite basis set correction                    : automatic
 number of sample energies                      :          3
           sample  spacing                      :     5.0000   eV

 **************************** Electronic Parameters ****************************
  
 number of  electrons                           :  24.00    
 net charge of system                           :  0.000    
 treating system as non-spin-polarized
 number of bands                                :         12

 ********************* Electronic Minimization Parameters **********************
  
 Method: Treating system as non-metallic,
         and number of  SD  steps               :          1
         and number of  CG  steps               :          4
  
 total energy / atom convergence tol.           : 0.1000E-10   eV
 eigen-energy convergence tolerance             : 0.2000E-10   eV
 max force / atom convergence tol.              : ignored
 convergence tolerance window                   :          3   cycles
 max. number of SCF cycles                      :        100
 periodic dipole correction                     : NONE

 ************************** Density Mixing Parameters **************************
  
 density-mixing scheme                          : Broyden
 max. length of mixing history                  :         20
 charge density mixing amplitude                : 0.8000    
 cut-off energy for mixing                      :  1200.       eV

 *********************** Population Analysis Parameters ************************
  
 Population analysis with cutoff                :  3.000       A
 Population analysis output                     : summary and pdos components

 ********************** Geometry Optimization Parameters ***********************
  
 optimization method                            : LBFGS
 max. no. of LBFGS updates                      : unbounded
 variable cell method                           : fixed basis quality
 max. number of steps                           :        200
 estimated bulk modulus                         :  500.0       GPa
 estimated <frequency>                          :  1668.       cm-1
 geom line minimiser                            : on
 with line minimiser tolerance                  :     0.4000
 total energy convergence tolerance             : 0.1000E-08   eV/atom
        max ionic |force| tolerance             : 0.1000E-04   eV/A
 max ionic |displacement| tolerance             : 0.1000E-04   A
   max |stress component| tolerance             : 0.1000E-04   GPa
 convergence tolerance window                   :          2   steps
 backup results every                           :      14400   seconds
 write geom trajectory file                     : on

 *******************************************************************************
  

                           -------------------------------
                                      Unit Cell
                           -------------------------------
        Real Lattice(A)                      Reciprocal Lattice(1/A)
    11.0362018     0.0000000     0.0029113        0.569044361   0.000000000   1.063761020
     0.0000000     2.2849268     0.0000000        0.000000000   2.749841009   0.000000000
    -7.3587054     0.0000000     3.9364385       -0.000420847   0.000000000   1.595373193

                       Lattice parameters(A)       Cell Angles
                    a =     11.036202          alpha =   90.000000
                    b =      2.284927          beta  =  151.840943
                    c =      8.345423          gamma =   90.000000

                       Current cell volume =            99.313776       A**3
                                   density =             0.243577   AMU/A**3
                                           =             0.404469     g/cm^3

                           -------------------------------
                                     Cell Contents
                           -------------------------------
                         Total number of ions in cell =   24
                      Total number of species in cell =    1
                        Max number of any one species =   24

            xxxxxxxxxxxxxxxxxxxxxxxxxxxxxxxxxxxxxxxxxxxxxxxxxxxxxxxxxxxx
            x  Element    Atom        Fractional coordinates of atoms  x
            x            Number           u          v          w      x
            x----------------------------------------------------------x
            x  H            1         0.841345   0.628926   0.113106   x 
            x  H            2         0.158655   0.371074   0.886894   x 
            x  H            3         0.841345   0.871074   0.613106   x 
            x  H            4         0.158655   0.128926   0.386894   x 
            x  H            5         0.878780   0.409565   0.217876   x 
            x  H            6         0.121220   0.590435   0.782124   x 
            x  H            7         0.878780   0.090435   0.717876   x 
            x  H            8         0.121220   0.909565   0.282124   x 
            x  H            9         0.854653   0.103865   0.409079   x 
            x  H           10         0.145347   0.896135   0.590921   x 
            x  H           11         0.854653   0.396135   0.909079   x 
            x  H           12         0.145347   0.603865   0.090921   x 
            x  H           13         0.755032   0.914053   0.256237   x 
            x  H           14         0.244968   0.085947   0.743763   x 
            x  H           15         0.755032   0.585947   0.756237   x 
            x  H           16         0.244968   0.414053   0.243763   x 
            x  H           17         0.569686   0.403400   0.190425   x 
            x  H           18         0.430314   0.596600   0.809575   x 
            x  H           19         0.569686   0.096600   0.690425   x 
            x  H           20         0.430314   0.903400   0.309575   x 
            x  H           21         0.484914   0.585207   0.142753   x 
            x  H           22         0.515086   0.414793   0.857247   x 
            x  H           23         0.484914   0.914793   0.642753   x 
            x  H           24         0.515086   0.085207   0.357247   x 
            xxxxxxxxxxxxxxxxxxxxxxxxxxxxxxxxxxxxxxxxxxxxxxxxxxxxxxxxxxxx


                         No user defined ionic velocities

                           -------------------------------
                                   Details of Species
                           -------------------------------

                               Mass of species in AMU
                                    H    1.0079400

                          Electric Quadrupole Moment (Barn)
                                    H    0.0028600 Isotope  2

                          Files used for pseudopotentials:
                                    H 0|0.7|2|6|8|10L(qc=10)

                           -------------------------------
                              k-Points For BZ Sampling
                           -------------------------------
                       MP grid size for SCF calculation is  8 13 11
                            with an offset of   0.000  0.000  0.000
                       Number of kpoints used =           308

                           -------------------------------
                               Symmetry and Constraints
                           -------------------------------

                      Maximum deviation from symmetry = 0.220585E-13     ANG

                      Number of symmetry operations   =           4
                      Number of ionic constraints     =           3
                      Point group of crystal =     5: C2h, 2/m, 2/m
                      Space group of crystal =    14: P2_1/c, -P 2ybc

             Set iprint > 1 for details on symmetry rotations/translations

                         Centre of mass is constrained
             Set iprint > 1 for details of linear ionic constraints

                         Number of cell constraints= 2
                         Cell constraints are:  1 2 3 0 5 0

                         External pressure/stress (GPa)
                         10.00000   0.00000   0.00000
                                   10.00000   0.00000
                                             10.00000
  
+---------------- MEMORY AND SCRATCH DISK ESTIMATES PER PROCESS --------------+
|                                                     Memory          Disk    |
| Baseline code, static data and system overhead      412.0 MB         0.0 MB |
| BLAS internal memory storage                          0.0 MB         0.0 MB |
| Model and support data                              133.5 MB         0.0 MB |
| Electronic energy minimisation requirements         125.6 MB         0.0 MB |
| Force calculation requirements                       37.1 MB         0.0 MB |
| Stress calculation requirements                      47.0 MB         0.0 MB |
|                                               ----------------------------- |
| Approx. total storage required per process          671.1 MB         0.0 MB |
|                                                                             |
| Requirements will fluctuate during execution and may exceed these estimates |
+-----------------------------------------------------------------------------+
Calculating finite basis set correction with  3 cut-off energies.
Calculating total energy with cut-off of 1190.000 eV.
------------------------------------------------------------------------ <-- SCF
SCF loop      Energy                           Energy gain       Timer   <-- SCF
                                               per atom          (sec)   <-- SCF
------------------------------------------------------------------------ <-- SCF
Initial   6.48918005E+002                                         10.61  <-- SCF
      1  -2.90885229E+002                    3.91584681E+001      42.96  <-- SCF
      2  -3.77821795E+002                    3.62235694E+000      62.53  <-- SCF
      3  -3.79533375E+002                    7.13158219E-002      79.64  <-- SCF
      4  -3.76166176E+002                   -1.40299945E-001     109.01  <-- SCF
      5  -3.76086318E+002                   -3.32742768E-003     138.37  <-- SCF
      6  -3.76094766E+002                    3.52016430E-004     167.69  <-- SCF
      7  -3.76095903E+002                    4.73656577E-005     197.05  <-- SCF
      8  -3.76095909E+002                    2.24593230E-007     226.29  <-- SCF
      9  -3.76095909E+002                    3.17366098E-008     255.63  <-- SCF
     10  -3.76095909E+002                   -2.35099724E-011     284.64  <-- SCF
     11  -3.76095909E+002                    2.03680589E-011     305.49  <-- SCF
     12  -3.76095909E+002                    2.17517093E-012     326.27  <-- SCF
     13  -3.76095909E+002                   -3.62528488E-014     347.14  <-- SCF
------------------------------------------------------------------------ <-- SCF
 
Final energy =  -376.0959094168     eV
(energy not corrected for finite basis set)
 
Calculating total energy with cut-off of 1195.000 eV.
------------------------------------------------------------------------ <-- SCF
SCF loop      Energy                           Energy gain       Timer   <-- SCF
                                               per atom          (sec)   <-- SCF
------------------------------------------------------------------------ <-- SCF
Initial  -3.76095909E+002                                        357.21  <-- SCF
      1  -3.76097576E+002                    6.94238377E-005     381.58  <-- SCF
      2  -3.76097576E+002                    7.00968971E-011     410.87  <-- SCF
      3  -3.76097576E+002                    3.77953289E-008     440.17  <-- SCF
      4  -3.76097577E+002                    3.17895189E-009     469.31  <-- SCF
      5  -3.76097577E+002                    8.09566394E-011     490.06  <-- SCF
      6  -3.76097577E+002                   -1.52261965E-011     510.79  <-- SCF
      7  -3.76097577E+002                    1.79512023E-011     531.68  <-- SCF
      8  -3.76097577E+002                    1.22252662E-012     552.81  <-- SCF
      9  -3.76097577E+002                    6.76719843E-013     573.56  <-- SCF
------------------------------------------------------------------------ <-- SCF
 
Final energy =  -376.0975765758     eV
(energy not corrected for finite basis set)
 
Calculating total energy with cut-off of 1200.000 eV.
------------------------------------------------------------------------ <-- SCF
SCF loop      Energy                           Energy gain       Timer   <-- SCF
                                               per atom          (sec)   <-- SCF
------------------------------------------------------------------------ <-- SCF
Initial  -3.76097577E+002                                        583.64  <-- SCF
      1  -3.76099210E+002                    6.80601191E-005     607.85  <-- SCF
      2  -3.76099210E+002                    6.78129676E-011     636.84  <-- SCF
      3  -3.76099211E+002                    3.73138609E-008     665.95  <-- SCF
      4  -3.76099211E+002                    3.12336821E-009     695.07  <-- SCF
      5  -3.76099211E+002                    8.01389362E-011     715.75  <-- SCF
      6  -3.76099211E+002                   -1.44044652E-011     736.46  <-- SCF
      7  -3.76099211E+002                    1.76229126E-011     757.47  <-- SCF
      8  -3.76099211E+002                    4.02809431E-013     778.58  <-- SCF
      9  -3.76099211E+002                    3.22247544E-013     799.30  <-- SCF
------------------------------------------------------------------------ <-- SCF
 
Final energy =  -376.0992109925     eV
(energy not corrected for finite basis set)
 
 For future reference: finite basis dEtot/dlog(Ecut) =      -0.394831eV
 Total energy corrected for finite basis set =    -376.099211 eV
 
+---------------- MEMORY AND SCRATCH DISK ESTIMATES PER PROCESS --------------+
|                                                     Memory          Disk    |
| Model and support data                              129.7 MB         0.0 MB |
| Electronic energy minimisation requirements         125.6 MB         0.0 MB |
| Geometry minimisation requirements                  165.5 MB         0.0 MB |
|                                               ----------------------------- |
| Approx. total storage required per process          420.8 MB         0.0 MB |
|                                                                             |
| Requirements will fluctuate during execution and may exceed these estimates |
+-----------------------------------------------------------------------------+
 

 ******************************** Symmetrised Forces ********************************
 *                                                                                  *
 *                           Cartesian components (eV/A)                            *
 * -------------------------------------------------------------------------------- *
 *                         x                    y                    z              *
 *                                                                                  *
 * H               1      0.00000              0.00000             -0.00000         *
 * H               2     -0.00000             -0.00000              0.00000         *
 * H               3      0.00000             -0.00000             -0.00000         *
 * H               4     -0.00000              0.00000              0.00000         *
 * H               5     -0.00000             -0.00000              0.00000         *
 * H               6      0.00000              0.00000             -0.00000         *
 * H               7     -0.00000              0.00000              0.00000         *
 * H               8      0.00000             -0.00000             -0.00000         *
 * H               9      0.00000             -0.00000             -0.00000         *
 * H              10     -0.00000              0.00000              0.00000         *
 * H              11      0.00000              0.00000             -0.00000         *
 * H              12     -0.00000             -0.00000              0.00000         *
 * H              13      0.00000              0.00000             -0.00000         *
 * H              14     -0.00000             -0.00000              0.00000         *
 * H              15      0.00000             -0.00000             -0.00000         *
 * H              16     -0.00000              0.00000              0.00000         *
 * H              17     -0.00000              0.00000             -0.00000         *
 * H              18      0.00000             -0.00000              0.00000         *
 * H              19     -0.00000             -0.00000             -0.00000         *
 * H              20      0.00000              0.00000              0.00000         *
 * H              21      0.00000             -0.00000              0.00000         *
 * H              22     -0.00000              0.00000             -0.00000         *
 * H              23      0.00000              0.00000              0.00000         *
 * H              24     -0.00000             -0.00000             -0.00000         *
 *                                                                                  *
 ************************************************************************************

 *********** Symmetrised Stress Tensor ***********
 *                                               *
 *          Cartesian components (GPa)           *
 * --------------------------------------------- *
 *             x             y             z     *
 *                                               *
 *  x    -20.011664      0.000000      0.000008  *
 *  y      0.000000    -20.011658      0.000000  *
 *  z      0.000008      0.000000    -20.011661  *
 *                                               *
 *  Pressure:   20.0117                          *
 *                                               *
 *************************************************
 LBFGS: finished iteration     0 with enthalpy= -3.69900532E+002 eV
  
 +-----------+-----------------+-----------------+------------+-----+ <-- LBFGS
 | Parameter |      value      |    tolerance    |    units   | OK? | <-- LBFGS
 +-----------+-----------------+-----------------+------------+-----+ <-- LBFGS
 |  dE/ion   |   0.000000E+000 |   1.000000E-009 |         eV | No  | <-- LBFGS
 |  |F|max   |   9.461255E-007 |   1.000000E-005 |       eV/A | Yes | <-- LBFGS
 |  |dR|max  |   0.000000E+000 |   1.000000E-005 |          A | No  | <-- LBFGS
 |   Smax    |   1.001166E+001 |   1.000000E-005 |        GPa | No  | <-- LBFGS
 +-----------+-----------------+-----------------+------------+-----+ <-- LBFGS
  

================================================================================
 Starting LBFGS iteration          1 ...
================================================================================
  
 +------------+-------------+-------------+-----------------+ <-- min LBFGS
 |    Step    |   lambda    |   F.delta'  |    enthalpy     | <-- min LBFGS
 +------------+-------------+-------------+-----------------+ <-- min LBFGS
 |  previous  |    0.000000 |    0.395016 |     -369.900532 | <-- min LBFGS
 +------------+-------------+-------------+-----------------+ <-- min LBFGS
  

--------------------------------------------------------------------------------
 LBFGS: starting iteration         1 with trial guess (lambda=  1.000000)
--------------------------------------------------------------------------------
 
+---------------- MEMORY AND SCRATCH DISK ESTIMATES PER PROCESS --------------+
|                                                     Memory          Disk    |
| Model and support data                              132.2 MB         0.0 MB |
| Electronic energy minimisation requirements         128.3 MB         0.0 MB |
| Geometry minimisation requirements                  169.0 MB         0.0 MB |
|                                               ----------------------------- |
| Approx. total storage required per process          429.5 MB         0.0 MB |
|                                                                             |
| Requirements will fluctuate during execution and may exceed these estimates |
+-----------------------------------------------------------------------------+
 

                           -------------------------------
                                      Unit Cell
                           -------------------------------
        Real Lattice(A)              Reciprocal Lattice(1/A)
    11.1098623     0.0000000     0.0029306        0.565271494   0.000000000   1.056708087
     0.0000000     2.3001774     0.0000000        0.000000000   2.731609052   0.000000000
    -7.4078207     0.0000000     3.9627120       -0.000418049   0.000000000   1.584795569

                       Lattice parameters(A)       Cell Angles
                    a =     11.109863          alpha =   90.000000
                    b =      2.300177          beta  =  151.840943
                    c =      8.401125          gamma =   90.000000

                Current cell volume =           101.315670 A**3

                           -------------------------------
                                     Cell Contents
                           -------------------------------

            xxxxxxxxxxxxxxxxxxxxxxxxxxxxxxxxxxxxxxxxxxxxxxxxxxxxxxxxxxxxxxxxx
            x  Element         Atom        Fractional coordinates of atoms  x
            x                 Number           u          v          w      x
            x---------------------------------------------------------------x
            x  H                 1         0.841345   0.628926   0.113106   x
            x  H                 2         0.158655   0.371074   0.886894   x
            x  H                 3         0.841345   0.871074   0.613106   x
            x  H                 4         0.158655   0.128926   0.386894   x
            x  H                 5         0.878780   0.409565   0.217876   x
            x  H                 6         0.121220   0.590435   0.782124   x
            x  H                 7         0.878780   0.090435   0.717876   x
            x  H                 8         0.121220   0.909565   0.282124   x
            x  H                 9         0.854653   0.103865   0.409079   x
            x  H                10         0.145347   0.896135   0.590921   x
            x  H                11         0.854653   0.396135   0.909079   x
            x  H                12         0.145347   0.603865   0.090921   x
            x  H                13         0.755032   0.914053   0.256237   x
            x  H                14         0.244968   0.085947   0.743763   x
            x  H                15         0.755032   0.585947   0.756237   x
            x  H                16         0.244968   0.414053   0.243763   x
            x  H                17         0.569686   0.403400   0.190425   x
            x  H                18         0.430314   0.596600   0.809575   x
            x  H                19         0.569686   0.096600   0.690425   x
            x  H                20         0.430314   0.903400   0.309575   x
            x  H                21         0.484914   0.585207   0.142753   x
            x  H                22         0.515086   0.414793   0.857247   x
            x  H                23         0.484914   0.914793   0.642753   x
            x  H                24         0.515086   0.085207   0.357247   x
            xxxxxxxxxxxxxxxxxxxxxxxxxxxxxxxxxxxxxxxxxxxxxxxxxxxxxxxxxxxxxxxxx


------------------------------------------------------------------------ <-- SCF
SCF loop      Energy                           Energy gain       Timer   <-- SCF
                                               per atom          (sec)   <-- SCF
------------------------------------------------------------------------ <-- SCF
Initial  -3.76322231E+002                                        818.67  <-- SCF
      1  -3.76338353E+002                    6.71739059E-004     842.92  <-- SCF
      2  -3.76338387E+002                    1.43209409E-006     872.28  <-- SCF
      3  -3.76337387E+002                   -4.16972124E-005     901.49  <-- SCF
      4  -3.76337368E+002                   -7.89163830E-007     930.58  <-- SCF
      5  -3.76337370E+002                    8.72771665E-008     961.56  <-- SCF
      6  -3.76337370E+002                    1.13622228E-008     990.56  <-- SCF
      7  -3.76337370E+002                    5.78112095E-011    1011.26  <-- SCF
      8  -3.76337370E+002                    1.04166519E-011    1031.97  <-- SCF
      9  -3.76337370E+002                    1.16814735E-013    1052.70  <-- SCF
     10  -3.76337370E+002                    4.83371317E-014    1073.37  <-- SCF
------------------------------------------------------------------------ <-- SCF
 
Final energy =  -376.3373700807     eV
(energy not corrected for finite basis set)
 

 ******************************** Symmetrised Forces ********************************
 *                                                                                  *
 *                           Cartesian components (eV/A)                            *
 * -------------------------------------------------------------------------------- *
 *                         x                    y                    z              *
 *                                                                                  *
 * H               1     -0.07636             -0.10683              0.08814         *
 * H               2      0.07636              0.10683             -0.08814         *
 * H               3     -0.07636              0.10683              0.08814         *
 * H               4      0.07636             -0.10683             -0.08814         *
 * H               5      0.07585              0.10648             -0.08735         *
 * H               6     -0.07585             -0.10648              0.08735         *
 * H               7      0.07585             -0.10648             -0.08735         *
 * H               8     -0.07585              0.10648              0.08735         *
 * H               9      0.00516             -0.09192             -0.12712         *
 * H              10     -0.00516              0.09192              0.12712         *
 * H              11      0.00516              0.09192             -0.12712         *
 * H              12     -0.00516             -0.09192              0.12712         *
 * H              13     -0.00541              0.09187              0.12764         *
 * H              14      0.00541             -0.09187             -0.12764         *
 * H              15     -0.00541             -0.09187              0.12764         *
 * H              16      0.00541              0.09187             -0.12764         *
 * H              17     -0.12415              0.08798             -0.03997         *
 * H              18      0.12415             -0.08798              0.03997         *
 * H              19     -0.12415             -0.08798             -0.03997         *
 * H              20      0.12415              0.08798              0.03997         *
 * H              21      0.12391             -0.08870              0.04004         *
 * H              22     -0.12391              0.08870             -0.04004         *
 * H              23      0.12391              0.08870              0.04004         *
 * H              24     -0.12391             -0.08870             -0.04004         *
 *                                                                                  *
 ************************************************************************************

 *********** Symmetrised Stress Tensor ***********
 *                                               *
 *          Cartesian components (GPa)           *
 * --------------------------------------------- *
 *             x             y             z     *
 *                                               *
 *  x    -18.270150      0.000000     -0.072069  *
 *  y      0.000000    -18.060619      0.000000  *
 *  z     -0.072069      0.000000    -18.114512  *
 *                                               *
 *  Pressure:   18.1484                          *
 *                                               *
 *************************************************
  
 +------------+-------------+-------------+-----------------+ <-- min LBFGS
 |    Step    |   lambda    |   F.delta'  |    enthalpy     | <-- min LBFGS
 +------------+-------------+-------------+-----------------+ <-- min LBFGS
 |  previous  |    0.000000 |    0.395016 |     -369.900532 | <-- min LBFGS
 | trial step |    1.000000 |    0.325807 |     -370.013734 | <-- min LBFGS
 +------------+-------------+-------------+-----------------+ <-- min LBFGS
  

--------------------------------------------------------------------------------
 LBFGS: improving iteration         1 with line minimization (lambda=  3.592001)
--------------------------------------------------------------------------------
 
+---------------- MEMORY AND SCRATCH DISK ESTIMATES PER PROCESS --------------+
|                                                     Memory          Disk    |
| Model and support data                              137.5 MB         0.0 MB |
| Electronic energy minimisation requirements         134.6 MB         0.0 MB |
| Geometry minimisation requirements                  177.4 MB         0.0 MB |
|                                               ----------------------------- |
| Approx. total storage required per process          449.5 MB         0.0 MB |
|                                                                             |
| Requirements will fluctuate during execution and may exceed these estimates |
+-----------------------------------------------------------------------------+
 

                           -------------------------------
                                      Unit Cell
                           -------------------------------
        Real Lattice(A)              Reciprocal Lattice(1/A)
    11.3007904     0.0000000     0.0029809        0.555721183   0.000000000   1.038854900
     0.0000000     2.3397069     0.0000000        0.000000000   2.685458242   0.000000000
    -7.5351275     0.0000000     4.0308131       -0.000410967   0.000000000   1.558020281

                       Lattice parameters(A)       Cell Angles
                    a =     11.300791          alpha =   90.000000
                    b =      2.339707          beta  =  151.840944
                    c =      8.545502          gamma =   90.000000

                Current cell volume =           106.629420 A**3

                           -------------------------------
                                     Cell Contents
                           -------------------------------

            xxxxxxxxxxxxxxxxxxxxxxxxxxxxxxxxxxxxxxxxxxxxxxxxxxxxxxxxxxxxxxxxx
            x  Element         Atom        Fractional coordinates of atoms  x
            x                 Number           u          v          w      x
            x---------------------------------------------------------------x
            x  H                 1         0.841345   0.628926   0.113106   x
            x  H                 2         0.158655   0.371074   0.886894   x
            x  H                 3         0.841345   0.871074   0.613106   x
            x  H                 4         0.158655   0.128926   0.386894   x
            x  H                 5         0.878780   0.409565   0.217876   x
            x  H                 6         0.121220   0.590435   0.782124   x
            x  H                 7         0.878780   0.090435   0.717876   x
            x  H                 8         0.121220   0.909565   0.282124   x
            x  H                 9         0.854653   0.103865   0.409079   x
            x  H                10         0.145347   0.896135   0.590921   x
            x  H                11         0.854653   0.396135   0.909079   x
            x  H                12         0.145347   0.603865   0.090921   x
            x  H                13         0.755032   0.914053   0.256237   x
            x  H                14         0.244968   0.085947   0.743763   x
            x  H                15         0.755032   0.585947   0.756237   x
            x  H                16         0.244968   0.414053   0.243763   x
            x  H                17         0.569686   0.403400   0.190425   x
            x  H                18         0.430314   0.596600   0.809575   x
            x  H                19         0.569686   0.096600   0.690425   x
            x  H                20         0.430314   0.903400   0.309575   x
            x  H                21         0.484914   0.585207   0.142753   x
            x  H                22         0.515086   0.414793   0.857247   x
            x  H                23         0.484914   0.914793   0.642753   x
            x  H                24         0.515086   0.085207   0.357247   x
            xxxxxxxxxxxxxxxxxxxxxxxxxxxxxxxxxxxxxxxxxxxxxxxxxxxxxxxxxxxxxxxxx


------------------------------------------------------------------------ <-- SCF
SCF loop      Energy                           Energy gain       Timer   <-- SCF
                                               per atom          (sec)   <-- SCF
------------------------------------------------------------------------ <-- SCF
Initial  -3.76786551E+002                                       1093.14  <-- SCF
      1  -3.76871052E+002                    3.52086902E-003    1119.15  <-- SCF
      2  -3.76871272E+002                    9.15610128E-006    1150.69  <-- SCF
      3  -3.76864665E+002                   -2.75294568E-004    1182.10  <-- SCF
      4  -3.76864540E+002                   -5.20904335E-006    1213.46  <-- SCF
      5  -3.76864555E+002                    6.34289618E-007    1244.75  <-- SCF
      6  -3.76864557E+002                    8.52918477E-008    1276.03  <-- SCF
      7  -3.76864557E+002                    4.54077001E-010    1305.86  <-- SCF
      8  -3.76864557E+002                    7.76374897E-011    1328.28  <-- SCF
      9  -3.76864557E+002                    6.88804126E-013    1350.59  <-- SCF
     10  -3.76864557E+002                   -7.45197447E-014    1372.81  <-- SCF
------------------------------------------------------------------------ <-- SCF
 
Final energy =  -376.8645571289     eV
(energy not corrected for finite basis set)
 

 ******************************** Symmetrised Forces ********************************
 *                                                                                  *
 *                           Cartesian components (eV/A)                            *
 * -------------------------------------------------------------------------------- *
 *                         x                    y                    z              *
 *                                                                                  *
 * H               1     -0.26392             -0.36917              0.30467         *
 * H               2      0.26392              0.36917             -0.30467         *
 * H               3     -0.26392              0.36917              0.30467         *
 * H               4      0.26392             -0.36917             -0.30467         *
 * H               5      0.26216              0.36802             -0.30197         *
 * H               6     -0.26216             -0.36802              0.30197         *
 * H               7      0.26216             -0.36802             -0.30197         *
 * H               8     -0.26216              0.36802              0.30197         *
 * H               9      0.01786             -0.31768             -0.43950         *
 * H              10     -0.01786              0.31768              0.43950         *
 * H              11      0.01786              0.31768             -0.43950         *
 * H              12     -0.01786             -0.31768              0.43950         *
 * H              13     -0.01874              0.31756              0.44116         *
 * H              14      0.01874             -0.31756             -0.44116         *
 * H              15     -0.01874             -0.31756              0.44116         *
 * H              16      0.01874              0.31756             -0.44116         *
 * H              17     -0.42914              0.30412             -0.13814         *
 * H              18      0.42914             -0.30412              0.13814         *
 * H              19     -0.42914             -0.30412             -0.13814         *
 * H              20      0.42914              0.30412              0.13814         *
 * H              21      0.42843             -0.30653              0.13829         *
 * H              22     -0.42843              0.30653             -0.13829         *
 * H              23      0.42843              0.30653              0.13829         *
 * H              24     -0.42843             -0.30653             -0.13829         *
 *                                                                                  *
 ************************************************************************************

 *********** Symmetrised Stress Tensor ***********
 *                                               *
 *          Cartesian components (GPa)           *
 * --------------------------------------------- *
 *             x             y             z     *
 *                                               *
 *  x    -14.196157      0.000000     -0.240770  *
 *  y      0.000000    -13.499677      0.000000  *
 *  z     -0.240770      0.000000    -13.681391  *
 *                                               *
 *  Pressure:   13.7924                          *
 *                                               *
 *************************************************
  
 +------------+-------------+-------------+-----------------+ <-- min LBFGS
 |    Step    |   lambda    |   F.delta'  |    enthalpy     | <-- min LBFGS
 +------------+-------------+-------------+-----------------+ <-- min LBFGS
 |  previous  |    0.000000 |    0.395016 |     -369.900532 | <-- min LBFGS
 | trial step |    1.000000 |    0.325807 |     -370.013734 | <-- min LBFGS
 |  line step |    3.592001 |    0.156893 |     -370.209276 | <-- min LBFGS
 +------------+-------------+-------------+-----------------+ <-- min LBFGS
  

--------------------------------------------------------------------------------
 LBFGS: improving iteration         1 with quad minimization (lambda=  5.999523)
--------------------------------------------------------------------------------
 
+---------------- MEMORY AND SCRATCH DISK ESTIMATES PER PROCESS --------------+
|                                                     Memory          Disk    |
| Model and support data                              143.5 MB         0.0 MB |
| Electronic energy minimisation requirements         141.1 MB         0.0 MB |
| Geometry minimisation requirements                  185.9 MB         0.0 MB |
|                                               ----------------------------- |
| Approx. total storage required per process          470.5 MB         0.0 MB |
|                                                                             |
| Requirements will fluctuate during execution and may exceed these estimates |
+-----------------------------------------------------------------------------+
 

                           -------------------------------
                                      Unit Cell
                           -------------------------------
        Real Lattice(A)              Reciprocal Lattice(1/A)
    11.4781297     0.0000000     0.0030275        0.547135198   0.000000000   1.022804409
     0.0000000     2.3764231     0.0000000        0.000000000   2.643967434   0.000000000
    -7.6533736     0.0000000     4.0940673       -0.000404600   0.000000000   1.533948584

                       Lattice parameters(A)       Cell Angles
                    a =     11.478130          alpha =   90.000000
                    b =      2.376423          beta  =  151.840944
                    c =      8.679603          gamma =   90.000000

                Current cell volume =           111.728498 A**3

                           -------------------------------
                                     Cell Contents
                           -------------------------------

            xxxxxxxxxxxxxxxxxxxxxxxxxxxxxxxxxxxxxxxxxxxxxxxxxxxxxxxxxxxxxxxxx
            x  Element         Atom        Fractional coordinates of atoms  x
            x                 Number           u          v          w      x
            x---------------------------------------------------------------x
            x  H                 1         0.841345   0.628926   0.113106   x
            x  H                 2         0.158655   0.371074   0.886894   x
            x  H                 3         0.841345   0.871074   0.613106   x
            x  H                 4         0.158655   0.128926   0.386894   x
            x  H                 5         0.878780   0.409565   0.217876   x
            x  H                 6         0.121220   0.590435   0.782124   x
            x  H                 7         0.878780   0.090435   0.717876   x
            x  H                 8         0.121220   0.909565   0.282124   x
            x  H                 9         0.854653   0.103865   0.409079   x
            x  H                10         0.145347   0.896135   0.590921   x
            x  H                11         0.854653   0.396135   0.909079   x
            x  H                12         0.145347   0.603865   0.090921   x
            x  H                13         0.755032   0.914053   0.256237   x
            x  H                14         0.244968   0.085947   0.743763   x
            x  H                15         0.755032   0.585947   0.756237   x
            x  H                16         0.244968   0.414053   0.243763   x
            x  H                17         0.569686   0.403400   0.190425   x
            x  H                18         0.430314   0.596600   0.809575   x
            x  H                19         0.569686   0.096600   0.690425   x
            x  H                20         0.430314   0.903400   0.309575   x
            x  H                21         0.484914   0.585207   0.142753   x
            x  H                22         0.515086   0.414793   0.857247   x
            x  H                23         0.484914   0.914793   0.642753   x
            x  H                24         0.515086   0.085207   0.357247   x
            xxxxxxxxxxxxxxxxxxxxxxxxxxxxxxxxxxxxxxxxxxxxxxxxxxxxxxxxxxxxxxxxx


------------------------------------------------------------------------ <-- SCF
SCF loop      Energy                           Energy gain       Timer   <-- SCF
                                               per atom          (sec)   <-- SCF
------------------------------------------------------------------------ <-- SCF
Initial  -3.77179726E+002                                       1393.97  <-- SCF
      1  -3.77251530E+002                    2.99181540E-003    1422.18  <-- SCF
      2  -3.77251720E+002                    7.92988933E-006    1456.14  <-- SCF
      3  -3.77246105E+002                   -2.33938734E-004    1490.23  <-- SCF
      4  -3.77246002E+002                   -4.31944509E-006    1524.32  <-- SCF
      5  -3.77246016E+002                    5.82233466E-007    1558.34  <-- SCF
      6  -3.77246018E+002                    8.02095689E-008    1592.35  <-- SCF
      7  -3.77246018E+002                    4.43912105E-010    1624.56  <-- SCF
      8  -3.77246018E+002                    7.93615140E-011    1648.79  <-- SCF
      9  -3.77246018E+002                    1.20842829E-013    1672.98  <-- SCF
     10  -3.77246018E+002                    6.04214146E-014    1697.17  <-- SCF
------------------------------------------------------------------------ <-- SCF
 
Final energy =  -377.2460175889     eV
(energy not corrected for finite basis set)
 

 ******************************** Symmetrised Forces ********************************
 *                                                                                  *
 *                           Cartesian components (eV/A)                            *
 * -------------------------------------------------------------------------------- *
 *                         x                    y                    z              *
 *                                                                                  *
 * H               1     -0.42556             -0.59516              0.49124         *
 * H               2      0.42556              0.59516             -0.49124         *
 * H               3     -0.42556              0.59516              0.49124         *
 * H               4      0.42556             -0.59516             -0.49124         *
 * H               5      0.42269              0.59342             -0.48698         *
 * H               6     -0.42269             -0.59342              0.48698         *
 * H               7      0.42269             -0.59342             -0.48698         *
 * H               8     -0.42269              0.59342              0.48698         *
 * H               9      0.02879             -0.51223             -0.70883         *
 * H              10     -0.02879              0.51223              0.70883         *
 * H              11      0.02879              0.51223             -0.70883         *
 * H              12     -0.02879             -0.51223              0.70883         *
 * H              13     -0.03028              0.51216              0.71130         *
 * H              14      0.03028             -0.51216             -0.71130         *
 * H              15     -0.03028             -0.51216              0.71130         *
 * H              16      0.03028              0.51216             -0.71130         *
 * H              17     -0.69199              0.49041             -0.22278         *
 * H              18      0.69199             -0.49041              0.22278         *
 * H              19     -0.69199             -0.49041             -0.22278         *
 * H              20      0.69199              0.49041              0.22278         *
 * H              21      0.69099             -0.49422              0.22284         *
 * H              22     -0.69099              0.49422             -0.22284         *
 * H              23      0.69099              0.49422              0.22284         *
 * H              24     -0.69099             -0.49422             -0.22284         *
 *                                                                                  *
 ************************************************************************************

 *********** Symmetrised Stress Tensor ***********
 *                                               *
 *          Cartesian components (GPa)           *
 * --------------------------------------------- *
 *             x             y             z     *
 *                                               *
 *  x    -10.920180      0.000000     -0.376448  *
 *  y      0.000000     -9.837968      0.000000  *
 *  z     -0.376448      0.000000    -10.122788  *
 *                                               *
 *  Pressure:   10.2936                          *
 *                                               *
 *************************************************
  
 +------------+-------------+-------------+-----------------+ <-- min LBFGS
 |    Step    |   lambda    |   F.delta'  |    enthalpy     | <-- min LBFGS
 +------------+-------------+-------------+-----------------+ <-- min LBFGS
 |  previous  |    0.000000 |    0.395016 |     -369.900532 | <-- min LBFGS
 | trial step |    1.000000 |    0.325807 |     -370.013734 | <-- min LBFGS
 |  line step |    3.592001 |    0.156893 |     -370.209276 | <-- min LBFGS
 |  quad step |    5.999523 |    0.012532 |     -370.272463 | <-- min LBFGS
 +------------+-------------+-------------+-----------------+ <-- min LBFGS
  
 LBFGS: finished iteration     1 with enthalpy= -3.70272463E+002 eV
  
 +-----------+-----------------+-----------------+------------+-----+ <-- LBFGS
 | Parameter |      value      |    tolerance    |    units   | OK? | <-- LBFGS
 +-----------+-----------------+-----------------+------------+-----+ <-- LBFGS
 |  dE/ion   |   1.549709E-002 |   1.000000E-009 |         eV | No  | <-- LBFGS
 |  |F|max   |   8.812676E-001 |   1.000000E-005 |       eV/A | No  | <-- LBFGS
 |  |dR|max  |   5.725901E-007 |   1.000000E-005 |          A | Yes | <-- LBFGS
 |   Smax    |   9.201801E-001 |   1.000000E-005 |        GPa | No  | <-- LBFGS
 +-----------+-----------------+-----------------+------------+-----+ <-- LBFGS
  

================================================================================
 Starting LBFGS iteration          2 ...
================================================================================
  
 +------------+-------------+-------------+-----------------+ <-- min LBFGS
 |    Step    |   lambda    |   F.delta'  |    enthalpy     | <-- min LBFGS
 +------------+-------------+-------------+-----------------+ <-- min LBFGS
 |  previous  |    0.000000 |    0.313419 |     -370.272463 | <-- min LBFGS
 +------------+-------------+-------------+-----------------+ <-- min LBFGS
  

--------------------------------------------------------------------------------
 LBFGS: starting iteration         2 with trial guess (lambda=  0.212405)
--------------------------------------------------------------------------------
 
+---------------- MEMORY AND SCRATCH DISK ESTIMATES PER PROCESS --------------+
|                                                     Memory          Disk    |
| Model and support data                              159.6 MB         0.0 MB |
| Electronic energy minimisation requirements         155.3 MB         0.0 MB |
| Geometry minimisation requirements                  204.0 MB         0.0 MB |
|                                               ----------------------------- |
| Approx. total storage required per process          518.9 MB         0.0 MB |
|                                                                             |
| Requirements will fluctuate during execution and may exceed these estimates |
+-----------------------------------------------------------------------------+
 

                           -------------------------------
                                      Unit Cell
                           -------------------------------
        Real Lattice(A)              Reciprocal Lattice(1/A)
    11.7427173     0.0000000     0.0037540        0.534751181   0.000000000   0.999847152
     0.0000000     2.4308119     0.0000000        0.000000000   2.584809354   0.000000000
    -7.8295606     0.0000000     4.1875068       -0.000479385   0.000000000   1.499563395

                       Lattice parameters(A)       Cell Angles
                    a =     11.742718          alpha =   90.000000
                    b =      2.430812          beta  =  151.842345
                    c =      8.879033          gamma =   90.000000

                Current cell volume =           119.601051 A**3

                           -------------------------------
                                     Cell Contents
                           -------------------------------

            xxxxxxxxxxxxxxxxxxxxxxxxxxxxxxxxxxxxxxxxxxxxxxxxxxxxxxxxxxxxxxxxx
            x  Element         Atom        Fractional coordinates of atoms  x
            x                 Number           u          v          w      x
            x---------------------------------------------------------------x
            x  H                 1         0.842333   0.623163   0.115867   x
            x  H                 2         0.157667   0.376837   0.884133   x
            x  H                 3         0.842333   0.876837   0.615867   x
            x  H                 4         0.157667   0.123163   0.384133   x
            x  H                 5         0.877802   0.415311   0.215139   x
            x  H                 6         0.122198   0.584689   0.784861   x
            x  H                 7         0.877802   0.084689   0.715139   x
            x  H                 8         0.122198   0.915311   0.284861   x
            x  H                 9         0.852055   0.098904   0.405096   x
            x  H                10         0.147945   0.901096   0.594904   x
            x  H                11         0.852055   0.401096   0.905096   x
            x  H                12         0.147945   0.598904   0.094904   x
            x  H                13         0.757637   0.919013   0.260233   x
            x  H                14         0.242363   0.080987   0.739767   x
            x  H                15         0.757637   0.580987   0.760233   x
            x  H                16         0.242363   0.419013   0.239767   x
            x  H                17         0.567465   0.408149   0.189174   x
            x  H                18         0.432535   0.591851   0.810826   x
            x  H                19         0.567465   0.091851   0.689174   x
            x  H                20         0.432535   0.908149   0.310826   x
            x  H                21         0.487134   0.580420   0.144004   x
            x  H                22         0.512866   0.419580   0.855996   x
            x  H                23         0.487134   0.919580   0.644004   x
            x  H                24         0.512866   0.080420   0.355996   x
            xxxxxxxxxxxxxxxxxxxxxxxxxxxxxxxxxxxxxxxxxxxxxxxxxxxxxxxxxxxxxxxxx


------------------------------------------------------------------------ <-- SCF
SCF loop      Energy                           Energy gain       Timer   <-- SCF
                                               per atom          (sec)   <-- SCF
------------------------------------------------------------------------ <-- SCF
Initial  -3.76866128E+002                                       1720.87  <-- SCF
      1  -3.78162319E+002                    5.40079634E-002    1754.40  <-- SCF
      2  -3.78166359E+002                    1.68317934E-004    1795.19  <-- SCF
      3  -3.78018427E+002                   -6.16383814E-003    1835.92  <-- SCF
      4  -3.78014200E+002                   -1.76116385E-004    1876.68  <-- SCF
      5  -3.78014412E+002                    8.83191477E-006    1917.43  <-- SCF
      6  -3.78014443E+002                    1.30505863E-006    1958.21  <-- SCF
      7  -3.78014443E+002                    8.51430176E-009    1998.78  <-- SCF
      8  -3.78014443E+002                    1.21504645E-009    2039.47  <-- SCF
      9  -3.78014443E+002                   -3.94551837E-012    2068.60  <-- SCF
     10  -3.78014443E+002                    3.96968694E-012    2097.68  <-- SCF
------------------------------------------------------------------------ <-- SCF
 
Final energy =  -378.0144433182     eV
(energy not corrected for finite basis set)
 

 ******************************** Symmetrised Forces ********************************
 *                                                                                  *
 *                           Cartesian components (eV/A)                            *
 * -------------------------------------------------------------------------------- *
 *                         x                    y                    z              *
 *                                                                                  *
 * H               1     -0.05727             -0.08330              0.06847         *
 * H               2      0.05727              0.08330             -0.06847         *
 * H               3     -0.05727              0.08330              0.06847         *
 * H               4      0.05727             -0.08330             -0.06847         *
 * H               5      0.05571              0.07674             -0.06334         *
 * H               6     -0.05571             -0.07674              0.06334         *
 * H               7      0.05571             -0.07674             -0.06334         *
 * H               8     -0.05571              0.07674              0.06334         *
 * H               9      0.00475             -0.07994             -0.10611         *
 * H              10     -0.00475              0.07994              0.10611         *
 * H              11      0.00475              0.07994             -0.10611         *
 * H              12     -0.00475             -0.07994              0.10611         *
 * H              13     -0.00395              0.07674              0.10993         *
 * H              14      0.00395             -0.07674             -0.10993         *
 * H              15     -0.00395             -0.07674              0.10993         *
 * H              16      0.00395              0.07674             -0.10993         *
 * H              17     -0.09735              0.06820             -0.03145         *
 * H              18      0.09735             -0.06820              0.03145         *
 * H              19     -0.09735             -0.06820             -0.03145         *
 * H              20      0.09735              0.06820              0.03145         *
 * H              21      0.09822             -0.07228              0.03130         *
 * H              22     -0.09822              0.07228             -0.03130         *
 * H              23      0.09822              0.07228              0.03130         *
 * H              24     -0.09822             -0.07228             -0.03130         *
 *                                                                                  *
 ************************************************************************************

 *********** Symmetrised Stress Tensor ***********
 *                                               *
 *          Cartesian components (GPa)           *
 * --------------------------------------------- *
 *             x             y             z     *
 *                                               *
 *  x    -11.022762      0.000000     -0.045492  *
 *  y      0.000000    -10.721046      0.000000  *
 *  z     -0.045492      0.000000    -10.748133  *
 *                                               *
 *  Pressure:   10.8306                          *
 *                                               *
 *************************************************
  
 +------------+-------------+-------------+-----------------+ <-- min LBFGS
 |    Step    |   lambda    |   F.delta'  |    enthalpy     | <-- min LBFGS
 +------------+-------------+-------------+-----------------+ <-- min LBFGS
 |  previous  |    0.000000 |    0.313419 |     -370.272463 | <-- min LBFGS
 | trial step |    0.212405 |    0.074099 |     -370.549532 | <-- min LBFGS
 +------------+-------------+-------------+-----------------+ <-- min LBFGS
  
 LBFGS: finished iteration     2 with enthalpy= -3.70549532E+002 eV
  
 +-----------+-----------------+-----------------+------------+-----+ <-- LBFGS
 | Parameter |      value      |    tolerance    |    units   | OK? | <-- LBFGS
 +-----------+-----------------+-----------------+------------+-----+ <-- LBFGS
 |  dE/ion   |   1.154455E-002 |   1.000000E-009 |         eV | No  | <-- LBFGS
 |  |F|max   |   1.341285E-001 |   1.000000E-005 |       eV/A | No  | <-- LBFGS
 |  |dR|max  |   2.074598E-002 |   1.000000E-005 |          A | No  | <-- LBFGS
 |   Smax    |   1.022762E+000 |   1.000000E-005 |        GPa | No  | <-- LBFGS
 +-----------+-----------------+-----------------+------------+-----+ <-- LBFGS
  

================================================================================
 Starting LBFGS iteration          3 ...
================================================================================
  
 +------------+-------------+-------------+-----------------+ <-- min LBFGS
 |    Step    |   lambda    |   F.delta'  |    enthalpy     | <-- min LBFGS
 +------------+-------------+-------------+-----------------+ <-- min LBFGS
 |  previous  |    0.000000 |    0.064880 |     -370.549532 | <-- min LBFGS
 +------------+-------------+-------------+-----------------+ <-- min LBFGS
  

--------------------------------------------------------------------------------
 LBFGS: starting iteration         3 with trial guess (lambda=  1.000000)
--------------------------------------------------------------------------------
 
+---------------- MEMORY AND SCRATCH DISK ESTIMATES PER PROCESS --------------+
|                                                     Memory          Disk    |
| Model and support data                              162.3 MB         0.0 MB |
| Electronic energy minimisation requirements         159.5 MB         0.0 MB |
| Geometry minimisation requirements                  209.7 MB         0.0 MB |
|                                               ----------------------------- |
| Approx. total storage required per process          531.5 MB         0.0 MB |
|                                                                             |
| Requirements will fluctuate during execution and may exceed these estimates |
+-----------------------------------------------------------------------------+
 

                           -------------------------------
                                      Unit Cell
                           -------------------------------
        Real Lattice(A)              Reciprocal Lattice(1/A)
    11.8818702     0.0000000     0.0039267        0.528477787   0.000000000   0.988316312
     0.0000000     2.4591546     0.0000000        0.000000000   2.555018422   0.000000000
    -7.9222960     0.0000000     4.2362525       -0.000489862   0.000000000   1.482278130

                       Lattice parameters(A)       Cell Angles
                    a =     11.881871          alpha =   90.000000
                    b =      2.459155          beta  =  151.846520
                    c =      8.983797          gamma =   90.000000

                Current cell volume =           123.857071 A**3

                           -------------------------------
                                     Cell Contents
                           -------------------------------

            xxxxxxxxxxxxxxxxxxxxxxxxxxxxxxxxxxxxxxxxxxxxxxxxxxxxxxxxxxxxxxxxx
            x  Element         Atom        Fractional coordinates of atoms  x
            x                 Number           u          v          w      x
            x---------------------------------------------------------------x
            x  H                 1         0.842659   0.621384   0.116709   x
            x  H                 2         0.157341   0.378616   0.883291   x
            x  H                 3         0.842659   0.878616   0.616709   x
            x  H                 4         0.157341   0.121384   0.383291   x
            x  H                 5         0.877569   0.416712   0.214460   x
            x  H                 6         0.122431   0.583288   0.785540   x
            x  H                 7         0.877569   0.083288   0.714460   x
            x  H                 8         0.122431   0.916712   0.285540   x
            x  H                 9         0.851104   0.096885   0.403630   x
            x  H                10         0.148896   0.903115   0.596370   x
            x  H                11         0.851104   0.403115   0.903630   x
            x  H                12         0.148896   0.596885   0.096370   x
            x  H                13         0.758681   0.920844   0.261823   x
            x  H                14         0.241319   0.079156   0.738177   x
            x  H                15         0.758681   0.579156   0.761823   x
            x  H                16         0.241319   0.420844   0.238177   x
            x  H                17         0.566766   0.409589   0.188779   x
            x  H                18         0.433234   0.590411   0.811221   x
            x  H                19         0.566766   0.090411   0.688779   x
            x  H                20         0.433234   0.909589   0.311221   x
            x  H                21         0.487840   0.578759   0.144395   x
            x  H                22         0.512160   0.421241   0.855605   x
            x  H                23         0.487840   0.921241   0.644395   x
            x  H                24         0.512160   0.078759   0.355605   x
            xxxxxxxxxxxxxxxxxxxxxxxxxxxxxxxxxxxxxxxxxxxxxxxxxxxxxxxxxxxxxxxxx


------------------------------------------------------------------------ <-- SCF
SCF loop      Energy                           Energy gain       Timer   <-- SCF
                                               per atom          (sec)   <-- SCF
------------------------------------------------------------------------ <-- SCF
Initial  -3.78125369E+002                                       2124.03  <-- SCF
      1  -3.78324769E+002                    8.30834760E-003    2157.82  <-- SCF
      2  -3.78325363E+002                    2.47650763E-005    2198.69  <-- SCF
      3  -3.78300712E+002                   -1.02714485E-003    2239.56  <-- SCF
      4  -3.78300078E+002                   -2.64286025E-005    2280.49  <-- SCF
      5  -3.78300114E+002                    1.53824399E-006    2321.28  <-- SCF
      6  -3.78300120E+002                    2.35001743E-007    2362.42  <-- SCF
      7  -3.78300120E+002                    1.52804549E-009    2403.26  <-- SCF
      8  -3.78300120E+002                    2.69991077E-010    2440.75  <-- SCF
      9  -3.78300120E+002                    1.29704637E-012    2469.93  <-- SCF
     10  -3.78300120E+002                    1.69179961E-013    2499.18  <-- SCF
------------------------------------------------------------------------ <-- SCF
 
Final energy =  -378.3001201551     eV
(energy not corrected for finite basis set)
 

 ******************************** Symmetrised Forces ********************************
 *                                                                                  *
 *                           Cartesian components (eV/A)                            *
 * -------------------------------------------------------------------------------- *
 *                         x                    y                    z              *
 *                                                                                  *
 * H               1     -0.00656             -0.01192              0.01015         *
 * H               2      0.00656              0.01192             -0.01015         *
 * H               3     -0.00656              0.01192              0.01015         *
 * H               4      0.00656             -0.01192             -0.01015         *
 * H               5      0.00485              0.00493             -0.00494         *
 * H               6     -0.00485             -0.00493              0.00494         *
 * H               7      0.00485             -0.00493             -0.00494         *
 * H               8     -0.00485              0.00493              0.00494         *
 * H               9     -0.00464              0.07495              0.10930         *
 * H              10      0.00464             -0.07495             -0.10930         *
 * H              11     -0.00464             -0.07495              0.10930         *
 * H              12      0.00464              0.07495             -0.10930         *
 * H              13      0.00538             -0.07843             -0.10551         *
 * H              14     -0.00538              0.07843              0.10551         *
 * H              15      0.00538              0.07843             -0.10551         *
 * H              16     -0.00538             -0.07843              0.10551         *
 * H              17      0.03609             -0.02654              0.01127         *
 * H              18     -0.03609              0.02654             -0.01127         *
 * H              19      0.03609              0.02654              0.01127         *
 * H              20     -0.03609             -0.02654             -0.01127         *
 * H              21     -0.03504              0.02244             -0.01183         *
 * H              22      0.03504             -0.02244              0.01183         *
 * H              23     -0.03504             -0.02244             -0.01183         *
 * H              24      0.03504              0.02244              0.01183         *
 *                                                                                  *
 ************************************************************************************

 *********** Symmetrised Stress Tensor ***********
 *                                               *
 *          Cartesian components (GPa)           *
 * --------------------------------------------- *
 *             x             y             z     *
 *                                               *
 *  x    -10.322365      0.000000     -0.036694  *
 *  y      0.000000    -10.255256      0.000000  *
 *  z     -0.036694      0.000000    -10.385203  *
 *                                               *
 *  Pressure:   10.3209                          *
 *                                               *
 *************************************************
  
 +------------+-------------+-------------+-----------------+ <-- min LBFGS
 |    Step    |   lambda    |   F.delta'  |    enthalpy     | <-- min LBFGS
 +------------+-------------+-------------+-----------------+ <-- min LBFGS
 |  previous  |    0.000000 |    0.064880 |     -370.549532 | <-- min LBFGS
 | trial step |    1.000000 |   -0.002500 |     -370.569573 | <-- min LBFGS
 +------------+-------------+-------------+-----------------+ <-- min LBFGS
  
 LBFGS: finished iteration     3 with enthalpy= -3.70569573E+002 eV
  
 +-----------+-----------------+-----------------+------------+-----+ <-- LBFGS
 | Parameter |      value      |    tolerance    |    units   | OK? | <-- LBFGS
 +-----------+-----------------+-----------------+------------+-----+ <-- LBFGS
 |  dE/ion   |   8.350490E-004 |   1.000000E-009 |         eV | No  | <-- LBFGS
 |  |F|max   |   1.326114E-001 |   1.000000E-005 |       eV/A | No  | <-- LBFGS
 |  |dR|max  |   8.105717E-003 |   1.000000E-005 |          A | No  | <-- LBFGS
 |   Smax    |   3.852026E-001 |   1.000000E-005 |        GPa | No  | <-- LBFGS
 +-----------+-----------------+-----------------+------------+-----+ <-- LBFGS
  

================================================================================
 Starting LBFGS iteration          4 ...
================================================================================
  
 +------------+-------------+-------------+-----------------+ <-- min LBFGS
 |    Step    |   lambda    |   F.delta'  |    enthalpy     | <-- min LBFGS
 +------------+-------------+-------------+-----------------+ <-- min LBFGS
 |  previous  |    0.000000 |    0.031959 |     -370.569573 | <-- min LBFGS
 +------------+-------------+-------------+-----------------+ <-- min LBFGS
  

--------------------------------------------------------------------------------
 LBFGS: starting iteration         4 with trial guess (lambda=  1.000000)
--------------------------------------------------------------------------------
 
[...]
            x  H                18         0.433089   0.591559   0.811102   x
            x  H                19         0.566911   0.091559   0.688898   x
            x  H                20         0.433089   0.908441   0.311102   x
            x  H                21         0.487807   0.576212   0.144454   x
            x  H                22         0.512193   0.423788   0.855546   x
            x  H                23         0.487807   0.923788   0.644454   x
            x  H                24         0.512193   0.076212   0.355546   x
            xxxxxxxxxxxxxxxxxxxxxxxxxxxxxxxxxxxxxxxxxxxxxxxxxxxxxxxxxxxxxxxxx


------------------------------------------------------------------------ <-- SCF
SCF loop      Energy                           Energy gain       Timer   <-- SCF
                                               per atom          (sec)   <-- SCF
------------------------------------------------------------------------ <-- SCF
Initial  -3.78331551E+002                                       8378.16  <-- SCF
      1  -3.78331561E+002                    4.05664322E-007    8411.82  <-- SCF
      2  -3.78331561E+002                    8.15246007E-010    8452.71  <-- SCF
      3  -3.78331560E+002                   -3.51343879E-008    8493.58  <-- SCF
      4  -3.78331560E+002                   -2.21566334E-009    8534.39  <-- SCF
      5  -3.78331560E+002                    5.54608165E-011    8563.60  <-- SCF
      6  -3.78331560E+002                    7.94340197E-012    8592.82  <-- SCF
      7  -3.78331560E+002                    1.40580491E-012    8622.07  <-- SCF
------------------------------------------------------------------------ <-- SCF
 
Final energy =  -378.3315596641     eV
(energy not corrected for finite basis set)
 

 ******************************** Symmetrised Forces ********************************
 *                                                                                  *
 *                           Cartesian components (eV/A)                            *
 * -------------------------------------------------------------------------------- *
 *                         x                    y                    z              *
 *                                                                                  *
 * H               1      0.00058              0.00008              0.00018         *
 * H               2     -0.00058             -0.00008             -0.00018         *
 * H               3      0.00058             -0.00008              0.00018         *
 * H               4     -0.00058              0.00008             -0.00018         *
 * H               5      0.00002             -0.00004             -0.00012         *
 * H               6     -0.00002              0.00004              0.00012         *
 * H               7      0.00002              0.00004             -0.00012         *
 * H               8     -0.00002             -0.00004              0.00012         *
 * H               9     -0.00024              0.00001              0.00018         *
 * H              10      0.00024             -0.00001             -0.00018         *
 * H              11     -0.00024             -0.00001              0.00018         *
 * H              12      0.00024              0.00001             -0.00018         *
 * H              13     -0.00034              0.00013              0.00014         *
 * H              14      0.00034             -0.00013             -0.00014         *
 * H              15     -0.00034             -0.00013              0.00014         *
 * H              16      0.00034              0.00013             -0.00014         *
 * H              17      0.00047              0.00002              0.00024         *
 * H              18     -0.00047             -0.00002             -0.00024         *
 * H              19      0.00047             -0.00002              0.00024         *
 * H              20     -0.00047              0.00002             -0.00024         *
 * H              21      0.00039              0.00020              0.00019         *
 * H              22     -0.00039             -0.00020             -0.00019         *
 * H              23      0.00039             -0.00020              0.00019         *
 * H              24     -0.00039              0.00020             -0.00019         *
 *                                                                                  *
 ************************************************************************************

 *********** Symmetrised Stress Tensor ***********
 *                                               *
 *          Cartesian components (GPa)           *
 * --------------------------------------------- *
 *             x             y             z     *
 *                                               *
 *  x    -10.001019      0.000000     -0.000789  *
 *  y      0.000000    -10.003091      0.000000  *
 *  z     -0.000789      0.000000     -9.997545  *
 *                                               *
 *  Pressure:   10.0006                          *
 *                                               *
 *************************************************
  
 +------------+-------------+-------------+-----------------+ <-- min LBFGS
 |    Step    |   lambda    |   F.delta'  |    enthalpy     | <-- min LBFGS
 +------------+-------------+-------------+-----------------+ <-- min LBFGS
 |  previous  |    0.000000 |    0.000310 |     -370.571276 | <-- min LBFGS
 | trial step |    1.000000 |    0.000273 |     -370.571277 | <-- min LBFGS
 +------------+-------------+-------------+-----------------+ <-- min LBFGS
  

--------------------------------------------------------------------------------
 LBFGS: improving iteration        13 with line minimization (lambda=  8.445407)
--------------------------------------------------------------------------------

                           -------------------------------
                                      Unit Cell
                           -------------------------------
        Real Lattice(A)              Reciprocal Lattice(1/A)
    11.9306580     0.0000000     0.0054645        0.526189229   0.000000000   0.988475645
     0.0000000     2.4590791     0.0000000        0.000000000   2.555096825   0.000000000
    -7.9542777     0.0000000     4.2342523       -0.000679075   0.000000000   1.482619212

                       Lattice parameters(A)       Cell Angles
                    a =     11.930659          alpha =   90.000000
                    b =      2.459079          beta  =  151.946317
                    c =      9.011072          gamma =   90.000000

                Current cell volume =           124.333211 A**3

                           -------------------------------
                                     Cell Contents
                           -------------------------------

            xxxxxxxxxxxxxxxxxxxxxxxxxxxxxxxxxxxxxxxxxxxxxxxxxxxxxxxxxxxxxxxxx
            x  Element         Atom        Fractional coordinates of atoms  x
            x                 Number           u          v          w      x
            x---------------------------------------------------------------x
            x  H                 1         0.843700   0.616604   0.118049   x
            x  H                 2         0.156300   0.383396   0.881951   x
            x  H                 3         0.843700   0.883396   0.618049   x
            x  H                 4         0.156300   0.116604   0.381951   x
            x  H                 5         0.877379   0.413341   0.214879   x
            x  H                 6         0.122621   0.586659   0.785121   x
            x  H                 7         0.877379   0.086659   0.714879   x
            x  H                 8         0.122621   0.913341   0.285121   x
            x  H                 9         0.851372   0.095659   0.404298   x
            x  H                10         0.148628   0.904341   0.595702   x
            x  H                11         0.851372   0.404341   0.904298   x
            x  H                12         0.148628   0.595659   0.095702   x
            x  H                13         0.758593   0.918658   0.261772   x
            x  H                14         0.241407   0.081342   0.738228   x
            x  H                15         0.758593   0.581342   0.761772   x
            x  H                16         0.241407   0.418658   0.238228   x
            x  H                17         0.566941   0.408563   0.188915   x
            x  H                18         0.433059   0.591437   0.811085   x
            x  H                19         0.566941   0.091437   0.688915   x
            x  H                20         0.433059   0.908563   0.311085   x
            x  H                21         0.487864   0.576348   0.144505   x
            x  H                22         0.512136   0.423652   0.855495   x
            x  H                23         0.487864   0.923652   0.644505   x
            x  H                24         0.512136   0.076348   0.355495   x
            xxxxxxxxxxxxxxxxxxxxxxxxxxxxxxxxxxxxxxxxxxxxxxxxxxxxxxxxxxxxxxxxx


------------------------------------------------------------------------ <-- SCF
SCF loop      Energy                           Energy gain       Timer   <-- SCF
                                               per atom          (sec)   <-- SCF
------------------------------------------------------------------------ <-- SCF
Initial  -3.78331205E+002                                       8648.45  <-- SCF
      1  -3.78331594E+002                    1.62236323E-005    8682.06  <-- SCF
      2  -3.78331595E+002                    4.54989425E-008    8722.72  <-- SCF
      3  -3.78331549E+002                   -1.94796582E-006    8763.59  <-- SCF
      4  -3.78331546E+002                   -1.22774218E-007    8804.36  <-- SCF
      5  -3.78331546E+002                    3.11029705E-009    8845.12  <-- SCF
      6  -3.78331546E+002                    4.66441236E-010    8885.96  <-- SCF
      7  -3.78331546E+002                    1.35746778E-011    8915.28  <-- SCF
      8  -3.78331546E+002                    2.54978370E-012    8944.37  <-- SCF
      9  -3.78331546E+002                    1.96772407E-012    8973.50  <-- SCF
------------------------------------------------------------------------ <-- SCF
 
Final energy =  -378.3315456581     eV
(energy not corrected for finite basis set)
 

 ******************************** Symmetrised Forces ********************************
 *                                                                                  *
 *                           Cartesian components (eV/A)                            *
 * -------------------------------------------------------------------------------- *
 *                         x                    y                    z              *
 *                                                                                  *
 * H               1      0.00017              0.00029             -0.00014         *
 * H               2     -0.00017             -0.00029              0.00014         *
 * H               3      0.00017             -0.00029             -0.00014         *
 * H               4     -0.00017              0.00029              0.00014         *
 * H               5     -0.00066             -0.00035             -0.00000         *
 * H               6      0.00066              0.00035              0.00000         *
 * H               7     -0.00066              0.00035             -0.00000         *
 * H               8      0.00066             -0.00035              0.00000         *
 * H               9      0.00017             -0.00002              0.00011         *
 * H              10     -0.00017              0.00002             -0.00011         *
 * H              11      0.00017              0.00002              0.00011         *
 * H              12     -0.00017             -0.00002             -0.00011         *
 * H              13      0.00007              0.00005             -0.00004         *
 * H              14     -0.00007             -0.00005              0.00004         *
 * H              15      0.00007             -0.00005             -0.00004         *
 * H              16     -0.00007              0.00005              0.00004         *
 * H              17      0.00011             -0.00017              0.00020         *
 * H              18     -0.00011              0.00017             -0.00020         *
 * H              19      0.00011              0.00017              0.00020         *
 * H              20     -0.00011             -0.00017             -0.00020         *
 * H              21     -0.00007              0.00015              0.00009         *
 * H              22      0.00007             -0.00015             -0.00009         *
 * H              23     -0.00007             -0.00015              0.00009         *
 * H              24      0.00007              0.00015             -0.00009         *
 *                                                                                  *
 ************************************************************************************

 *********** Symmetrised Stress Tensor ***********
 *                                               *
 *          Cartesian components (GPa)           *
 * --------------------------------------------- *
 *             x             y             z     *
 *                                               *
 *  x     -9.996610      0.000000     -0.000029  *
 *  y      0.000000    -10.005671      0.000000  *
 *  z     -0.000029      0.000000    -10.001624  *
 *                                               *
 *  Pressure:   10.0013                          *
 *                                               *
 *************************************************
  
 +------------+-------------+-------------+-----------------+ <-- min LBFGS
 |    Step    |   lambda    |   F.delta'  |    enthalpy     | <-- min LBFGS
 +------------+-------------+-------------+-----------------+ <-- min LBFGS
 |  previous  |    0.000000 |    0.000310 |     -370.571276 | <-- min LBFGS
 | trial step |    1.000000 |    0.000273 |     -370.571277 | <-- min LBFGS
 |  line step |    8.445407 | -2.525E-006 |     -370.571278 | <-- min LBFGS
 +------------+-------------+-------------+-----------------+ <-- min LBFGS
  
 LBFGS: finished iteration    13 with enthalpy= -3.70571278E+002 eV
  
 +-----------+-----------------+-----------------+------------+-----+ <-- LBFGS
 | Parameter |      value      |    tolerance    |    units   | OK? | <-- LBFGS
 +-----------+-----------------+-----------------+------------+-----+ <-- LBFGS
 |  dE/ion   |   1.046947E-007 |   1.000000E-009 |         eV | No  | <-- LBFGS
 |  |F|max   |   7.464250E-004 |   1.000000E-005 |       eV/A | No  | <-- LBFGS
 |  |dR|max  |   1.031831E-003 |   1.000000E-005 |          A | No  | <-- LBFGS
 |   Smax    |   5.671461E-003 |   1.000000E-005 |        GPa | No  | <-- LBFGS
 +-----------+-----------------+-----------------+------------+-----+ <-- LBFGS
  

================================================================================
 Starting LBFGS iteration         14 ...
================================================================================
  
 +------------+-------------+-------------+-----------------+ <-- min LBFGS
 |    Step    |   lambda    |   F.delta'  |    enthalpy     | <-- min LBFGS
 +------------+-------------+-------------+-----------------+ <-- min LBFGS
 |  previous  |    0.000000 |    0.000105 |     -370.571278 | <-- min LBFGS
 +------------+-------------+-------------+-----------------+ <-- min LBFGS
  

--------------------------------------------------------------------------------
 LBFGS: starting iteration        14 with trial guess (lambda=  1.000000)
--------------------------------------------------------------------------------

                           -------------------------------
                                      Unit Cell
                           -------------------------------
        Real Lattice(A)              Reciprocal Lattice(1/A)
    11.9305297     0.0000000     0.0054650        0.526194859   0.000000000   0.988464933
     0.0000000     2.4591150     0.0000000        0.000000000   2.555059618   0.000000000
    -7.9541920     0.0000000     4.2342978       -0.000679128   0.000000000   1.482603172

                       Lattice parameters(A)       Cell Angles
                    a =     11.930531          alpha =   90.000000
                    b =      2.459115          beta  =  151.945802
                    c =      9.011018          gamma =   90.000000

                Current cell volume =           124.335029 A**3

                           -------------------------------
                                     Cell Contents
                           -------------------------------

            xxxxxxxxxxxxxxxxxxxxxxxxxxxxxxxxxxxxxxxxxxxxxxxxxxxxxxxxxxxxxxxxx
            x  Element         Atom        Fractional coordinates of atoms  x
            x                 Number           u          v          w      x
            x---------------------------------------------------------------x
            x  H                 1         0.843703   0.616629   0.118052   x
            x  H                 2         0.156297   0.383371   0.881948   x
            x  H                 3         0.843703   0.883371   0.618052   x
            x  H                 4         0.156297   0.116629   0.381948   x
            x  H                 5         0.877372   0.413357   0.214872   x
            x  H                 6         0.122628   0.586643   0.785128   x
            x  H                 7         0.877372   0.086643   0.714872   x
            x  H                 8         0.122628   0.913357   0.285128   x
            x  H                 9         0.851377   0.095666   0.404302   x
            x  H                10         0.148623   0.904334   0.595698   x
            x  H                11         0.851377   0.404334   0.904302   x
            x  H                12         0.148623   0.595666   0.095698   x
            x  H                13         0.758595   0.918674   0.261774   x
            x  H                14         0.241405   0.081326   0.738226   x
            x  H                15         0.758595   0.581326   0.761774   x
            x  H                16         0.241405   0.418674   0.238226   x
            x  H                17         0.566945   0.408567   0.188919   x
            x  H                18         0.433055   0.591433   0.811081   x
            x  H                19         0.566945   0.091433   0.688919   x
            x  H                20         0.433055   0.908567   0.311081   x
            x  H                21         0.487869   0.576368   0.144510   x
            x  H                22         0.512131   0.423632   0.855490   x
            x  H                23         0.487869   0.923632   0.644510   x
            x  H                24         0.512131   0.076368   0.355490   x
            xxxxxxxxxxxxxxxxxxxxxxxxxxxxxxxxxxxxxxxxxxxxxxxxxxxxxxxxxxxxxxxxx


------------------------------------------------------------------------ <-- SCF
SCF loop      Energy                           Energy gain       Timer   <-- SCF
                                               per atom          (sec)   <-- SCF
------------------------------------------------------------------------ <-- SCF
Initial  -3.78331651E+002                                       8999.90  <-- SCF
      1  -3.78331659E+002                    3.24431497E-007    9034.10  <-- SCF
      2  -3.78331659E+002                    6.39014867E-010    9075.26  <-- SCF
      3  -3.78331659E+002                   -7.91273609E-009    9116.64  <-- SCF
      4  -3.78331659E+002                   -2.66261062E-010    9157.84  <-- SCF
