 +-------------------------------------------------+
 |                                                 |
 |      CCC   AA    SSS  TTTTT  EEEEE  PPPP        |
 |     C     A  A  S       T    E      P   P       |
 |     C     AAAA   SS     T    EEE    PPPP        |
 |     C     A  A     S    T    E      P           |
 |      CCC  A  A  SSS     T    EEEEE  P           |
 |                                                 |
 +-------------------------------------------------+
 |                                                 |
 | Welcome to Academic Release CASTEP version 18.1 |          
 | Ab Initio Total Energy Program                  |
 |                                                 |
 | Authors:                                        |
 | M. Segall, M. Probert, C. Pickard, P. Hasnip,   |
 | S. Clark, K. Refson, J. R. Yates, M. Payne      |
 |                                                 |
 | Contributors:                                   |
 | P. Lindan, P. Haynes, J. White, V. Milman,      |
 | N. Govind, M. Gibson, P. Tulip, V. Cocula,      |
 | B. Montanari, D. Quigley, M. Glover,            |
 | L. Bernasconi, A. Perlov, M. Plummer,           |
 | E. McNellis, J. Meyer, J. Gale, D. Jochym       |
 | J. Aarons, B. Walker, R. Gillen, D. Jones       |
 | T. Green, I. J. Bush, C. J. Armstrong,          |
 | E. J. Higgins, E. L. Brown, M. S. McFly,        |
 | J. Wilkins, B-C. Shih, P. J. P. Byrne           |
 |                                                 |
 | Copyright (c) 2000 - 2017                       |
 |                                                 |
 |     Distributed under the terms of an           |
 |     Agreement between the United Kingdom        |
 |     Car-Parrinello (UKCP) Consortium,           |
 |     Daresbury Laboratory and Accelrys, Inc.     |
 |                                                 |
 | Please cite                                     |
 |                                                 |
 |     "First principles methods using CASTEP"     |
 |                                                 |
 |         Zeitschrift fuer Kristallographie       |
 |           220(5-6) pp. 567-570 (2005)           |
 |                                                 |
 | S. J. Clark, M. D. Segall, C. J. Pickard,       |
 | P. J. Hasnip, M. J. Probert, K. Refson,         |
 | M. C. Payne                                     |
 |                                                 |
 |       in all publications arising from          |
 |              your use of CASTEP                 |
 |                                                 |
 +-------------------------------------------------+


 Compiled for linux_x86_64_gfortran4.8 on Thu, 19 Jul 2018 15:42:32 +0100
 from code version 70483bd0ad64+  Sun, 10 Dec 2017 12:18:29 +0000
 Compiler: GNU Fortran 4.8.5; Optimisation: fast
 MATHLIBS: Intel MKL(2018.0.0) (LAPACK version 3.7.0)
 FFT Lib : mkl
 Fundamental constants values: CODATA 2014

 Run started: Mon, 22 Jun 2020 14:11:18 +0100

 Atomic calculation performed for Si: 1s2 2s2 2p6 3s2 3p2

 Converged in 55 iterations to an ae energy of -7859.183 eV

   ============================================================                
   | Pseudopotential Report - Date of generation 22-06-2020   |                
   ------------------------------------------------------------                
   | Element: Si Ionic charge:  4.00 Level of theory: LDA     |                
   | Atomic Solver: Koelling-Harmon                           |                
   |                                                          |                
   |               Reference Electronic Structure             |                
   |         Orbital         Occupation         Energy        |                
   |            3s              2.000           -0.400        |                
   |            3p              2.000           -0.153        |                
   |                                                          |                
   |                 Pseudopotential Definition               |                
   |        Beta     l      e      Rc     scheme   norm       |                
   |          1      0   -0.400   1.797     qc      0         |                
   |          2      0    0.250   1.797     qc      0         |                
   |          3      1   -0.153   1.797     qc      0         |                
   |          4      1    0.250   1.797     qc      0         |                
   |          5      2    0.000   1.797     qc      0         |                
   |          6      2    0.250   1.797     qc      0         |                
   |         loc     3    0.000   1.797     pn      0         |                
   |                                                          |                
   | Augmentation charge Rinner = 1.255                       |                
   | Partial core correction Rc = 1.255                       |                
   ------------------------------------------------------------                
   | "3|1.8|5|6|7|30:31:32"                                   |                
   ------------------------------------------------------------                
   |      Author: Chris J. Pickard, Cambridge University      |                
   ============================================================                

 Pseudo atomic calculation performed for Si 3s2 3p2

 Converged in 16 iterations to a total energy of -162.9815 eV

 Calculation parallelised over 16 processes.
 Data is distributed by G-vector(8-way) and k-point(2-way)

 ************************************ Title ************************************
 

 ***************************** General Parameters ******************************
  
 output verbosity                               : normal  (1)
 write checkpoint data to                       : Si2.check
 type of calculation                            : band structure
 stress calculation                             : off
 density difference calculation                 : off
 electron localisation func (ELF) calculation   : off
 Hirshfeld analysis                             : off
 unlimited duration calculation
 timing information                             : on
 memory usage estimate                          : on
 write extra output files                       : on
 write final potential to formatted file        : off
 write final density to formatted file          : on
 write BibTeX reference list                    : on
 write OTFG pseudopotential files               : on
 write electrostatic potential file             : on
 write bands file                               : on
 checkpoint writing                             : both castep_bin and check files
  
 output         length unit                     : A
 output           mass unit                     : amu
 output           time unit                     : ps
 output         charge unit                     : e
 output           spin unit                     : hbar/2
 output         energy unit                     : eV
 output          force unit                     : eV/A
 output       velocity unit                     : A/ps
 output       pressure unit                     : GPa
 output     inv_length unit                     : 1/A
 output      frequency unit                     : cm-1
 output force constant unit                     : eV/A**2
 output         volume unit                     : A**3
 output   IR intensity unit                     : (D/A)**2/amu
 output         dipole unit                     : D
 output         efield unit                     : eV/A/e
 output        entropy unit                     : J/mol/K
  
 wavefunctions paging                           : none
 random number generator seed                   : randomised (141119018)
 data distribution                              : optimal for this architecture
 optimization strategy                          : maximize speed(+++)

 *********************** Exchange-Correlation Parameters ***********************
  
 using functional                               : Local Density Approximation
 relativistic treatment                         : Koelling-Harmon
 DFT+D: Semi-empirical dispersion correction    : off

 ************************* Pseudopotential Parameters **************************
  
 pseudopotential representation                 : reciprocal space
 <beta|phi> representation                      : reciprocal space
 spin-orbit coupling                            : off

 **************************** Basis Set Parameters *****************************
  
 basis set accuracy                             : MEDIUM
 plane wave basis set cut-off                   :   163.2683   eV
 size of standard grid                          :     1.7500
 size of   fine   gmax                          :    11.4559   1/A
 finite basis set correction                    : none

 **************************** Electronic Parameters ****************************
  
 number of  electrons                           :  8.000    
 net charge of system                           :  0.000    
 treating system as non-spin-polarized
 number of bands                                :          4

 ********************* Electronic Minimization Parameters **********************
  
 Method: Treating system as non-metallic,
         and number of  SD  steps               :          1
         and number of  CG  steps               :          4
  
 total energy / atom convergence tol.           : 0.1000E-04   eV
 max force / atom convergence tol.              : ignored
 convergence tolerance window                   :          3   cycles
 max. number of SCF cycles                      :         30
 periodic dipole correction                     : NONE

 *********************** Population Analysis Parameters ************************
  
 Population analysis with cutoff                :  3.000       A
 Population analysis output                     : summary and pdos components

 ************************** Band Structure Parameters **************************
  
 max. number of iterations                      :         60
 max. CG steps in BS calc                       :         25
 number of bands / k-point                      :         14
 band convergence tolerance                     : 0.1000E-05   eV
 write orbitals file                            : on

 *******************************************************************************
  

                           -------------------------------
                                      Unit Cell
                           -------------------------------
        Real Lattice(A)                      Reciprocal Lattice(1/A)
     2.6954645     2.6954645     0.0000000        1.165510677   1.165510677  -1.165510677
     2.6954645     0.0000000     2.6954645        1.165510677  -1.165510677   1.165510677
     0.0000000     2.6954645     2.6954645       -1.165510677   1.165510677   1.165510677

                       Lattice parameters(A)       Cell Angles
                    a =      3.811962          alpha =   60.000000
                    b =      3.811962          beta  =   60.000000
                    c =      3.811962          gamma =   60.000000

                       Current cell volume =            39.167950       A**3
                                   density =             1.434106   AMU/A**3
                                           =             2.381389     g/cm^3

                           -------------------------------
                                     Cell Contents
                           -------------------------------
                         Total number of ions in cell =    2
                      Total number of species in cell =    1
                        Max number of any one species =    2

            xxxxxxxxxxxxxxxxxxxxxxxxxxxxxxxxxxxxxxxxxxxxxxxxxxxxxxxxxxxx
            x  Element    Atom        Fractional coordinates of atoms  x
            x            Number           u          v          w      x
            x----------------------------------------------------------x
            x  Si           1         0.000000   0.000000   0.000000   x 
            x  Si           2         0.250000   0.250000   0.250000   x 
            xxxxxxxxxxxxxxxxxxxxxxxxxxxxxxxxxxxxxxxxxxxxxxxxxxxxxxxxxxxx


                         No user defined ionic velocities

                           -------------------------------
                                   Details of Species
                           -------------------------------

                               Mass of species in AMU
                                    Si   28.0855000

                          Electric Quadrupole Moment (Barn)
                                    Si    1.0000000 No Isotope Defined

                          Files used for pseudopotentials:
                                    Si 3|1.8|5|6|7|30:31:32

                           -------------------------------
                              k-Points For BZ Sampling
                           -------------------------------
                       MP grid size for SCF calculation is  4  4  4
                            with an offset of   0.000  0.000  0.000
                       Number of kpoints used =            10

                           -------------------------------
                               Symmetry and Constraints
                           -------------------------------

                      Maximum deviation from symmetry =  0.00000         ANG

                      Number of symmetry operations   =          48
                      Number of ionic constraints     =           3
                      Point group of crystal =    32: Oh, m-3m, 4/m -3 2/m
                      Space group of crystal =   227: Fd-3m, F 4d 2 3 -1d

             Set iprint > 1 for details on symmetry rotations/translations

                         Centre of mass is constrained
             Set iprint > 1 for details of linear ionic constraints

                         Number of cell constraints= 5
                         Cell constraints are:  1 1 1 0 0 0

                         External pressure/stress (GPa)
                          0.00000   0.00000   0.00000
                                    0.00000   0.00000
                                              0.00000
  
+---------------- MEMORY AND SCRATCH DISK ESTIMATES PER PROCESS --------------+
|                                                     Memory          Disk    |
| Baseline code, static data and system overhead      409.0 MB         0.0 MB |
| BLAS internal memory storage                          0.0 MB         0.0 MB |
| Model and support data                               15.2 MB         0.0 MB |
| Electronic energy minimisation requirements           0.2 MB         0.0 MB |
| Force calculation requirements                        0.1 MB         0.0 MB |
|                                               ----------------------------- |
| Approx. total storage required per process          424.4 MB         0.0 MB |
|                                                                             |
| Requirements will fluctuate during execution and may exceed these estimates |
+-----------------------------------------------------------------------------+
Calculating total energy with cut-off of  163.268 eV.
------------------------------------------------------------------------ <-- SCF
SCF loop      Energy                           Energy gain       Timer   <-- SCF
                                               per atom          (sec)   <-- SCF
------------------------------------------------------------------------ <-- SCF
Initial   4.67635162E+001                                         19.30  <-- SCF
      1  -3.25445654E+002                    1.86104585E+002      19.49  <-- SCF
      2  -3.37843229E+002                    6.19878724E+000      19.67  <-- SCF
      3  -3.37909446E+002                    3.31086170E-002      19.85  <-- SCF
      4  -3.37909552E+002                    5.31528013E-005      20.03  <-- SCF
      5  -3.37909553E+002                    2.31537302E-007      20.21  <-- SCF
      6  -3.37909553E+002                    1.02788911E-010      20.48  <-- SCF
------------------------------------------------------------------------ <-- SCF
 
Final energy =  -337.9095527104     eV
(energy not corrected for finite basis set)
 

Writing analysis data to Si2.castep_bin

Writing model to Si2.check
  
+---------------- MEMORY AND SCRATCH DISK ESTIMATES PER PROCESS --------------+
|                                                     Memory          Disk    |
| Baseline code, static data and system overhead      409.0 MB         0.0 MB |
| BLAS internal memory storage                          0.0 MB         0.0 MB |
| Model and support data                               15.9 MB         0.0 MB |
| Band structure calculation requirements               0.6 MB         0.0 MB |
| Force calculation requirements                        0.2 MB         0.0 MB |
|                                               ----------------------------- |
| Approx. total storage required per process          425.5 MB         0.0 MB |
|                                                                             |
| Requirements will fluctuate during execution and may exceed these estimates |
+-----------------------------------------------------------------------------+
  =====================================================================
  +  Fermi energy for spin-degenerate system:     4.28504 eV          +
  +                                                                   +
  +       B A N D   S T R U C T U R E   C A L C U L A T I O N         +
  +      (General k-point calculation - complex wavefunctions)        +
  +                                                                   +
  + Calculation re-parallelised over 16 processes.                    +
  + Data distributed by G-vector(4-way), k-point(4-way)               +
  +                                                                   +
  + ================================================================= +
  +                                                                   +
  +     Band Structure Calculation: Progress report on root process   +
  +                                                                   +
  +   There are   44 BS k-points. Root process contains   11 of them. +
  +                                                                   +
  +   Spin= 1 of  1, K-point=   1 of   11 completed, Time:     0.31s. +
  +   Spin= 1 of  1, K-point=   2 of   11 completed, Time:     0.35s. +
  +   Spin= 1 of  1, K-point=   3 of   11 completed, Time:     0.32s. +
  +   Spin= 1 of  1, K-point=   4 of   11 completed, Time:     0.31s. +
  +   Spin= 1 of  1, K-point=   5 of   11 completed, Time:     0.31s. +
  +   Spin= 1 of  1, K-point=   6 of   11 completed, Time:     0.29s. +
  +   Spin= 1 of  1, K-point=   7 of   11 completed, Time:     0.31s. +
  +   Spin= 1 of  1, K-point=   8 of   11 completed, Time:     0.32s. +
  +   Spin= 1 of  1, K-point=   9 of   11 completed, Time:     0.32s. +
  +   Spin= 1 of  1, K-point=  10 of   11 completed, Time:     0.31s. +
  +   Spin= 1 of  1, K-point=  11 of   11 completed, Time:     0.33s. +
  +   Finished BS calculation on root process (waiting for others).   +
  +                                                                   +
  + ================================================================= +
  +                       Electronic energies                         +
  +                       -------------------                         +
  +                                                                   +
  +   Band number   Energy in eV                                      +
  + ================================================================= +
  +                                                                   +
  + ----------------------------------------------------------------- +
  +  Spin=1 kpt=    1 (  0.500000  0.250000  0.750000) kpt-group=  1  +
  + ----------------------------------------------------------------- +
  +                                                                   +
  +           1       -3.134726                                       +
  +           2       -3.131182                                       +
  +           3        0.595469                                       +
  +           4        0.596014                                       +
  +           5        8.791105                                       +
  +           6        8.793170                                       +
  +           7        9.587303                                       +
  +           8        9.591728                                       +
  +           9       15.232002                                       +
  +          10       15.234188                                       +
  +          11       17.758974                                       +
  +          12       17.760292                                       +
  +          13       21.063882                                       +
  +          14       21.065532                                       +
  + ----------------------------------------------------------------- +
  +  Spin=1 kpt=    2 (  0.500000  0.361111  0.638889) kpt-group=  1  +
  + ----------------------------------------------------------------- +
  +                                                                   +
  +           1       -4.457511                                       +
  +           2       -2.291772                                       +
  +           3        0.800957                                       +
  +           4        2.150758                                       +
  +           5        7.701568                                       +
  +           6        7.793464                                       +
  +           7       11.066061                                       +
  +           8       11.352429                                       +
  +           9       11.710668                                       +
  +          10       15.455647                                       +
  +          11       16.448693                                       +
  +          12       17.311434                                       +
  +          13       20.600687                                       +
  +          14       20.858236                                       +
  + ----------------------------------------------------------------- +
  +  Spin=1 kpt=    3 (  0.500000  0.472222  0.527778) kpt-group=  1  +
  + ----------------------------------------------------------------- +
  +                                                                   +
  +           1       -5.093566                                       +
  +           2       -2.506150                                       +
  +           3        3.109448                                       +
  +           4        3.303088                                       +
  +           5        6.328444                                       +
  +           6        7.847078                                       +
  +           7        8.010415                                       +
  +           8       12.274331                                       +
  +           9       14.615500                                       +
  +          10       15.009822                                       +
  +          11       16.005677                                       +
  +          12       16.161784                                       +
  +          13       16.677214                                       +
  +          14       17.892181                                       +
  + ----------------------------------------------------------------- +
  +  Spin=1 kpt=    4 (  0.363636  0.363636  0.363636) kpt-group=  1  +
  + ----------------------------------------------------------------- +
  +                                                                   +
  +           1       -5.880870                                       +
  +           2       -1.300468                                       +
  +           3        3.489087                                       +
  +           4        3.490530                                       +
  +           5        6.259007                                       +
  +           6        8.036089                                       +
  +           7        8.040280                                       +
  +           8       12.336142                                       +
  +           9       13.062791                                       +
  +          10       13.063738                                       +
  +          11       14.110004                                       +
  +          12       18.590896                                       +
  +          13       18.757608                                       +
  +          14       18.758886                                       +
  + ----------------------------------------------------------------- +
  +  Spin=1 kpt=    5 (  0.181818  0.181818  0.181818) kpt-group=  1  +
  + ----------------------------------------------------------------- +
  +                                                                   +
  +           1       -7.085333                                       +
  +           2        1.882316                                       +
  +           3        4.057077                                       +
  +           4        4.058531                                       +
  +           5        6.893030                                       +
  +           6        7.866074                                       +
  +           7        7.870352                                       +
  +           8       10.382064                                       +
  +           9       11.713958                                       +
  +          10       11.715084                                       +
  +          11       13.589835                                       +
  +          12       15.275759                                       +
  +          13       18.067216                                       +
  +          14       18.069824                                       +
  + ----------------------------------------------------------------- +
  +  Spin=1 kpt=    6 (  0.000000  0.000000  0.000000) kpt-group=  1  +
  + ----------------------------------------------------------------- +
  +                                                                   +
  +           1       -7.520818                                       +
  +           2        4.583738                                       +
  +           3        4.584837                                       +
  +           4        4.586528                                       +
  +           5        7.126373                                       +
  +           6        7.128742                                       +
  +           7        7.132153                                       +
  +           8        8.082517                                       +
  +           9       12.369747                                       +
  +          10       12.441463                                       +
  +          11       12.443055                                       +
  +          12       15.806579                                       +
  +          13       15.808650                                       +
  +          14       15.810611                                       +
  + ----------------------------------------------------------------- +
  +  Spin=1 kpt=    7 (  0.166667  0.000000  0.166667) kpt-group=  1  +
  + ----------------------------------------------------------------- +
  +                                                                   +
  +           1       -7.030314                                       +
  +           2        2.563384                                       +
  +           3        3.349122                                       +
  +           4        3.349871                                       +
  +           5        6.228433                                       +
  +           6        8.903509                                       +
  +           7        8.956639                                       +
  +           8        8.960351                                       +
  +           9       11.291481                                       +
  +          10       12.990443                                       +
  +          11       14.215609                                       +
  +          12       16.662431                                       +
  +          13       16.666673                                       +
  +          14       17.253454                                       +
  + ----------------------------------------------------------------- +
  +  Spin=1 kpt=    8 (  0.333333  0.000000  0.333333) kpt-group=  1  +
  + ----------------------------------------------------------------- +
  +                                                                   +
  +           1       -5.588357                                       +
  +           2       -0.452625                                       +
  +           3        2.095934                                       +
  +           4        2.096589                                       +
  +           5        5.203752                                       +
  +           6        6.466709                                       +
  +           7       11.884761                                       +
  +           8       11.888422                                       +
  +           9       14.542790                                       +
  +          10       14.589599                                       +
  +          11       17.589460                                       +
  +          12       18.175590                                       +
  +          13       18.181329                                       +
  +          14       19.726753                                       +
  + ----------------------------------------------------------------- +
  +  Spin=1 kpt=    9 (  0.500000  0.000000  0.500000) kpt-group=  1  +
  + ----------------------------------------------------------------- +
  +                                                                   +
  +           1       -3.307066                                       +
  +           2       -3.302041                                       +
  +           3        1.653574                                       +
  +           4        1.654288                                       +
  +           5        5.164608                                       +
  +           6        5.168570                                       +
  +           7       14.748167                                       +
  +           8       14.754551                                       +
  +           9       15.667943                                       +
  +          10       15.669150                                       +
  +          11       17.282336                                       +
  +          12       17.285057                                       +
  +          13       17.689686                                       +
  +          14       17.693895                                       +
  + ----------------------------------------------------------------- +
  +  Spin=1 kpt=   10 (  0.500000  0.166667  0.666667) kpt-group=  1  +
  + ----------------------------------------------------------------- +
  +                                                                   +
  +           1       -3.176108                                       +
  +           2       -3.171629                                       +
  +           3        0.815053                                       +
  +           4        0.815343                                       +
  +           5        7.261983                                       +
  +           6        7.264869                                       +
  +           7       11.371697                                       +
  +           8       11.375612                                       +
  +           9       15.242389                                       +
  +          10       15.244772                                       +
  +          11       17.689667                                       +
  +          12       17.692135                                       +
  +          13       21.163986                                       +
  +          14       21.165412                                       +
  + ----------------------------------------------------------------- +
  +  Spin=1 kpt=   11 (  0.450000  0.300000  0.750000) kpt-group=  1  +
  + ----------------------------------------------------------------- +
  +                                                                   +
  +           1       -3.501000                                       +
  +           2       -2.812408                                       +
  +           3        0.303124                                       +
  +           4        1.192471                                       +
  +           5        7.230245                                       +
  +           6        8.792714                                       +
  +           7       10.478406                                       +
  +           8       10.657098                                       +
  +           9       14.235673                                       +
  +          10       15.257450                                       +
  +          11       17.615397                                       +
  +          12       18.799427                                       +
  +          13       20.371407                                       +
  +          14       21.350600                                       +
  + ----------------------------------------------------------------- +
  +  Spin=1 kpt=    1 (  0.500000  0.277778  0.722222) kpt-group=  2  +
  + ----------------------------------------------------------------- +
  +                                                                   +
  +           1       -3.495903                                       +
  +           2       -2.778812                                       +
  +           3        0.374738                                       +
  +           4        0.920613                                       +
  +           5        8.454313                                       +
  +           6        8.812849                                       +
  +           7        9.608534                                       +
  +           8       10.021866                                       +
  +           9       14.404202                                       +
  +          10       15.715806                                       +
  +          11       17.219256                                       +
  +          12       18.594721                                       +
  +          13       20.294094                                       +
  +          14       21.612144                                       +
  + ----------------------------------------------------------------- +
  +  Spin=1 kpt=    2 (  0.500000  0.388889  0.611111) kpt-group=  2  +
  + ----------------------------------------------------------------- +
  +                                                                   +
  +           1       -4.697426                                       +
  +           2       -2.329315                                       +
  +           3        1.312095                                       +
  +           4        2.547192                                       +
  +           5        7.479250                                       +
  +           6        7.622729                                       +
  +           7       10.006903                                       +
  +           8       12.082568                                       +
  +           9       12.261643                                       +
  +          10       14.929830                                       +
  +          11       16.286368                                       +
  +          12       16.827933                                       +
  +          13       19.786598                                       +
  +          14       19.865615                                       +
  + ----------------------------------------------------------------- +
  +  Spin=1 kpt=    3 (  0.500000  0.500000  0.500000) kpt-group=  2  +
  + ----------------------------------------------------------------- +
  +                                                                   +
  +           1       -5.121083                                       +
  +           2       -2.521807                                       +
  +           3        3.354480                                       +
  +           4        3.355931                                       +
  +           5        6.108474                                       +
  +           6        7.895619                                       +
  +           7        7.899636                                       +
  +           8       12.143585                                       +
  +           9       15.290289                                       +
  +          10       15.292236                                       +
  +          11       15.934217                                       +
  +          12       16.006972                                       +
  +          13       16.009289                                       +
  +          14       17.679650                                       +
  + ----------------------------------------------------------------- +
  +  Spin=1 kpt=    4 (  0.318182  0.318182  0.318182) kpt-group=  2  +
  + ----------------------------------------------------------------- +
  +                                                                   +
  +           1       -6.233409                                       +
  +           2       -0.591309                                       +
  +           3        3.593031                                       +
  +           4        3.594469                                       +
  +           5        6.374923                                       +
  +           6        8.095417                                       +
  +           7        8.099723                                       +
  +           8       12.305516                                       +
  +           9       12.440449                                       +
  +          10       12.441428                                       +
  +          11       13.531897                                       +
  +          12       17.876935                                       +
  +          13       19.625033                                       +
  +          14       19.626718                                       +
  + ----------------------------------------------------------------- +
  +  Spin=1 kpt=    5 (  0.136364  0.136364  0.136364) kpt-group=  2  +
  + ----------------------------------------------------------------- +
  +                                                                   +
  +           1       -7.275659                                       +
  +           2        2.751488                                       +
  +           3        4.239001                                       +
  +           4        4.240488                                       +
  +           5        7.061084                                       +
  +           6        7.626619                                       +
  +           7        7.630766                                       +
  +           8        9.581712                                       +
  +           9       11.856817                                       +
  +          10       11.858022                                       +
  +          11       13.294189                                       +
  +          12       15.169516                                       +
  +          13       17.226231                                       +
  +          14       17.228872                                       +
  + ----------------------------------------------------------------- +
  +  Spin=1 kpt=    6 (  0.041667  0.000000  0.041667) kpt-group=  2  +
  + ----------------------------------------------------------------- +
  +                                                                   +
  +           1       -7.493068                                       +
  +           2        4.390200                                       +
  +           3        4.449252                                       +
  +           4        4.451457                                       +
  +           5        7.050171                                       +
  +           6        7.295397                                       +
  +           7        7.300647                                       +
  +           8        8.270480                                       +
  +           9       12.183685                                       +
  +          10       12.476734                                       +
  +          11       12.506127                                       +
  +          12       15.852271                                       +
  +          13       15.856270                                       +
  +          14       15.985787                                       +
  + ----------------------------------------------------------------- +
  +  Spin=1 kpt=    7 (  0.208333  0.000000  0.208333) kpt-group=  2  +
  + ----------------------------------------------------------------- +
  +                                                                   +
  +           1       -6.758300                                       +
  +           2        1.824300                                       +
  +           3        2.973241                                       +
  +           4        2.973872                                       +
  +           5        5.909644                                       +
  +           6        8.297685                                       +
  +           7        9.649953                                       +
  +           8        9.653516                                       +
  +           9       11.941804                                       +
  +          10       13.296396                                       +
  +          11       15.038607                                       +
  +          12       17.116859                                       +
  +          13       17.121354                                       +
  +          14       17.729636                                       +
  + ----------------------------------------------------------------- +
  +  Spin=1 kpt=    8 (  0.375000  0.000000  0.375000) kpt-group=  2  +
  + ----------------------------------------------------------------- +
  +                                                                   +
  +           1       -5.086809                                       +
  +           2       -1.197556                                       +
  +           3        1.903882                                       +
  +           4        1.904560                                       +
  +           5        5.086984                                       +
  +           6        6.005250                                       +
  +           7       12.669621                                       +
  +           8       12.673451                                       +
  +           9       15.164456                                       +
  +          10       15.425642                                       +
  +          11       17.724219                                       +
  +          12       17.729054                                       +
  +          13       18.172216                                       +
  +          14       19.976985                                       +
  + ----------------------------------------------------------------- +
  +  Spin=1 kpt=    9 (  0.500000  0.041667  0.541667) kpt-group=  2  +
  + ----------------------------------------------------------------- +
  +                                                                   +
  +           1       -3.296088                                       +
  +           2       -3.291090                                       +
  +           3        1.558918                                       +
  +           4        1.559502                                       +
  +           5        5.336777                                       +
  +           6        5.340579                                       +
  +           7       14.441242                                       +
  +           8       14.446918                                       +
  +           9       15.410911                                       +
  +          10       15.411316                                       +
  +          11       17.434717                                       +
  +          12       17.437717                                       +
  +          13       18.131360                                       +
  +          14       18.134646                                       +
  + ----------------------------------------------------------------- +
  +  Spin=1 kpt=   10 (  0.500000  0.208333  0.708333) kpt-group=  2  +
  + ----------------------------------------------------------------- +
  +                                                                   +
  +           1       -3.143450                                       +
  +           2       -3.139374                                       +
  +           3        0.652780                                       +
  +           4        0.653124                                       +
  +           5        8.130731                                       +
  +           6        8.133311                                       +
  +           7       10.315796                                       +
  +           8       10.319815                                       +
  +           9       15.236624                                       +
  +          10       15.238958                                       +
  +          11       17.750469                                       +
  +          12       17.752374                                       +
  +          13       21.138280                                       +
  +          14       21.139626                                       +
  + ----------------------------------------------------------------- +
  +  Spin=1 kpt=   11 (  0.425000  0.325000  0.750000) kpt-group=  2  +
  + ----------------------------------------------------------------- +
  +                                                                   +
  +           1       -3.619202                                       +
  +           2       -2.747817                                       +
  +           3        0.208870                                       +
  +           4        1.594805                                       +
  +           5        6.457763                                       +
  +           6        8.725458                                       +
  +           7       11.067747                                       +
  +           8       11.402334                                       +
  +           9       13.653682                                       +
  +          10       14.607458                                       +
  +          11       18.145147                                       +
  +          12       19.347800                                       +
  +          13       20.149588                                       +
  +          14       21.091298                                       +
  + ----------------------------------------------------------------- +
  +  Spin=1 kpt=    1 (  0.500000  0.305556  0.694444) kpt-group=  3  +
  + ----------------------------------------------------------------- +
  +                                                                   +
  +           1       -3.851326                                       +
  +           2       -2.498983                                       +
  +           3        0.308942                                       +
  +           4        1.307948                                       +
  +           5        8.126217                                       +
  +           6        8.480777                                       +
  +           7       10.078056                                       +
  +           8       10.548486                                       +
  +           9       13.331496                                       +
  +          10       15.864863                                       +
  +          11       16.882647                                       +
  +          12       18.933810                                       +
  +          13       20.057073                                       +
  +          14       21.942560                                       +
  + ----------------------------------------------------------------- +
  +  Spin=1 kpt=    2 (  0.500000  0.416667  0.583333) kpt-group=  3  +
  + ----------------------------------------------------------------- +
  +                                                                   +
  +           1       -4.884957                                       +
  +           2       -2.395999                                       +
  +           3        1.919955                                       +
  +           4        2.886960                                       +
  +           5        7.156111                                       +
  +           6        7.644048                                       +
  +           7        9.084794                                       +
  +           8       12.623129                                       +
  +           9       12.878854                                       +
  +          10       14.509038                                       +
  +          11       16.157736                                       +
  +          12       16.550099                                       +
  +          13       18.722822                                       +
  +          14       19.120312                                       +
  + ----------------------------------------------------------------- +
  +  Spin=1 kpt=    3 (  0.454545  0.454545  0.454545) kpt-group=  3  +
  + ----------------------------------------------------------------- +
  +                                                                   +
  +           1       -5.239481                                       +
  +           2       -2.351376                                       +
  +           3        3.369500                                       +
  +           4        3.370949                                       +
  +           5        6.125655                                       +
  +           6        7.913569                                       +
  +           7        7.917605                                       +
  +           8       12.171491                                       +
  +           9       14.647546                                       +
  +          10       14.648605                                       +
  +          11       15.566168                                       +
  +          12       16.714270                                       +
  +          13       16.715612                                       +
  +          14       18.014553                                       +
  + ----------------------------------------------------------------- +
  +  Spin=1 kpt=    4 (  0.272727  0.272727  0.272727) kpt-group=  3  +
  + ----------------------------------------------------------------- +
  +                                                                   +
  +           1       -6.561744                                       +
  +           2        0.186683                                       +
  +           3        3.724590                                       +
  +           4        3.726025                                       +
  +           5        6.510407                                       +
  +           6        8.107881                                       +
  +           7        8.112278                                       +
  +           8       11.876249                                       +
  +           9       11.980233                                       +
  +          10       11.981277                                       +
  +          11       13.392393                                       +
  +          12       16.878192                                       +
  +          13       19.669882                                       +
  +          14       19.672413                                       +
  + ----------------------------------------------------------------- +
  +  Spin=1 kpt=    5 (  0.090909  0.090909  0.090909) kpt-group=  3  +
  + ----------------------------------------------------------------- +
  +                                                                   +
  +           1       -7.412868                                       +
  +           2        3.585304                                       +
  +           3        4.408439                                       +
  +           4        4.409984                                       +
  +           5        7.183712                                       +
  +           6        7.381349                                       +
  +           7        7.385431                                       +
  +           8        8.830943                                       +
  +           9       12.100308                                       +
  +          10       12.101651                                       +
  +          11       12.835987                                       +
  +          12       15.412301                                       +
  +          13       16.507720                                       +
  +          14       16.510460                                       +
  + ----------------------------------------------------------------- +
  +  Spin=1 kpt=    6 (  0.083333  0.000000  0.083333) kpt-group=  3  +
  + ----------------------------------------------------------------- +
  +                                                                   +
  +           1       -7.400275                                       +
  +           2        3.902822                                       +
  +           3        4.133415                                       +
  +           4        4.134943                                       +
  +           5        6.838857                                       +
  +           6        7.725243                                       +
  +           7        7.729804                                       +
  +           8        8.704372                                       +
  +           9       11.616136                                       +
  +          10       12.579526                                       +
  +          11       12.897732                                       +
  +          12       16.015800                                       +
  +          13       16.019840                                       +
  +          14       16.370043                                       +
  + ----------------------------------------------------------------- +
  +  Spin=1 kpt=    7 (  0.250000  0.000000  0.250000) kpt-group=  3  +
  + ----------------------------------------------------------------- +
  +                                                                   +
  +           1       -6.422334                                       +
  +           2        1.074468                                       +
  +           3        2.635026                                       +
  +           4        2.635636                                       +
  +           5        5.628591                                       +
  +           6        7.645790                                       +
  +           7       10.384956                                       +
  +           8       10.388452                                       +
  +           9       12.773731                                       +
  +          10       13.672157                                       +
  +          11       15.915661                                       +
  +          12       17.638340                                       +
  +          13       17.643227                                       +
  +          14       18.324847                                       +
  + ----------------------------------------------------------------- +
  +  Spin=1 kpt=    8 (  0.416667  0.000000  0.416667) kpt-group=  3  +
  + ----------------------------------------------------------------- +
  +                                                                   +
  +           1       -4.540347                                       +
  +           2       -1.926105                                       +
  +           3        1.764878                                       +
  +           4        1.765575                                       +
  +           5        5.027316                                       +
  +           6        5.635540                                       +
  +           7       13.462544                                       +
  +           8       13.466691                                       +
  +           9       15.805580                                       +
  +          10       16.257422                                       +
  +          11       16.962265                                       +
  +          12       16.966189                                       +
  +          13       18.382157                                       +
  +          14       19.016171                                       +
  + ----------------------------------------------------------------- +
  +  Spin=1 kpt=    9 (  0.500000  0.083333  0.583333) kpt-group=  3  +
  + ----------------------------------------------------------------- +
  +                                                                   +
  +           1       -3.262352                                       +
  +           2       -3.257442                                       +
  +           3        1.327640                                       +
  +           4        1.328007                                       +
  +           5        5.802695                                       +
  +           6        5.806171                                       +
  +           7       13.553618                                       +
  +           8       13.558008                                       +
  +           9       15.271915                                       +
  +          10       15.273680                                       +
  +          11       17.535306                                       +
  +          12       17.538450                                       +
  +          13       19.179563                                       +
  +          14       19.181988                                       +
  + ----------------------------------------------------------------- +
  +  Spin=1 kpt=   10 (  0.500000  0.250000  0.750000) kpt-group=  3  +
  + ----------------------------------------------------------------- +
  +                                                                   +
  +           1       -3.134726                                       +
  +           2       -3.131182                                       +
  +           3        0.595469                                       +
  +           4        0.596014                                       +
  +           5        8.791105                                       +
  +           6        8.793170                                       +
  +           7        9.587303                                       +
  +           8        9.591728                                       +
  +           9       15.232002                                       +
  +          10       15.234188                                       +
  +          11       17.758974                                       +
  +          12       17.760292                                       +
  +          13       21.063882                                       +
  +          14       21.065532                                       +
  + ----------------------------------------------------------------- +
  +  Spin=1 kpt=   11 (  0.400000  0.350000  0.750000) kpt-group=  3  +
  + ----------------------------------------------------------------- +
  +                                                                   +
  +           1       -3.685548                                       +
  +           2       -2.717334                                       +
  +           3        0.151894                                       +
  +           4        1.944892                                       +
  +           5        5.892919                                       +
  +           6        8.684446                                       +
  +           7       11.673221                                       +
  +           8       12.184901                                       +
  +           9       13.058668                                       +
  +          10       13.836887                                       +
  +          11       18.810871                                       +
  +          12       19.883915                                       +
  +          13       19.966496                                       +
  +          14       20.772962                                       +
  + ----------------------------------------------------------------- +
  +  Spin=1 kpt=    1 (  0.500000  0.333333  0.666667) kpt-group=  4  +
  + ----------------------------------------------------------------- +
  +                                                                   +
  +           1       -4.171943                                       +
  +           2       -2.334168                                       +
  +           3        0.450001                                       +
  +           4        1.727553                                       +
  +           5        7.869637                                       +
  +           6        8.126164                                       +
  +           7       10.680520                                       +
  +           8       11.124100                                       +
  +           9       12.195091                                       +
  +          10       15.787457                                       +
  +          11       16.643317                                       +
  +          12       18.077595                                       +
  +          13       21.029099                                       +
  +          14       21.589126                                       +
  + ----------------------------------------------------------------- +
  +  Spin=1 kpt=    2 (  0.500000  0.444444  0.555556) kpt-group=  4  +
  + ----------------------------------------------------------------- +
  +                                                                   +
  +           1       -5.014320                                       +
  +           2       -2.460384                                       +
  +           3        2.557035                                       +
  +           4        3.144360                                       +
  +           5        6.766070                                       +
  +           6        7.740301                                       +
  +           7        8.393185                                       +
  +           8       12.555686                                       +
  +           9       13.725611                                       +
  +          10       14.595817                                       +
  +          11       16.066767                                       +
  +          12       16.360311                                       +
  +          13       17.683098                                       +
  +          14       18.432854                                       +
  + ----------------------------------------------------------------- +
  +  Spin=1 kpt=    3 (  0.409091  0.409091  0.409091) kpt-group=  4  +
  + ----------------------------------------------------------------- +
  +                                                                   +
  +           1       -5.527227                                       +
  +           2       -1.906366                                       +
  +           3        3.414697                                       +
  +           4        3.416144                                       +
  +           5        6.176889                                       +
  +           6        7.970601                                       +
  +           7        7.974698                                       +
  +           8       12.245168                                       +
  +           9       13.832821                                       +
  +          10       13.833771                                       +
  +          11       14.855547                                       +
  +          12       17.729018                                       +
  +          13       17.730237                                       +
  +          14       18.540475                                       +
  + ----------------------------------------------------------------- +
  +  Spin=1 kpt=    4 (  0.227273  0.227273  0.227273) kpt-group=  4  +
  + ----------------------------------------------------------------- +
  +                                                                   +
  +           1       -6.847006                                       +
  +           2        1.018570                                       +
  +           3        3.881941                                       +
  +           4        3.883380                                       +
  +           5        6.695942                                       +
  +           6        8.037669                                       +
  +           7        8.042059                                       +
  +           8       11.169931                                       +
  +           9       11.746456                                       +
  +          10       11.747552                                       +
  +          11       13.530613                                       +
  +          12       15.929929                                       +
  +          13       18.941059                                       +
  +          14       18.943695                                       +
  + ----------------------------------------------------------------- +
  +  Spin=1 kpt=    5 (  0.045455  0.045455  0.045455) kpt-group=  4  +
  + ----------------------------------------------------------------- +
  +                                                                   +
  +           1       -7.495585                                       +
  +           2        4.278650                                       +
  +           3        4.534793                                       +
  +           4        4.536410                                       +
  +           5        7.192314                                       +
  +           6        7.196091                                       +
  +           7        7.200269                                       +
  +           8        8.272016                                       +
  +           9       12.338234                                       +
  +          10       12.339739                                       +
  +          11       12.491818                                       +
  +          12       15.686851                                       +
  +          13       15.995168                                       +
  +          14       15.998059                                       +
  + ----------------------------------------------------------------- +
  +  Spin=1 kpt=    6 (  0.125000  0.000000  0.125000) kpt-group=  4  +
  + ----------------------------------------------------------------- +
  +                                                                   +
  +           1       -7.245825                                       +
  +           2        3.266939                                       +
  +           3        3.745424                                       +
  +           4        3.746452                                       +
  +           5        6.548117                                       +
  +           6        8.301007                                       +
  +           7        8.305044                                       +
  +           8        9.064899                                       +
  +           9       11.154497                                       +
  +          10       12.750792                                       +
  +          11       13.486193                                       +
  +          12       16.287258                                       +
  +          13       16.291372                                       +
  +          14       16.801058                                       +
  + ----------------------------------------------------------------- +
  +  Spin=1 kpt=    7 (  0.291667  0.000000  0.291667) kpt-group=  4  +
  + ----------------------------------------------------------------- +
  +                                                                   +
  +           1       -6.030833                                       +
  +           2        0.318480                                       +
  +           3        2.341124                                       +
  +           4        2.341752                                       +
  +           5        5.391598                                       +
  +           6        7.020132                                       +
  +           7       11.139685                                       +
  +           8       11.143195                                       +
  +           9       13.661626                                       +
  +          10       14.115751                                       +
  +          11       16.793856                                       +
  +          12       18.100003                                       +
  +          13       18.105520                                       +
  +          14       18.976862                                       +
  + ----------------------------------------------------------------- +
  +  Spin=1 kpt=    8 (  0.458333  0.000000  0.458333) kpt-group=  4  +
  + ----------------------------------------------------------------- +
  +                                                                   +
  +           1       -3.941706                                       +
  +           2       -2.630638                                       +
  +           3        1.681607                                       +
  +           4        1.682318                                       +
  +           5        5.060206                                       +
  +           6        5.357155                                       +
  +           7       14.242051                                       +
  +           8       14.246917                                       +
  +           9       16.185677                                       +
  +          10       16.188548                                       +
  +          11       16.512271                                       +
  +          12       17.026272                                       +
  +          13       18.118785                                       +
  +          14       18.184770                                       +
  + ----------------------------------------------------------------- +
  +  Spin=1 kpt=    9 (  0.500000  0.125000  0.625000) kpt-group=  4  +
  + ----------------------------------------------------------------- +
  +                                                                   +
  +           1       -3.221548                                       +
  +           2       -3.216800                                       +
  +           3        1.055153                                       +
  +           4        1.055436                                       +
  +           5        6.464881                                       +
  +           6        6.468033                                       +
  +           7       12.467383                                       +
  +           8       12.471377                                       +
  +           9       15.240245                                       +
  +          10       15.242516                                       +
  +          11       17.608142                                       +
  +          12       17.611043                                       +
  +          13       20.307910                                       +
  +          14       20.309829                                       +
  + ----------------------------------------------------------------- +
  +  Spin=1 kpt=   10 (  0.475000  0.275000  0.750000) kpt-group=  4  +
  + ----------------------------------------------------------------- +
  +                                                                   +
  +           1       -3.337999                                       +
  +           2       -2.933290                                       +
  +           3        0.432817                                       +
  +           4        0.840230                                       +
  +           5        8.102546                                       +
  +           6        8.849939                                       +
  +           7        9.950022                                       +
  +           8        9.972641                                       +
  +           9       14.773781                                       +
  +          10       15.509437                                       +
  +          11       17.460650                                       +
  +          12       18.264784                                       +
  +          13       20.676100                                       +
  +          14       21.390980                                       +
  + ----------------------------------------------------------------- +
  +  Spin=1 kpt=   11 (  0.375000  0.375000  0.750000) kpt-group=  4  +
  + ----------------------------------------------------------------- +
  +                                                                   +
  +           1       -3.706581                                       +
  +           2       -2.708836                                       +
  +           3        0.132940                                       +
  +           4        2.092311                                       +
  +           5        5.674524                                       +
  +           6        8.669453                                       +
  +           7       12.108495                                       +
  +           8       12.631432                                       +
  +           9       12.851102                                       +
  +          10       13.170715                                       +
  +          11       19.332951                                       +
  +          12       19.716270                                       +
  +          13       20.297777                                       +
  +          14       20.433067                                       +
  =====================================================================

Writing model to Si2.orbitals
  + Calculation re-parallelised over 16 processes.                    +
  + Data distributed by G-vector(8-way), k-point(2-way)               +

 ******************** Symmetrised Forces ********************
 *                                                          *
 *               Cartesian components (eV/A)                *
 * -------------------------------------------------------- *
 *                         x            y            z      *
 *                                                          *
 * Si              1      0.00000      0.00000      0.00000 *
 * Si              2      0.00000      0.00000     -0.00000 *
 *                                                          *
 ************************************************************

 Pseudo atomic calculation performed for Si 3s2 3p2

 Converged in 16 iterations to a total energy of -162.9815 eV

Charge spilling parameter for spin component 1 = 0.84%

            Orbital Populations       
     Ion    Atom   Orbital             Charge
  -------------------------------------------
     Si     1      S                    1.357
     Si     1      Px                   0.924
     Si     1      Py                   0.857
     Si     1      Pz                   0.862
     Si     2      S                    1.357
     Si     2      Px                   0.924
     Si     2      Py                   0.857
     Si     2      Pz                   0.862
  -------------------------------------------
                           Total:       8.000
  -------------------------------------------

     Atomic Populations (Mulliken)
     -----------------------------
Species          Ion     s      p      d      f     Total  Charge (e)
=====================================================================
  Si              1     1.36   2.64   0.00   0.00   4.00     0.00
  Si              2     1.36   2.64   0.00   0.00   4.00     0.00
=====================================================================

                 Bond                   Population      Length (A)
======================================================================
              Si 1 -- Si 2                   2.98        2.33434
======================================================================


Writing analysis data to Si2.castep_bin

Writing model to Si2.check
 
 A BibTeX formatted list of references used in this run has been written to 
 Si2.bib
 
Initialisation time =     17.06 s
Calculation time    =      9.79 s
Finalisation time   =      0.04 s
Total time          =     26.89 s
Peak Memory Use     = 681240 kB
  
Overall parallel efficiency rating: Terrible (21%)                              
  
Data was distributed by:-
G-vector (8-way); efficiency rating: Terrible (27%)                             
k-point (2-way); efficiency rating: Mediocre (55%)                              
  
Parallel notes:
1) Calculation only took 26.9 s, so efficiency estimates may be inaccurate.     
