 +-------------------------------------------------+
 |                                                 |
 |      CCC   AA    SSS  TTTTT  EEEEE  PPPP        |
 |     C     A  A  S       T    E      P   P       |
 |     C     AAAA   SS     T    EEE    PPPP        |
 |     C     A  A     S    T    E      P           |
 |      CCC  A  A  SSS     T    EEEEE  P           |
 |                                                 |
 +-------------------------------------------------+
 |                                                 |
 | Welcome to Academic Release CASTEP version 18.1 |          
 | Ab Initio Total Energy Program                  |
 |                                                 |
 | Authors:                                        |
 | M. Segall, M. Probert, C. Pickard, P. Hasnip,   |
 | S. Clark, K. Refson, J. R. Yates, M. Payne      |
 |                                                 |
 | Contributors:                                   |
 | P. Lindan, P. Haynes, J. White, V. Milman,      |
 | N. Govind, M. Gibson, P. Tulip, V. Cocula,      |
 | B. Montanari, D. Quigley, M. Glover,            |
 | L. Bernasconi, A. Perlov, M. Plummer,           |
 | E. McNellis, J. Meyer, J. Gale, D. Jochym       |
 | J. Aarons, B. Walker, R. Gillen, D. Jones       |
 | T. Green, I. J. Bush, C. J. Armstrong,          |
 | E. J. Higgins, E. L. Brown, M. S. McFly,        |
 | J. Wilkins, B-C. Shih, P. J. P. Byrne           |
 |                                                 |
 | Copyright (c) 2000 - 2017                       |
 |                                                 |
 |     Distributed under the terms of an           |
 |     Agreement between the United Kingdom        |
 |     Car-Parrinello (UKCP) Consortium,           |
 |     Daresbury Laboratory and Accelrys, Inc.     |
 |                                                 |
 | Please cite                                     |
 |                                                 |
 |     "First principles methods using CASTEP"     |
 |                                                 |
 |         Zeitschrift fuer Kristallographie       |
 |           220(5-6) pp. 567-570 (2005)           |
 |                                                 |
 | S. J. Clark, M. D. Segall, C. J. Pickard,       |
 | P. J. Hasnip, M. J. Probert, K. Refson,         |
 | M. C. Payne                                     |
 |                                                 |
 |       in all publications arising from          |
 |              your use of CASTEP                 |
 |                                                 |
 +-------------------------------------------------+


 Compiled for linux_x86_64_gfortran4.8 on Thu, 19 Jul 2018 15:42:32 +0100
 from code version 70483bd0ad64+  Sun, 10 Dec 2017 12:18:29 +0000
 Compiler: GNU Fortran 4.8.5; Optimisation: fast
 MATHLIBS: Intel MKL(2018.0.0) (LAPACK version 3.7.0)
 FFT Lib : mkl
 Fundamental constants values: CODATA 2014

 Run started: Sun, 30 Aug 2020 22:59:57 +0100

 Atomic calculation performed for H: 1s1

 Converged in 41 iterations to an ae energy of -12.488 eV

   ============================================================                
   | Pseudopotential Report - Date of generation 30-08-2020   |                
   ------------------------------------------------------------                
   | Element: H Ionic charge:  1.00 Level of theory: PBE      |                
   | Atomic Solver: Koelling-Harmon                           |                
   |                                                          |                
   |               Reference Electronic Structure             |                
   |         Orbital         Occupation         Energy        |                
   |            1s              1.000           -0.239        |                
   |                                                          |                
   |                 Pseudopotential Definition               |                
   |        Beta     l      e      Rc     scheme   norm       |                
   |         loc     0   -0.239   0.702     qc      1         |                
   |                                                          |                
   | No charge augmentation                                   |                
   | No partial core correction                               |                
   ------------------------------------------------------------                
   | "0|0.7|2|6|8|10L(qc=10)"                                 |                
   ------------------------------------------------------------                
   |      Author: Chris J. Pickard, Cambridge University      |                
   ============================================================                

 Pseudo atomic calculation performed for H 1s1

 Converged in 24 iterations to a total energy of -12.4855 eV

 Calculation parallelised over 32 processes.
 Data is distributed by k-point(32-way)

 ************************************ Title ************************************
 

 ***************************** General Parameters ******************************
  
 output verbosity                               : normal  (1)
 write checkpoint data to                       : Pca21.check
 type of calculation                            : geometry optimization
 stress calculation                             : on
 density difference calculation                 : off
 electron localisation func (ELF) calculation   : off
 Hirshfeld analysis                             : off
 unlimited duration calculation
 timing information                             : on
 memory usage estimate                          : on
 write extra output files                       : on
 write final potential to formatted file        : off
 write final density to formatted file          : off
 write structure in CELL formatted file         : on
 write BibTeX reference list                    : on
 write OTFG pseudopotential files               : on
 write electrostatic potential file             : on
 write bands file                               : on
 checkpoint writing                             : both castep_bin and check files
  
 output         length unit                     : A
 output           mass unit                     : amu
 output           time unit                     : ps
 output         charge unit                     : e
 output           spin unit                     : hbar/2
 output         energy unit                     : eV
 output          force unit                     : eV/A
 output       velocity unit                     : A/ps
 output       pressure unit                     : GPa
 output     inv_length unit                     : 1/A
 output      frequency unit                     : cm-1
 output force constant unit                     : eV/A**2
 output         volume unit                     : A**3
 output   IR intensity unit                     : (D/A)**2/amu
 output         dipole unit                     : D
 output         efield unit                     : eV/A/e
 output        entropy unit                     : J/mol/K
  
 wavefunctions paging                           : none
 random number generator seed                   : randomised (225957574)
 data distribution                              : optimal for this architecture
 optimization strategy                          : maximize speed(+++)

 *********************** Exchange-Correlation Parameters ***********************
  
 using functional                               : Perdew Burke Ernzerhof
 relativistic treatment                         : Koelling-Harmon
 DFT+D: Semi-empirical dispersion correction    : off

 ************************* Pseudopotential Parameters **************************
  
 pseudopotential representation                 : reciprocal space
 <beta|phi> representation                      : reciprocal space
 spin-orbit coupling                            : off

 **************************** Basis Set Parameters *****************************
  
 plane wave basis set cut-off                   :  1600.0000   eV
 size of standard grid                          :     2.0000
 size of   fine   gmax                          :    40.9853   1/A
 finite basis set correction                    : automatic
 number of sample energies                      :          3
           sample  spacing                      :     5.0000   eV

 **************************** Electronic Parameters ****************************
  
 number of  electrons                           :  8.000    
 net charge of system                           :  0.000    
 treating system as non-spin-polarized
 number of bands                                :          4

 ********************* Electronic Minimization Parameters **********************
  
 Method: Treating system as non-metallic,
         and number of  SD  steps               :          1
         and number of  CG  steps               :          4
  
 total energy / atom convergence tol.           : 0.1000E-10   eV
 eigen-energy convergence tolerance             : 0.2000E-10   eV
 max force / atom convergence tol.              : ignored
 convergence tolerance window                   :          3   cycles
 max. number of SCF cycles                      :        200
 periodic dipole correction                     : NONE

 ************************** Density Mixing Parameters **************************
  
 density-mixing scheme                          : Broyden
 max. length of mixing history                  :         20
 charge density mixing amplitude                : 0.8000    
 cut-off energy for mixing                      :  1600.       eV

 *********************** Population Analysis Parameters ************************
  
 Population analysis with cutoff                :  3.000       A
 Population analysis output                     : summary and pdos components

 ********************** Geometry Optimization Parameters ***********************
  
 optimization method                            : LBFGS
 max. no. of LBFGS updates                      : unbounded
 variable cell method                           : fixed basis quality
 max. number of steps                           :        200
 estimated bulk modulus                         :  500.0       GPa
 estimated <frequency>                          :  1668.       cm-1
 geom line minimiser                            : on
 with line minimiser tolerance                  :     0.4000
 total energy convergence tolerance             : 0.1000E-08   eV/atom
        max ionic |force| tolerance             : 0.1000E-04   eV/A
 max ionic |displacement| tolerance             : 0.1000E-04   A
   max |stress component| tolerance             : 0.1000E-04   GPa
 convergence tolerance window                   :          2   steps
 backup results every                           : 2147483647   steps
 write geom trajectory file                     : on

 *******************************************************************************
  

                           -------------------------------
                                      Unit Cell
                           -------------------------------
        Real Lattice(A)                      Reciprocal Lattice(1/A)
     3.4699477     0.0000000     0.0000000        1.810743526   0.000000000   0.000000000
     0.0000000     2.0156268     0.0000000        0.000000000   3.117236387   0.000000000
     0.0000000     0.0000000     3.2115447        0.000000000   0.000000000   1.956437161

                       Lattice parameters(A)       Cell Angles
                    a =      3.469948          alpha =   90.000000
                    b =      2.015627          beta  =   90.000000
                    c =      3.211545          gamma =   90.000000

                       Current cell volume =            22.461928       A**3
                                   density =             0.358986   AMU/A**3
                                           =             0.596110     g/cm^3

                           -------------------------------
                                     Cell Contents
                           -------------------------------
                         Total number of ions in cell =    8
                      Total number of species in cell =    1
                        Max number of any one species =    8

            xxxxxxxxxxxxxxxxxxxxxxxxxxxxxxxxxxxxxxxxxxxxxxxxxxxxxxxxxxxx
            x  Element    Atom        Fractional coordinates of atoms  x
            x            Number           u          v          w      x
            x----------------------------------------------------------x
            x  H            1         0.354229   0.139027   0.378804   x 
            x  H            2         0.478898   0.361840   0.500096   x 
            x  H            3         0.978898   0.638160   0.500096   x 
            x  H            4         0.854229   0.860973   0.378804   x 
            x  H            5         0.021102   0.361840   0.000096   x 
            x  H            6         0.145771   0.139027   0.878804   x 
            x  H            7         0.521102   0.638160   0.000096   x 
            x  H            8         0.645771   0.860973   0.878804   x 
            xxxxxxxxxxxxxxxxxxxxxxxxxxxxxxxxxxxxxxxxxxxxxxxxxxxxxxxxxxxx


                         No user defined ionic velocities

                           -------------------------------
                                   Details of Species
                           -------------------------------

                               Mass of species in AMU
                                    H    1.0078250

                          Electric Quadrupole Moment (Barn)
                                    H    0.0028600 Isotope  2

                          Files used for pseudopotentials:
                                    H 0|0.7|2|6|8|10L(qc=10)

                           -------------------------------
                              k-Points For BZ Sampling
                           -------------------------------
                       MP grid size for SCF calculation is 15 15 15
                            with an offset of   0.000  0.000  0.000
                       Number of kpoints used =           512

                           -------------------------------
                               Symmetry and Constraints
                           -------------------------------

                      Maximum deviation from symmetry = 0.641796E-14     ANG

                      Number of symmetry operations   =           4
                      Number of ionic constraints     =           3
                      Point group of crystal =     6: C2v, mm2, 2 mm
                      Space group of crystal =    29: Pca2_1, P 2c -2ac

             Set iprint > 1 for details on symmetry rotations/translations

                         Centre of mass is constrained
             Set iprint > 1 for details of linear ionic constraints

                         Number of cell constraints= 3
                         Cell constraints are:  1 2 3 0 0 0

                         External pressure/stress (GPa)
                         70.00000   0.00000   0.00000
                                   70.00000   0.00000
                                             70.00000
  
+---------------- MEMORY AND SCRATCH DISK ESTIMATES PER PROCESS --------------+
|                                                     Memory          Disk    |
| Baseline code, static data and system overhead      476.0 MB         0.0 MB |
| BLAS internal memory storage                          0.0 MB         0.0 MB |
| Model and support data                               28.5 MB         0.0 MB |
| Electronic energy minimisation requirements          19.0 MB         0.0 MB |
| Force calculation requirements                        6.7 MB         0.0 MB |
| Stress calculation requirements                       8.5 MB         0.0 MB |
|                                               ----------------------------- |
| Approx. total storage required per process          523.5 MB         0.0 MB |
|                                                                             |
| Requirements will fluctuate during execution and may exceed these estimates |
+-----------------------------------------------------------------------------+
Calculating finite basis set correction with  3 cut-off energies.
Calculating total energy with cut-off of 1590.000 eV.
------------------------------------------------------------------------ <-- SCF
SCF loop      Energy                           Energy gain       Timer   <-- SCF
                                               per atom          (sec)   <-- SCF
------------------------------------------------------------------------ <-- SCF
Initial   2.04288566E+002                                          4.45  <-- SCF
      1  -9.91327607E+001                    3.79276659E+001       6.51  <-- SCF
      2  -1.23689849E+002                    3.06963608E+000       7.95  <-- SCF
      3  -1.23801699E+002                    1.39811790E-002       9.12  <-- SCF
      4  -1.23050323E+002                   -9.39219182E-002      11.34  <-- SCF
      5  -1.23024719E+002                   -3.20052031E-003      13.52  <-- SCF
      6  -1.23025694E+002                    1.21878228E-004      15.71  <-- SCF
      7  -1.23025799E+002                    1.30526563E-005      17.95  <-- SCF
      8  -1.23025799E+002                    4.15020921E-008      20.19  <-- SCF
      9  -1.23025799E+002                    2.92919091E-009      22.40  <-- SCF
     10  -1.23025799E+002                    3.30837456E-011      24.03  <-- SCF
     11  -1.23025799E+002                    1.42896646E-012      25.84  <-- SCF
     12  -1.23025799E+002                   -5.13582024E-014      27.47  <-- SCF
------------------------------------------------------------------------ <-- SCF
 
Final energy =  -123.0257991395     eV
(energy not corrected for finite basis set)
 
Calculating total energy with cut-off of 1595.000 eV.
------------------------------------------------------------------------ <-- SCF
SCF loop      Energy                           Energy gain       Timer   <-- SCF
                                               per atom          (sec)   <-- SCF
------------------------------------------------------------------------ <-- SCF
Initial  -1.23025799E+002                                         28.63  <-- SCF
      1  -1.23025816E+002                    2.05998321E-006      30.29  <-- SCF
      2  -1.23025816E+002                    1.87910599E-012      31.90  <-- SCF
      3  -1.23025816E+002                    7.10244665E-010      33.56  <-- SCF
      4  -1.23025816E+002                    4.98718356E-011      35.16  <-- SCF
      5  -1.23025816E+002                    6.64635561E-013      36.76  <-- SCF
      6  -1.23025816E+002                    4.83371317E-014      38.42  <-- SCF
------------------------------------------------------------------------ <-- SCF
 
Final energy =  -123.0258156255     eV
(energy not corrected for finite basis set)
 
Calculating total energy with cut-off of 1600.000 eV.
------------------------------------------------------------------------ <-- SCF
SCF loop      Energy                           Energy gain       Timer   <-- SCF
                                               per atom          (sec)   <-- SCF
------------------------------------------------------------------------ <-- SCF
Initial  -1.23025816E+002                                         39.58  <-- SCF
      1  -1.23025831E+002                    1.95888556E-006      41.29  <-- SCF
      2  -1.23025831E+002                    1.96671704E-012      42.96  <-- SCF
      3  -1.23025831E+002                    6.79683514E-010      44.61  <-- SCF
      4  -1.23025831E+002                    4.74096630E-011      46.25  <-- SCF
      5  -1.23025831E+002                    1.75222102E-013      47.86  <-- SCF
      6  -1.23025831E+002                   -1.20842829E-014      49.51  <-- SCF
------------------------------------------------------------------------ <-- SCF
 
Final energy =  -123.0258313024     eV
(energy not corrected for finite basis set)
 
 For future reference: finite basis dEtot/dlog(Ecut) =      -0.005130eV
 Total energy corrected for finite basis set =    -123.025831 eV
 
+---------------- MEMORY AND SCRATCH DISK ESTIMATES PER PROCESS --------------+
|                                                     Memory          Disk    |
| Model and support data                               36.8 MB         0.0 MB |
| Electronic energy minimisation requirements          19.0 MB         0.0 MB |
| Geometry minimisation requirements                   23.9 MB         0.0 MB |
|                                               ----------------------------- |
| Approx. total storage required per process           79.8 MB         0.0 MB |
|                                                                             |
| Requirements will fluctuate during execution and may exceed these estimates |
+-----------------------------------------------------------------------------+
 

 ******************************** Symmetrised Forces ********************************
 *                                                                                  *
 *                           Cartesian components (eV/A)                            *
 * -------------------------------------------------------------------------------- *
 *                         x                    y                    z              *
 *                                                                                  *
 * H               1      0.00000             -0.00000              0.00000         *
 * H               2      0.00000              0.00000             -0.00000         *
 * H               3      0.00000             -0.00000             -0.00000         *
 * H               4      0.00000              0.00000              0.00000         *
 * H               5     -0.00000              0.00000             -0.00000         *
 * H               6     -0.00000             -0.00000              0.00000         *
 * H               7     -0.00000             -0.00000             -0.00000         *
 * H               8     -0.00000              0.00000              0.00000         *
 *                                                                                  *
 ************************************************************************************

 *********** Symmetrised Stress Tensor ***********
 *                                               *
 *          Cartesian components (GPa)           *
 * --------------------------------------------- *
 *             x             y             z     *
 *                                               *
 *  x    -60.000322      0.000000      0.000000  *
 *  y      0.000000    -60.000323      0.000000  *
 *  z      0.000000      0.000000    -60.000323  *
 *                                               *
 *  Pressure:   60.0003                          *
 *                                               *
 *************************************************
 LBFGS: finished iteration     0 with enthalpy= -1.13212088E+002 eV
  
 +-----------+-----------------+-----------------+------------+-----+ <-- LBFGS
 | Parameter |      value      |    tolerance    |    units   | OK? | <-- LBFGS
 +-----------+-----------------+-----------------+------------+-----+ <-- LBFGS
 |  dE/ion   |   0.000000E+000 |   1.000000E-009 |         eV | No  | <-- LBFGS
 |  |F|max   |   2.341220E-007 |   1.000000E-005 |       eV/A | Yes | <-- LBFGS
 |  |dR|max  |   0.000000E+000 |   1.000000E-005 |          A | No  | <-- LBFGS
 |   Smax    |   9.999678E+000 |   1.000000E-005 |        GPa | No  | <-- LBFGS
 +-----------+-----------------+-----------------+------------+-----+ <-- LBFGS
  

================================================================================
 Starting LBFGS iteration          1 ...
================================================================================
  
 +------------+-------------+-------------+-----------------+ <-- min LBFGS
 |    Step    |   lambda    |   F.delta'  |    enthalpy     | <-- min LBFGS
 +------------+-------------+-------------+-----------------+ <-- min LBFGS
 |  previous  |    0.000000 |    0.089234 |     -113.212088 | <-- min LBFGS
 +------------+-------------+-------------+-----------------+ <-- min LBFGS
  

--------------------------------------------------------------------------------
 LBFGS: starting iteration         1 with trial guess (lambda=  1.000000)
--------------------------------------------------------------------------------

                           -------------------------------
                                      Unit Cell
                           -------------------------------
        Real Lattice(A)              Reciprocal Lattice(1/A)
     3.4468154     0.0000000     0.0000000        1.822895773   0.000000000   0.000000000
     0.0000000     2.0021898     0.0000000        0.000000000   3.138156756   0.000000000
     0.0000000     0.0000000     3.1901350        0.000000000   0.000000000   1.969567185

                       Lattice parameters(A)       Cell Angles
                    a =      3.446815          alpha =   90.000000
                    b =      2.002190          beta  =   90.000000
                    c =      3.190135          gamma =   90.000000

                Current cell volume =            22.015692 A**3

                           -------------------------------
                                     Cell Contents
                           -------------------------------

            xxxxxxxxxxxxxxxxxxxxxxxxxxxxxxxxxxxxxxxxxxxxxxxxxxxxxxxxxxxxxxxxx
            x  Element         Atom        Fractional coordinates of atoms  x
            x                 Number           u          v          w      x
            x---------------------------------------------------------------x
            x  H                 1         0.354229   0.139027   0.378804   x
            x  H                 2         0.478898   0.361840   0.500096   x
            x  H                 3         0.978898   0.638160   0.500096   x
            x  H                 4         0.854229   0.860973   0.378804   x
            x  H                 5         0.021102   0.361840   0.000096   x
            x  H                 6         0.145771   0.139027   0.878804   x
            x  H                 7         0.521102   0.638160   0.000096   x
            x  H                 8         0.645771   0.860973   0.878804   x
            xxxxxxxxxxxxxxxxxxxxxxxxxxxxxxxxxxxxxxxxxxxxxxxxxxxxxxxxxxxxxxxxx


------------------------------------------------------------------------ <-- SCF
SCF loop      Energy                           Energy gain       Timer   <-- SCF
                                               per atom          (sec)   <-- SCF
------------------------------------------------------------------------ <-- SCF
Initial  -1.22849697E+002                                         51.81  <-- SCF
      1  -1.22852934E+002                    4.04643387E-004      53.50  <-- SCF
      2  -1.22852942E+002                    1.08877787E-006      55.63  <-- SCF
      3  -1.22852760E+002                   -2.28374069E-005      57.92  <-- SCF
      4  -1.22852754E+002                   -6.65350032E-007      60.13  <-- SCF
      5  -1.22852755E+002                    2.56324045E-008      62.30  <-- SCF
      6  -1.22852755E+002                    2.61597536E-009      64.45  <-- SCF
      7  -1.22852755E+002                    8.88496902E-012      66.04  <-- SCF
      8  -1.22852755E+002                    9.27468714E-013      67.60  <-- SCF
------------------------------------------------------------------------ <-- SCF
 
Final energy =  -122.8527545730     eV
(energy not corrected for finite basis set)
 

 ******************************** Symmetrised Forces ********************************
 *                                                                                  *
 *                           Cartesian components (eV/A)                            *
 * -------------------------------------------------------------------------------- *
 *                         x                    y                    z              *
 *                                                                                  *
 * H               1     -0.09094             -0.09534             -0.08159         *
 * H               2      0.09103              0.09363              0.08159         *
 * H               3      0.09103             -0.09363              0.08159         *
 * H               4     -0.09094              0.09534             -0.08159         *
 * H               5     -0.09103              0.09363              0.08159         *
 * H               6      0.09094             -0.09534             -0.08159         *
 * H               7     -0.09103             -0.09363              0.08159         *
 * H               8      0.09094              0.09534             -0.08159         *
 *                                                                                  *
 ************************************************************************************

 *********** Symmetrised Stress Tensor ***********
 *                                               *
 *          Cartesian components (GPa)           *
 * --------------------------------------------- *
 *             x             y             z     *
 *                                               *
 *  x    -64.409020      0.000000      0.000000  *
 *  y      0.000000    -64.480134      0.000000  *
 *  z      0.000000      0.000000    -64.117580  *
 *                                               *
 *  Pressure:   64.3356                          *
 *                                               *
 *************************************************
  
 +------------+-------------+-------------+-----------------+ <-- min LBFGS
 |    Step    |   lambda    |   F.delta'  |    enthalpy     | <-- min LBFGS
 +------------+-------------+-------------+-----------------+ <-- min LBFGS
 |  previous  |    0.000000 |    0.089234 |     -113.212088 | <-- min LBFGS
 | trial step |    1.000000 |    0.049876 |     -113.233975 | <-- min LBFGS
 +------------+-------------+-------------+-----------------+ <-- min LBFGS
  

--------------------------------------------------------------------------------
 LBFGS: improving iteration         1 with line minimization (lambda=  2.267229)
--------------------------------------------------------------------------------

                           -------------------------------
                                      Unit Cell
                           -------------------------------
        Real Lattice(A)              Reciprocal Lattice(1/A)
     3.4175016     0.0000000     0.0000000        1.838531783   0.000000000   0.000000000
     0.0000000     1.9851619     0.0000000        0.000000000   3.165074501   0.000000000
     0.0000000     0.0000000     3.1630042        0.000000000   0.000000000   1.986461278

                       Lattice parameters(A)       Cell Angles
                    a =      3.417502          alpha =   90.000000
                    b =      1.985162          beta  =   90.000000
                    c =      3.163004          gamma =   90.000000

                Current cell volume =            21.458750 A**3

                           -------------------------------
                                     Cell Contents
                           -------------------------------

            xxxxxxxxxxxxxxxxxxxxxxxxxxxxxxxxxxxxxxxxxxxxxxxxxxxxxxxxxxxxxxxxx
            x  Element         Atom        Fractional coordinates of atoms  x
            x                 Number           u          v          w      x
            x---------------------------------------------------------------x
            x  H                 1         0.354229   0.139027   0.378804   x
            x  H                 2         0.478898   0.361840   0.500096   x
            x  H                 3         0.978898   0.638160   0.500096   x
            x  H                 4         0.854229   0.860973   0.378804   x
            x  H                 5         0.021102   0.361840   0.000096   x
            x  H                 6         0.145771   0.139027   0.878804   x
            x  H                 7         0.521102   0.638160   0.000096   x
            x  H                 8         0.645771   0.860973   0.878804   x
            xxxxxxxxxxxxxxxxxxxxxxxxxxxxxxxxxxxxxxxxxxxxxxxxxxxxxxxxxxxxxxxxx


------------------------------------------------------------------------ <-- SCF
SCF loop      Energy                           Energy gain       Timer   <-- SCF
                                               per atom          (sec)   <-- SCF
------------------------------------------------------------------------ <-- SCF
Initial  -1.22614115E+002                                         69.78  <-- SCF
      1  -1.22619394E+002                    6.59955042E-004      71.39  <-- SCF
      2  -1.22619408E+002                    1.75122955E-006      73.58  <-- SCF
      3  -1.22619114E+002                   -3.68214409E-005      75.72  <-- SCF
      4  -1.22619105E+002                   -1.07523592E-006      77.90  <-- SCF
      5  -1.22619106E+002                    3.93615336E-008      80.02  <-- SCF
      6  -1.22619106E+002                    3.96989841E-009      82.18  <-- SCF
      7  -1.22619106E+002                    1.37126400E-011      83.76  <-- SCF
      8  -1.22619106E+002                    1.33229219E-012      85.42  <-- SCF
      9  -1.22619106E+002                    1.20842829E-013      87.00  <-- SCF
------------------------------------------------------------------------ <-- SCF
 
Final energy =  -122.6191055672     eV
(energy not corrected for finite basis set)
 

 ******************************** Symmetrised Forces ********************************
 *                                                                                  *
 *                           Cartesian components (eV/A)                            *
 * -------------------------------------------------------------------------------- *
 *                         x                    y                    z              *
 *                                                                                  *
 * H               1     -0.21004             -0.22022             -0.18841         *
 * H               2      0.21024              0.21623              0.18841         *
 * H               3      0.21024             -0.21623              0.18841         *
 * H               4     -0.21004              0.22022             -0.18841         *
 * H               5     -0.21024              0.21623              0.18841         *
 * H               6      0.21004             -0.22022             -0.18841         *
 * H               7     -0.21024             -0.21623              0.18841         *
 * H               8      0.21004              0.22022             -0.18841         *
 *                                                                                  *
 ************************************************************************************

 *********** Symmetrised Stress Tensor ***********
 *                                               *
 *          Cartesian components (GPa)           *
 * --------------------------------------------- *
 *             x             y             z     *
 *                                               *
 *  x    -70.356069      0.000000      0.000000  *
 *  y      0.000000    -70.522860      0.000000  *
 *  z      0.000000      0.000000    -69.667122  *
 *                                               *
 *  Pressure:   70.1820                          *
 *                                               *
 *************************************************
  
 +------------+-------------+-------------+-----------------+ <-- min LBFGS
 |    Step    |   lambda    |   F.delta'  |    enthalpy     | <-- min LBFGS
 +------------+-------------+-------------+-----------------+ <-- min LBFGS
 |  previous  |    0.000000 |    0.089234 |     -113.212088 | <-- min LBFGS
 | trial step |    1.000000 |    0.049876 |     -113.233975 | <-- min LBFGS
 |  line step |    2.267229 |   -0.001576 |     -113.243657 | <-- min LBFGS
 +------------+-------------+-------------+-----------------+ <-- min LBFGS
  
 LBFGS: finished iteration     1 with enthalpy= -1.13243657E+002 eV
  
 +-----------+-----------------+-----------------+------------+-----+ <-- LBFGS
 | Parameter |      value      |    tolerance    |    units   | OK? | <-- LBFGS
 +-----------+-----------------+-----------------+------------+-----+ <-- LBFGS
 |  dE/ion   |   3.946022E-003 |   1.000000E-009 |         eV | No  | <-- LBFGS
 |  |F|max   |   3.579309E-001 |   1.000000E-005 |       eV/A | No  | <-- LBFGS
 |  |dR|max  |   5.071072E-008 |   1.000000E-005 |          A | Yes | <-- LBFGS
 |   Smax    |   5.228603E-001 |   1.000000E-005 |        GPa | No  | <-- LBFGS
 +-----------+-----------------+-----------------+------------+-----+ <-- LBFGS
  

================================================================================
 Starting LBFGS iteration          2 ...
================================================================================
  
 +------------+-------------+-------------+-----------------+ <-- min LBFGS
 |    Step    |   lambda    |   F.delta'  |    enthalpy     | <-- min LBFGS
 +------------+-------------+-------------+-----------------+ <-- min LBFGS
 |  previous  |    0.000000 |    0.064916 |     -113.243657 | <-- min LBFGS
 +------------+-------------+-------------+-----------------+ <-- min LBFGS
  

--------------------------------------------------------------------------------
 LBFGS: starting iteration         2 with trial guess (lambda=  1.000000)
--------------------------------------------------------------------------------

                           -------------------------------
                                      Unit Cell
                           -------------------------------
        Real Lattice(A)              Reciprocal Lattice(1/A)
     3.3424372     0.0000000     0.0000000        1.879821473   0.000000000   0.000000000
     0.0000000     1.9417721     0.0000000        0.000000000   3.235799602   0.000000000
     0.0000000     0.0000000     3.0921238        0.000000000   0.000000000   2.031996684

                       Lattice parameters(A)       Cell Angles
                    a =      3.342437          alpha =   90.000000
                    b =      1.941772          beta  =   90.000000
                    c =      3.092124          gamma =   90.000000

                Current cell volume =            20.068661 A**3

                           -------------------------------
                                     Cell Contents
                           -------------------------------

            xxxxxxxxxxxxxxxxxxxxxxxxxxxxxxxxxxxxxxxxxxxxxxxxxxxxxxxxxxxxxxxxx
            x  Element         Atom        Fractional coordinates of atoms  x
            x                 Number           u          v          w      x
            x---------------------------------------------------------------x
            x  H                 1         0.348546   0.128770   0.373297   x
            x  H                 2         0.484586   0.371911   0.505604   x
            x  H                 3         0.984586   0.628089   0.505604   x
            x  H                 4         0.848546   0.871230   0.373297   x
            x  H                 5         0.015414   0.371911   0.005604   x
            x  H                 6         0.151454   0.128770   0.873297   x
            x  H                 7         0.515414   0.628089   0.005604   x
            x  H                 8         0.651454   0.871230   0.873297   x
            xxxxxxxxxxxxxxxxxxxxxxxxxxxxxxxxxxxxxxxxxxxxxxxxxxxxxxxxxxxxxxxxx


------------------------------------------------------------------------ <-- SCF
SCF loop      Energy                           Energy gain       Timer   <-- SCF
                                               per atom          (sec)   <-- SCF
------------------------------------------------------------------------ <-- SCF
Initial  -1.21000907E+002                                         89.25  <-- SCF
      1  -1.21954777E+002                    1.19233768E-001      90.85  <-- SCF
      2  -1.21958168E+002                    4.23845441E-004      93.01  <-- SCF
      3  -1.21893051E+002                   -8.13959978E-003      95.23  <-- SCF
      4  -1.21890454E+002                   -3.24671275E-004      97.38  <-- SCF
      5  -1.21890473E+002                    2.33714087E-006      99.59  <-- SCF
      6  -1.21890474E+002                    1.88361993E-007     101.78  <-- SCF
      7  -1.21890474E+002                    4.62761572E-010     103.94  <-- SCF
      8  -1.21890474E+002                    4.14037743E-011     105.58  <-- SCF
      9  -1.21890474E+002                    2.43196194E-012     107.19  <-- SCF
     10  -1.21890474E+002                   -5.43792731E-014     109.03  <-- SCF
------------------------------------------------------------------------ <-- SCF
 
Final energy =  -121.8904740491     eV
(energy not corrected for finite basis set)
 

 ******************************** Symmetrised Forces ********************************
 *                                                                                  *
 *                           Cartesian components (eV/A)                            *
 * -------------------------------------------------------------------------------- *
 *                         x                    y                    z              *
 *                                                                                  *
 * H               1      0.65501              0.67487              0.59635         *
 * H               2     -0.64953             -0.69044             -0.59635         *
 * H               3     -0.64953              0.69044             -0.59635         *
 * H               4      0.65501             -0.67487              0.59635         *
 * H               5      0.64953             -0.69044             -0.59635         *
 * H               6     -0.65501              0.67487              0.59635         *
 * H               7      0.64953              0.69044             -0.59635         *
 * H               8     -0.65501             -0.67487              0.59635         *
 *                                                                                  *
 ************************************************************************************

 *********** Symmetrised Stress Tensor ***********
 *                                               *
 *          Cartesian components (GPa)           *
 * --------------------------------------------- *
 *             x             y             z     *
 *                                               *
 *  x    -72.629096      0.000000      0.000000  *
 *  y      0.000000    -71.834089      0.000000  *
 *  z      0.000000      0.000000    -72.323284  *
 *                                               *
 *  Pressure:   72.2622                          *
 *                                               *
 *************************************************
  
 +------------+-------------+-------------+-----------------+ <-- min LBFGS
 |    Step    |   lambda    |   F.delta'  |    enthalpy     | <-- min LBFGS
 +------------+-------------+-------------+-----------------+ <-- min LBFGS
 |  previous  |    0.000000 |    0.064916 |     -113.243657 | <-- min LBFGS
 | trial step |    1.000000 |   -0.215551 |     -113.122363 | <-- min LBFGS
 +------------+-------------+-------------+-----------------+ <-- min LBFGS
  

--------------------------------------------------------------------------------
 LBFGS: improving iteration         2 with line minimization (lambda=  0.231455)
--------------------------------------------------------------------------------

                           -------------------------------
                                      Unit Cell
                           -------------------------------
        Real Lattice(A)              Reciprocal Lattice(1/A)
     3.4001275     0.0000000     0.0000000        1.847926355   0.000000000   0.000000000
     0.0000000     1.9751191     0.0000000        0.000000000   3.181167828   0.000000000
     0.0000000     0.0000000     3.1465985        0.000000000   0.000000000   1.996818232

                       Lattice parameters(A)       Cell Angles
                    a =      3.400128          alpha =   90.000000
                    b =      1.975119          beta  =   90.000000
                    c =      3.146599          gamma =   90.000000

                Current cell volume =            21.131476 A**3

                           -------------------------------
                                     Cell Contents
                           -------------------------------

            xxxxxxxxxxxxxxxxxxxxxxxxxxxxxxxxxxxxxxxxxxxxxxxxxxxxxxxxxxxxxxxxx
            x  Element         Atom        Fractional coordinates of atoms  x
            x                 Number           u          v          w      x
            x---------------------------------------------------------------x
            x  H                 1         0.352913   0.136653   0.377529   x
            x  H                 2         0.480214   0.364171   0.501371   x
            x  H                 3         0.980214   0.635829   0.501371   x
            x  H                 4         0.852913   0.863347   0.377529   x
            x  H                 5         0.019786   0.364171   0.001371   x
            x  H                 6         0.147087   0.136653   0.877529   x
            x  H                 7         0.519786   0.635829   0.001371   x
            x  H                 8         0.647087   0.863347   0.877529   x
            xxxxxxxxxxxxxxxxxxxxxxxxxxxxxxxxxxxxxxxxxxxxxxxxxxxxxxxxxxxxxxxxx


------------------------------------------------------------------------ <-- SCF
SCF loop      Energy                           Energy gain       Timer   <-- SCF
                                               per atom          (sec)   <-- SCF
------------------------------------------------------------------------ <-- SCF
Initial  -1.21996397E+002                                        111.41  <-- SCF
      1  -1.22520409E+002                    6.55015048E-002     113.06  <-- SCF
      2  -1.22522288E+002                    2.34776848E-004     115.24  <-- SCF
      3  -1.22486349E+002                   -4.49238153E-003     117.37  <-- SCF
      4  -1.22484826E+002                   -1.90303335E-004     119.78  <-- SCF
      5  -1.22484843E+002                    2.06776662E-006     121.91  <-- SCF
      6  -1.22484844E+002                    1.94038128E-007     124.07  <-- SCF
      7  -1.22484844E+002                    1.08196627E-009     126.25  <-- SCF
      8  -1.22484844E+002                    4.16545232E-011     127.91  <-- SCF
      9  -1.22484844E+002                    2.91231218E-012     129.51  <-- SCF
     10  -1.22484844E+002                   -3.62528488E-014     131.12  <-- SCF
------------------------------------------------------------------------ <-- SCF
 
Final energy =  -122.4848441827     eV
(energy not corrected for finite basis set)
 

 ******************************** Symmetrised Forces ********************************
 *                                                                                  *
 *                           Cartesian components (eV/A)                            *
 * -------------------------------------------------------------------------------- *
 *                         x                    y                    z              *
 *                                                                                  *
 * H               1      0.02818              0.02678              0.02731         *
 * H               2     -0.02732             -0.03256             -0.02731         *
 * H               3     -0.02732              0.03256             -0.02731         *
 * H               4      0.02818             -0.02678              0.02731         *
 * H               5      0.02732             -0.03256             -0.02731         *
 * H               6     -0.02818              0.02678              0.02731         *
 * H               7      0.02732              0.03256             -0.02731         *
 * H               8     -0.02818             -0.02678              0.02731         *
 *                                                                                  *
 ************************************************************************************

 *********** Symmetrised Stress Tensor ***********
 *                                               *
 *          Cartesian components (GPa)           *
 * --------------------------------------------- *
 *             x             y             z     *
 *                                               *
 *  x    -70.477223      0.000000      0.000000  *
 *  y      0.000000    -70.414619      0.000000  *
 *  z      0.000000      0.000000    -70.005495  *
 *                                               *
 *  Pressure:   70.2991                          *
 *                                               *
 *************************************************
  
 +------------+-------------+-------------+-----------------+ <-- min LBFGS
 |    Step    |   lambda    |   F.delta'  |    enthalpy     | <-- min LBFGS
 +------------+-------------+-------------+-----------------+ <-- min LBFGS
 |  previous  |    0.000000 |    0.064916 |     -113.243657 | <-- min LBFGS
 | trial step |    1.000000 |   -0.215551 |     -113.122363 | <-- min LBFGS
 |  line step |    0.231455 |   -0.010832 |     -113.252383 | <-- min LBFGS
 +------------+-------------+-------------+-----------------+ <-- min LBFGS
  
 LBFGS: finished iteration     2 with enthalpy= -1.13252383E+002 eV
  
 +-----------+-----------------+-----------------+------------+-----+ <-- LBFGS
 | Parameter |      value      |    tolerance    |    units   | OK? | <-- LBFGS
 +-----------+-----------------+-----------------+------------+-----+ <-- LBFGS
 |  dE/ion   |   1.090815E-003 |   1.000000E-009 |         eV | No  | <-- LBFGS
 |  |F|max   |   5.052199E-002 |   1.000000E-005 |       eV/A | No  | <-- LBFGS
 |  |dR|max  |   7.620632E-003 |   1.000000E-005 |          A | No  | <-- LBFGS
 |   Smax    |   4.772231E-001 |   1.000000E-005 |        GPa | No  | <-- LBFGS
 +-----------+-----------------+-----------------+------------+-----+ <-- LBFGS
  

================================================================================
 Starting LBFGS iteration          3 ...
================================================================================
  
 +------------+-------------+-------------+-----------------+ <-- min LBFGS
 |    Step    |   lambda    |   F.delta'  |    enthalpy     | <-- min LBFGS
 +------------+-------------+-------------+-----------------+ <-- min LBFGS
 |  previous  |    0.000000 |    0.009178 |     -113.252383 | <-- min LBFGS
 +------------+-------------+-------------+-----------------+ <-- min LBFGS
  

--------------------------------------------------------------------------------
 LBFGS: starting iteration         3 with trial guess (lambda=  1.000000)
--------------------------------------------------------------------------------

                           -------------------------------
                                      Unit Cell
                           -------------------------------
        Real Lattice(A)              Reciprocal Lattice(1/A)
     3.4043661     0.0000000     0.0000000        1.845625621   0.000000000   0.000000000
     0.0000000     1.9775303     0.0000000        0.000000000   3.177288968   0.000000000
     0.0000000     0.0000000     3.1495695        0.000000000   0.000000000   1.994934635

                       Lattice parameters(A)       Cell Angles
                    a =      3.404366          alpha =   90.000000
                    b =      1.977530          beta  =   90.000000
                    c =      3.149570          gamma =   90.000000

                Current cell volume =            21.203649 A**3

                           -------------------------------
                                     Cell Contents
                           -------------------------------

            xxxxxxxxxxxxxxxxxxxxxxxxxxxxxxxxxxxxxxxxxxxxxxxxxxxxxxxxxxxxxxxxx
            x  Element         Atom        Fractional coordinates of atoms  x
            x                 Number           u          v          w      x
            x---------------------------------------------------------------x
            x  H                 1         0.353086   0.136854   0.377748   x
            x  H                 2         0.480062   0.363721   0.501152   x
            x  H                 3         0.980062   0.636279   0.501152   x
            x  H                 4         0.853086   0.863146   0.377748   x
            x  H                 5         0.019938   0.363721   0.001152   x
            x  H                 6         0.146914   0.136854   0.877748   x
            x  H                 7         0.519938   0.636279   0.001152   x
            x  H                 8         0.646914   0.863146   0.877748   x
            xxxxxxxxxxxxxxxxxxxxxxxxxxxxxxxxxxxxxxxxxxxxxxxxxxxxxxxxxxxxxxxxx


------------------------------------------------------------------------ <-- SCF
SCF loop      Energy                           Energy gain       Timer   <-- SCF
                                               per atom          (sec)   <-- SCF
------------------------------------------------------------------------ <-- SCF
Initial  -1.22515549E+002                                        133.39  <-- SCF
      1  -1.22516771E+002                    1.52793476E-004     135.01  <-- SCF
      2  -1.22516775E+002                    4.97541244E-007     137.15  <-- SCF
      3  -1.22516684E+002                   -1.13752837E-005     139.31  <-- SCF
      4  -1.22516680E+002                   -4.51589662E-007     141.51  <-- SCF
      5  -1.22516680E+002                    4.56444815E-009     143.66  <-- SCF
      6  -1.22516680E+002                    4.19496818E-010     145.82  <-- SCF
      7  -1.22516680E+002                    1.19936508E-012     147.42  <-- SCF
      8  -1.22516680E+002                   -1.20842829E-014     149.05  <-- SCF
------------------------------------------------------------------------ <-- SCF
 
Final energy =  -122.5166804085     eV
(energy not corrected for finite basis set)
 

 ******************************** Symmetrised Forces ********************************
 *                                                                                  *
 *                           Cartesian components (eV/A)                            *
 * -------------------------------------------------------------------------------- *
 *                         x                    y                    z              *
 *                                                                                  *
 * H               1      0.00120             -0.00012              0.00285         *
 * H               2     -0.00071             -0.00351             -0.00285         *
 * H               3     -0.00071              0.00351             -0.00285         *
 * H               4      0.00120              0.00012              0.00285         *
 * H               5      0.00071             -0.00351             -0.00285         *
 * H               6     -0.00120             -0.00012              0.00285         *
 * H               7      0.00071              0.00351             -0.00285         *
 * H               8     -0.00120              0.00012              0.00285         *
 *                                                                                  *
 ************************************************************************************

 *********** Symmetrised Stress Tensor ***********
 *                                               *
 *          Cartesian components (GPa)           *
 * --------------------------------------------- *
 *             x             y             z     *
 *                                               *
 *  x    -70.114310      0.000000      0.000000  *
 *  y      0.000000    -70.091415      0.000000  *
 *  z      0.000000      0.000000    -69.720972  *
 *                                               *
 *  Pressure:   69.9756                          *
 *                                               *
 *************************************************
  
 +------------+-------------+-------------+-----------------+ <-- min LBFGS
 |    Step    |   lambda    |   F.delta'  |    enthalpy     | <-- min LBFGS
 +------------+-------------+-------------+-----------------+ <-- min LBFGS
 |  previous  |    0.000000 |    0.009178 |     -113.252383 | <-- min LBFGS
 | trial step |    1.000000 |    0.000494 |     -113.252687 | <-- min LBFGS
 +------------+-------------+-------------+-----------------+ <-- min LBFGS
  
 LBFGS: finished iteration     3 with enthalpy= -1.13252687E+002 eV
  
 +-----------+-----------------+-----------------+------------+-----+ <-- LBFGS
 | Parameter |      value      |    tolerance    |    units   | OK? | <-- LBFGS
 +-----------+-----------------+-----------------+------------+-----+ <-- LBFGS
 |  dE/ion   |   3.792184E-005 |   1.000000E-009 |         eV | No  | <-- LBFGS
 |  |F|max   |   4.576602E-003 |   1.000000E-005 |       eV/A | No  | <-- LBFGS
 |  |dR|max  |   1.238928E-003 |   1.000000E-005 |          A | No  | <-- LBFGS
 |   Smax    |   2.790279E-001 |   1.000000E-005 |        GPa | No  | <-- LBFGS
 +-----------+-----------------+-----------------+------------+-----+ <-- LBFGS
  

================================================================================
 Starting LBFGS iteration          4 ...
================================================================================
  
 +------------+-------------+-------------+-----------------+ <-- min LBFGS
 |    Step    |   lambda    |   F.delta'  |    enthalpy     | <-- min LBFGS
 +------------+-------------+-------------+-----------------+ <-- min LBFGS
 |  previous  |    0.000000 |    0.001503 |     -113.252687 | <-- min LBFGS
 +------------+-------------+-------------+-----------------+ <-- min LBFGS
  

--------------------------------------------------------------------------------
 LBFGS: starting iteration         4 with trial guess (lambda=  1.000000)
--------------------------------------------------------------------------------

                           -------------------------------
                                      Unit Cell
                           -------------------------------
        Real Lattice(A)              Reciprocal Lattice(1/A)
     3.4047483     0.0000000     0.0000000        1.845418436   0.000000000   0.000000000
     0.0000000     1.9777219     0.0000000        0.000000000   3.176981281   0.000000000
     0.0000000     0.0000000     3.1490396        0.000000000   0.000000000   1.995270312

                       Lattice parameters(A)       Cell Angles
                    a =      3.404748          alpha =   90.000000
                    b =      1.977722          beta  =   90.000000
                    c =      3.149040          gamma =   90.000000

                Current cell volume =            21.204515 A**3

                           -------------------------------
                                     Cell Contents
                           -------------------------------

            xxxxxxxxxxxxxxxxxxxxxxxxxxxxxxxxxxxxxxxxxxxxxxxxxxxxxxxxxxxxxxxxx
            x  Element         Atom        Fractional coordinates of atoms  x
            x                 Number           u          v          w      x
            x---------------------------------------------------------------x
            x  H                 1         0.353080   0.136772   0.377799   x
            x  H                 2         0.480083   0.363616   0.501101   x
            x  H                 3         0.980083   0.636384   0.501101   x
            x  H                 4         0.853080   0.863228   0.377799   x
            x  H                 5         0.019917   0.363616   0.001101   x
            x  H                 6         0.146920   0.136772   0.877799   x
            x  H                 7         0.519917   0.636384   0.001101   x
            x  H                 8         0.646920   0.863228   0.877799   x
            xxxxxxxxxxxxxxxxxxxxxxxxxxxxxxxxxxxxxxxxxxxxxxxxxxxxxxxxxxxxxxxxx


------------------------------------------------------------------------ <-- SCF
SCF loop      Energy                           Energy gain       Timer   <-- SCF
                                               per atom          (sec)   <-- SCF
------------------------------------------------------------------------ <-- SCF
Initial  -1.22517042E+002                                        151.26  <-- SCF
      1  -1.22517073E+002                    3.87498861E-006     152.89  <-- SCF
      2  -1.22517073E+002                    1.02889603E-008     155.27  <-- SCF
      3  -1.22517072E+002                   -1.38296056E-007     157.46  <-- SCF
      4  -1.22517072E+002                   -4.03577286E-009     159.60  <-- SCF
      5  -1.22517072E+002                    6.31705890E-011     161.20  <-- SCF
      6  -1.22517072E+002                    6.68260845E-012     162.78  <-- SCF
      7  -1.22517072E+002                    5.74003439E-014     164.40  <-- SCF
------------------------------------------------------------------------ <-- SCF
 
Final energy =  -122.5170717724     eV
(energy not corrected for finite basis set)
 

 ******************************** Symmetrised Forces ********************************
 *                                                                                  *
 *                           Cartesian components (eV/A)                            *
 * -------------------------------------------------------------------------------- *
 *                         x                    y                    z              *
 *                                                                                  *
 * H               1     -0.00133             -0.00204              0.00055         *
 * H               2      0.00163             -0.00032             -0.00055         *
 * H               3      0.00163              0.00032             -0.00055         *
 * H               4     -0.00133              0.00204              0.00055         *
 * H               5     -0.00163             -0.00032             -0.00055         *
 * H               6      0.00133             -0.00204              0.00055         *
 * H               7     -0.00163              0.00032             -0.00055         *
 * H               8      0.00133              0.00204              0.00055         *
 *                                                                                  *
 ************************************************************************************

 *********** Symmetrised Stress Tensor ***********
 *                                               *
 *          Cartesian components (GPa)           *
 * --------------------------------------------- *
 *             x             y             z     *
 *                                               *
 *  x    -70.105499      0.000000      0.000000  *
 *  y      0.000000    -70.093501      0.000000  *
 *  z      0.000000      0.000000    -69.783841  *
 *                                               *
 *  Pressure:   69.9943                          *
 *                                               *
 *************************************************
  
 +------------+-------------+-------------+-----------------+ <-- min LBFGS
 |    Step    |   lambda    |   F.delta'  |    enthalpy     | <-- min LBFGS
 +------------+-------------+-------------+-----------------+ <-- min LBFGS
 |  previous  |    0.000000 |    0.001503 |     -113.252687 | <-- min LBFGS
 | trial step |    1.000000 |    0.001020 |     -113.252699 | <-- min LBFGS
 +------------+-------------+-------------+-----------------+ <-- min LBFGS
  

--------------------------------------------------------------------------------
 LBFGS: improving iteration         4 with line minimization (lambda=  3.109512)
--------------------------------------------------------------------------------

                           -------------------------------
                                      Unit Cell
                           -------------------------------
        Real Lattice(A)              Reciprocal Lattice(1/A)
     3.4055546     0.0000000     0.0000000        1.844981528   0.000000000   0.000000000
     0.0000000     1.9781259     0.0000000        0.000000000   3.176332405   0.000000000
     0.0000000     0.0000000     3.1479219        0.000000000   0.000000000   1.995978798

                       Lattice parameters(A)       Cell Angles
                    a =      3.405555          alpha =   90.000000
                    b =      1.978126          beta  =   90.000000
                    c =      3.147922          gamma =   90.000000

                Current cell volume =            21.206340 A**3

                           -------------------------------
                                     Cell Contents
                           -------------------------------

            xxxxxxxxxxxxxxxxxxxxxxxxxxxxxxxxxxxxxxxxxxxxxxxxxxxxxxxxxxxxxxxxx
            x  Element         Atom        Fractional coordinates of atoms  x
            x                 Number           u          v          w      x
            x---------------------------------------------------------------x
            x  H                 1         0.353067   0.136599   0.377905   x
            x  H                 2         0.480126   0.363395   0.500995   x
            x  H                 3         0.980126   0.636605   0.500995   x
            x  H                 4         0.853067   0.863401   0.377905   x
            x  H                 5         0.019874   0.363395   0.000995   x
            x  H                 6         0.146933   0.136599   0.877905   x
            x  H                 7         0.519874   0.636605   0.000995   x
            x  H                 8         0.646933   0.863401   0.877905   x
            xxxxxxxxxxxxxxxxxxxxxxxxxxxxxxxxxxxxxxxxxxxxxxxxxxxxxxxxxxxxxxxxx


------------------------------------------------------------------------ <-- SCF
SCF loop      Energy                           Energy gain       Timer   <-- SCF
                                               per atom          (sec)   <-- SCF
------------------------------------------------------------------------ <-- SCF
Initial  -1.22517747E+002                                        166.89  <-- SCF
      1  -1.22517884E+002                    1.71401934E-005     168.49  <-- SCF
      2  -1.22517885E+002                    4.57058999E-008     170.73  <-- SCF
      3  -1.22517880E+002                   -6.16416891E-007     172.87  <-- SCF
      4  -1.22517880E+002                   -1.79670991E-008     175.04  <-- SCF
      5  -1.22517880E+002                    2.83654373E-010     177.18  <-- SCF
      6  -1.22517880E+002                    2.90022790E-011     178.77  <-- SCF
      7  -1.22517880E+002                    4.22949902E-013     180.34  <-- SCF
      8  -1.22517880E+002                    3.20233497E-013     181.96  <-- SCF
------------------------------------------------------------------------ <-- SCF
 
Final energy =  -122.5178797120     eV
(energy not corrected for finite basis set)
 

 ******************************** Symmetrised Forces ********************************
 *                                                                                  *
 *                           Cartesian components (eV/A)                            *
 * -------------------------------------------------------------------------------- *
 *                         x                    y                    z              *
 *                                                                                  *
 * H               1     -0.00665             -0.00609             -0.00427         *
 * H               2      0.00657              0.00641              0.00427         *
 * H               3      0.00657             -0.00641              0.00427         *
 * H               4     -0.00665              0.00609             -0.00427         *
 * H               5     -0.00657              0.00641              0.00427         *
 * H               6      0.00665             -0.00609             -0.00427         *
 * H               7     -0.00657             -0.00641              0.00427         *
 * H               8      0.00665              0.00609             -0.00427         *
 *                                                                                  *
 ************************************************************************************

 *********** Symmetrised Stress Tensor ***********
 *                                               *
 *          Cartesian components (GPa)           *
 * --------------------------------------------- *
 *             x             y             z     *
 *                                               *
 *  x    -70.087193      0.000000      0.000000  *
 *  y      0.000000    -70.097922      0.000000  *
 *  z      0.000000      0.000000    -69.916018  *
 *                                               *
 *  Pressure:   70.0337                          *
 *                                               *
 *************************************************
  
 +------------+-------------+-------------+-----------------+ <-- min LBFGS
 |    Step    |   lambda    |   F.delta'  |    enthalpy     | <-- min LBFGS
 +------------+-------------+-------------+-----------------+ <-- min LBFGS
 |  previous  |    0.000000 |    0.001503 |     -113.252687 | <-- min LBFGS
 | trial step |    1.000000 |    0.001020 |     -113.252699 | <-- min LBFGS
 |  line step |    3.109512 |  4.451E-006 |     -113.252710 | <-- min LBFGS
 +------------+-------------+-------------+-----------------+ <-- min LBFGS
  
 LBFGS: finished iteration     4 with enthalpy= -1.13252710E+002 eV
  
 +-----------+-----------------+-----------------+------------+-----+ <-- LBFGS
 | Parameter |      value      |    tolerance    |    units   | OK? | <-- LBFGS
 +-----------+-----------------+-----------------+------------+-----+ <-- LBFGS
 |  dE/ion   |   2.987175E-006 |   1.000000E-009 |         eV | No  | <-- LBFGS
 |  |F|max   |   1.012244E-002 |   1.000000E-005 |       eV/A | No  | <-- LBFGS
 |  |dR|max  |   8.412426E-004 |   1.000000E-005 |          A | No  | <-- LBFGS
 |   Smax    |   9.792164E-002 |   1.000000E-005 |        GPa | No  | <-- LBFGS
 +-----------+-----------------+-----------------+------------+-----+ <-- LBFGS
  

================================================================================
 Starting LBFGS iteration          5 ...
================================================================================
  
 +------------+-------------+-------------+-----------------+ <-- min LBFGS
 |    Step    |   lambda    |   F.delta'  |    enthalpy     | <-- min LBFGS
 +------------+-------------+-------------+-----------------+ <-- min LBFGS
 |  previous  |    0.000000 |    0.001248 |     -113.252710 | <-- min LBFGS
 +------------+-------------+-------------+-----------------+ <-- min LBFGS
  

--------------------------------------------------------------------------------
 LBFGS: starting iteration         5 with trial guess (lambda=  1.000000)
--------------------------------------------------------------------------------

                           -------------------------------
                                      Unit Cell
                           -------------------------------
        Real Lattice(A)              Reciprocal Lattice(1/A)
     3.4058346     0.0000000     0.0000000        1.844829827   0.000000000   0.000000000
     0.0000000     1.9782699     0.0000000        0.000000000   3.176101109   0.000000000
     0.0000000     0.0000000     3.1470741        0.000000000   0.000000000   1.996516506

                       Lattice parameters(A)       Cell Angles
                    a =      3.405835          alpha =   90.000000
                    b =      1.978270          beta  =   90.000000
                    c =      3.147074          gamma =   90.000000

                Current cell volume =            21.203916 A**3

                           -------------------------------
                                     Cell Contents
                           -------------------------------

            xxxxxxxxxxxxxxxxxxxxxxxxxxxxxxxxxxxxxxxxxxxxxxxxxxxxxxxxxxxxxxxxx
            x  Element         Atom        Fractional coordinates of atoms  x
            x                 Number           u          v          w      x
            x---------------------------------------------------------------x
            x  H                 1         0.353013   0.136479   0.377953   x
            x  H                 2         0.480191   0.363367   0.500947   x
            x  H                 3         0.980191   0.636633   0.500947   x
            x  H                 4         0.853013   0.863521   0.377953   x
            x  H                 5         0.019809   0.363367   0.000947   x
            x  H                 6         0.146987   0.136479   0.877953   x
            x  H                 7         0.519809   0.636633   0.000947   x
            x  H                 8         0.646987   0.863521   0.877953   x
            xxxxxxxxxxxxxxxxxxxxxxxxxxxxxxxxxxxxxxxxxxxxxxxxxxxxxxxxxxxxxxxxx


------------------------------------------------------------------------ <-- SCF
SCF loop      Energy                           Energy gain       Timer   <-- SCF
                                               per atom          (sec)   <-- SCF
------------------------------------------------------------------------ <-- SCF
Initial  -1.22516792E+002                                        184.28  <-- SCF
      1  -1.22516832E+002                    5.04854764E-006     185.87  <-- SCF
      2  -1.22516832E+002                    1.41264180E-008     188.08  <-- SCF
      3  -1.22516832E+002                   -9.05340700E-008     190.41  <-- SCF
      4  -1.22516832E+002                   -4.67329431E-010     192.61  <-- SCF
      5  -1.22516832E+002                    9.01880245E-011     194.20  <-- SCF
      6  -1.22516832E+002                    9.27166607E-012     195.81  <-- SCF
      7  -1.22516832E+002                   -1.20842829E-013     197.42  <-- SCF
------------------------------------------------------------------------ <-- SCF
 
Final energy =  -122.5168316471     eV
(energy not corrected for finite basis set)
 

 ******************************** Symmetrised Forces ********************************
 *                                                                                  *
 *                           Cartesian components (eV/A)                            *
 * -------------------------------------------------------------------------------- *
 *                         x                    y                    z              *
 *                                                                                  *
 * H               1     -0.00325             -0.00208             -0.00135         *
 * H               2      0.00308              0.00335              0.00135         *
 * H               3      0.00308             -0.00335              0.00135         *
 * H               4     -0.00325              0.00208             -0.00135         *
 * H               5     -0.00308              0.00335              0.00135         *
 * H               6      0.00325             -0.00208             -0.00135         *
 * H               7     -0.00308             -0.00335              0.00135         *
 * H               8      0.00325              0.00208             -0.00135         *
 *                                                                                  *
 ************************************************************************************

 *********** Symmetrised Stress Tensor ***********
 *                                               *
 *          Cartesian components (GPa)           *
 * --------------------------------------------- *
 *             x             y             z     *
 *                                               *
 *  x    -70.032633      0.000000      0.000000  *
 *  y      0.000000    -70.047159      0.000000  *
 *  z      0.000000      0.000000    -69.958563  *
 *                                               *
 *  Pressure:   70.0128                          *
 *                                               *
 *************************************************
  
 +------------+-------------+-------------+-----------------+ <-- min LBFGS
 |    Step    |   lambda    |   F.delta'  |    enthalpy     | <-- min LBFGS
 +------------+-------------+-------------+-----------------+ <-- min LBFGS
 |  previous  |    0.000000 |    0.001248 |     -113.252710 | <-- min LBFGS
 | trial step |    1.000000 |    0.000591 |     -113.252721 | <-- min LBFGS
 +------------+-------------+-------------+-----------------+ <-- min LBFGS
  

--------------------------------------------------------------------------------
 LBFGS: improving iteration         5 with line minimization (lambda=  1.899148)
--------------------------------------------------------------------------------

                           -------------------------------
                                      Unit Cell
                           -------------------------------
        Real Lattice(A)              Reciprocal Lattice(1/A)
     3.4060864     0.0000000     0.0000000        1.844693447   0.000000000   0.000000000
     0.0000000     1.9783995     0.0000000        0.000000000   3.175893169   0.000000000
     0.0000000     0.0000000     3.1463118        0.000000000   0.000000000   1.997000232

                       Lattice parameters(A)       Cell Angles
                    a =      3.406086          alpha =   90.000000
                    b =      1.978399          beta  =   90.000000
                    c =      3.146312          gamma =   90.000000

                Current cell volume =            21.201735 A**3

                           -------------------------------
                                     Cell Contents
                           -------------------------------

            xxxxxxxxxxxxxxxxxxxxxxxxxxxxxxxxxxxxxxxxxxxxxxxxxxxxxxxxxxxxxxxxx
            x  Element         Atom        Fractional coordinates of atoms  x
            x                 Number           u          v          w      x
            x---------------------------------------------------------------x
            x  H                 1         0.352964   0.136371   0.377996   x
            x  H                 2         0.480249   0.363341   0.500904   x
            x  H                 3         0.980249   0.636659   0.500904   x
[...]
            x  H                 7         0.519422   0.636510   0.000506   x
            x  H                 8         0.647311   0.863545   0.878394   x
            xxxxxxxxxxxxxxxxxxxxxxxxxxxxxxxxxxxxxxxxxxxxxxxxxxxxxxxxxxxxxxxxx


------------------------------------------------------------------------ <-- SCF
SCF loop      Energy                           Energy gain       Timer   <-- SCF
                                               per atom          (sec)   <-- SCF
------------------------------------------------------------------------ <-- SCF
Initial  -1.22515805E+002                                        434.31  <-- SCF
      1  -1.22515805E+002                    4.34674678E-010     435.91  <-- SCF
      2  -1.22515805E+002                    1.60116749E-013     437.57  <-- SCF
      3  -1.22515805E+002                    4.86392387E-013     439.27  <-- SCF
      4  -1.22515805E+002                    9.36531926E-014     440.87  <-- SCF
------------------------------------------------------------------------ <-- SCF
 
Final energy =  -122.5158048790     eV
(energy not corrected for finite basis set)
 

 ******************************** Symmetrised Forces ********************************
 *                                                                                  *
 *                           Cartesian components (eV/A)                            *
 * -------------------------------------------------------------------------------- *
 *                         x                    y                    z              *
 *                                                                                  *
 * H               1      0.00000             -0.00000              0.00000         *
 * H               2      0.00000             -0.00000             -0.00000         *
 * H               3      0.00000              0.00000             -0.00000         *
 * H               4      0.00000              0.00000              0.00000         *
 * H               5     -0.00000             -0.00000             -0.00000         *
 * H               6     -0.00000             -0.00000              0.00000         *
 * H               7     -0.00000              0.00000             -0.00000         *
 * H               8     -0.00000              0.00000              0.00000         *
 *                                                                                  *
 ************************************************************************************

 *********** Symmetrised Stress Tensor ***********
 *                                               *
 *          Cartesian components (GPa)           *
 * --------------------------------------------- *
 *             x             y             z     *
 *                                               *
 *  x    -69.999988      0.000000      0.000000  *
 *  y      0.000000    -70.000010      0.000000  *
 *  z      0.000000      0.000000    -70.000007  *
 *                                               *
 *  Pressure:   70.0000                          *
 *                                               *
 *************************************************
  
 +------------+-------------+-------------+-----------------+ <-- min LBFGS
 |    Step    |   lambda    |   F.delta'  |    enthalpy     | <-- min LBFGS
 +------------+-------------+-------------+-----------------+ <-- min LBFGS
 |  previous  |    0.000000 |  8.740E-007 |     -113.252732 | <-- min LBFGS
 | trial step |    1.000000 |  3.786E-007 |     -113.252732 | <-- min LBFGS
 |  line step |    1.764167 | -3.205E-008 |     -113.252732 | <-- min LBFGS
 +------------+-------------+-------------+-----------------+ <-- min LBFGS
  
 LBFGS: finished iteration    15 with enthalpy= -1.13252732E+002 eV
  
 +-----------+-----------------+-----------------+------------+-----+ <-- LBFGS
 | Parameter |      value      |    tolerance    |    units   | OK? | <-- LBFGS
 +-----------+-----------------+-----------------+------------+-----+ <-- LBFGS
 |  dE/ion   |   2.282147E-010 |   1.000000E-009 |         eV | Yes | <-- LBFGS
 |  |F|max   |   8.857208E-007 |   1.000000E-005 |       eV/A | Yes | <-- LBFGS
 |  |dR|max  |   4.528268E-006 |   1.000000E-005 |          A | Yes | <-- LBFGS
 |   Smax    |   1.154028E-005 |   1.000000E-005 |        GPa | No  | <-- LBFGS
 +-----------+-----------------+-----------------+------------+-----+ <-- LBFGS
  

================================================================================
 Starting LBFGS iteration         16 ...
================================================================================
  
 +------------+-------------+-------------+-----------------+ <-- min LBFGS
 |    Step    |   lambda    |   F.delta'  |    enthalpy     | <-- min LBFGS
 +------------+-------------+-------------+-----------------+ <-- min LBFGS
 |  previous  |    0.000000 |  1.882E-007 |     -113.252732 | <-- min LBFGS
 +------------+-------------+-------------+-----------------+ <-- min LBFGS
  

--------------------------------------------------------------------------------
 LBFGS: starting iteration        16 with trial guess (lambda=  1.000000)
--------------------------------------------------------------------------------

                           -------------------------------
                                      Unit Cell
                           -------------------------------
        Real Lattice(A)              Reciprocal Lattice(1/A)
     3.4057742     0.0000000     0.0000000        1.844862577   0.000000000   0.000000000
     0.0000000     1.9785163     0.0000000        0.000000000   3.175705657   0.000000000
     0.0000000     0.0000000     3.1463857        0.000000000   0.000000000   1.996953291

                       Lattice parameters(A)       Cell Angles
                    a =      3.405774          alpha =   90.000000
                    b =      1.978516          beta  =   90.000000
                    c =      3.146386          gamma =   90.000000

                Current cell volume =            21.201541 A**3

                           -------------------------------
                                     Cell Contents
                           -------------------------------

            xxxxxxxxxxxxxxxxxxxxxxxxxxxxxxxxxxxxxxxxxxxxxxxxxxxxxxxxxxxxxxxxx
            x  Element         Atom        Fractional coordinates of atoms  x
            x                 Number           u          v          w      x
            x---------------------------------------------------------------x
            x  H                 1         0.352689   0.136455   0.378394   x
            x  H                 2         0.480578   0.363490   0.500506   x
            x  H                 3         0.980578   0.636510   0.500506   x
            x  H                 4         0.852689   0.863545   0.378394   x
            x  H                 5         0.019422   0.363490   0.000506   x
            x  H                 6         0.147311   0.136455   0.878394   x
            x  H                 7         0.519422   0.636510   0.000506   x
            x  H                 8         0.647311   0.863545   0.878394   x
            xxxxxxxxxxxxxxxxxxxxxxxxxxxxxxxxxxxxxxxxxxxxxxxxxxxxxxxxxxxxxxxxx


------------------------------------------------------------------------ <-- SCF
SCF loop      Energy                           Energy gain       Timer   <-- SCF
                                               per atom          (sec)   <-- SCF
------------------------------------------------------------------------ <-- SCF
Initial  -1.22515805E+002                                        443.10  <-- SCF
      1  -1.22515805E+002                    1.37579561E-011     444.31  <-- SCF
      2  -1.22515805E+002                    3.32317780E-013     445.96  <-- SCF
      3  -1.22515805E+002                   -7.25056975E-014     447.59  <-- SCF
      4  -1.22515805E+002                    1.96369597E-013     449.31  <-- SCF
------------------------------------------------------------------------ <-- SCF
 
Final energy =  -122.5158048795     eV
(energy not corrected for finite basis set)
 

 ******************************** Symmetrised Forces ********************************
 *                                                                                  *
 *                           Cartesian components (eV/A)                            *
 * -------------------------------------------------------------------------------- *
 *                         x                    y                    z              *
 *                                                                                  *
 * H               1      0.00000              0.00000             -0.00000         *
 * H               2      0.00000             -0.00000              0.00000         *
 * H               3      0.00000              0.00000              0.00000         *
 * H               4      0.00000             -0.00000             -0.00000         *
 * H               5     -0.00000             -0.00000              0.00000         *
 * H               6     -0.00000              0.00000             -0.00000         *
 * H               7     -0.00000              0.00000              0.00000         *
 * H               8     -0.00000             -0.00000             -0.00000         *
 *                                                                                  *
 ************************************************************************************

 *********** Symmetrised Stress Tensor ***********
 *                                               *
 *          Cartesian components (GPa)           *
 * --------------------------------------------- *
 *             x             y             z     *
 *                                               *
 *  x    -69.999999      0.000000      0.000000  *
 *  y      0.000000    -70.000003      0.000000  *
 *  z      0.000000      0.000000    -69.999998  *
 *                                               *
 *  Pressure:   70.0000                          *
 *                                               *
 *************************************************
  
 +------------+-------------+-------------+-----------------+ <-- min LBFGS
 |    Step    |   lambda    |   F.delta'  |    enthalpy     | <-- min LBFGS
 +------------+-------------+-------------+-----------------+ <-- min LBFGS
 |  previous  |    0.000000 |  1.882E-007 |     -113.252732 | <-- min LBFGS
 | trial step |    1.000000 |  2.304E-008 |     -113.252732 | <-- min LBFGS
 +------------+-------------+-------------+-----------------+ <-- min LBFGS
  
 LBFGS: finished iteration    16 with enthalpy= -1.13252732E+002 eV
  
 +-----------+-----------------+-----------------+------------+-----+ <-- LBFGS
 | Parameter |      value      |    tolerance    |    units   | OK? | <-- LBFGS
 +-----------+-----------------+-----------------+------------+-----+ <-- LBFGS
 |  dE/ion   |   3.619243E-012 |   1.000000E-009 |         eV | Yes | <-- LBFGS
 |  |F|max   |   1.992021E-007 |   1.000000E-005 |       eV/A | Yes | <-- LBFGS
 |  |dR|max  |   7.263362E-007 |   1.000000E-005 |          A | Yes | <-- LBFGS
 |   Smax    |   2.840941E-006 |   1.000000E-005 |        GPa | Yes | <-- LBFGS
 +-----------+-----------------+-----------------+------------+-----+ <-- LBFGS
  
 LBFGS: Geometry optimization completed successfully.

================================================================================
 LBFGS: Final Configuration:
================================================================================

                           -------------------------------
                                      Unit Cell
                           -------------------------------
        Real Lattice(A)              Reciprocal Lattice(1/A)
     3.4057742     0.0000000     0.0000000        1.844862577   0.000000000   0.000000000
     0.0000000     1.9785163     0.0000000        0.000000000   3.175705657   0.000000000
     0.0000000     0.0000000     3.1463857        0.000000000   0.000000000   1.996953291

                       Lattice parameters(A)       Cell Angles
                    a =      3.405774          alpha =   90.000000
                    b =      1.978516          beta  =   90.000000
                    c =      3.146386          gamma =   90.000000

                Current cell volume =            21.201541 A**3

                           -------------------------------
                                     Cell Contents
                           -------------------------------

            xxxxxxxxxxxxxxxxxxxxxxxxxxxxxxxxxxxxxxxxxxxxxxxxxxxxxxxxxxxxxxxxx
            x  Element         Atom        Fractional coordinates of atoms  x
            x                 Number           u          v          w      x
            x---------------------------------------------------------------x
            x  H                 1         0.352689   0.136455   0.378394   x
            x  H                 2         0.480578   0.363490   0.500506   x
            x  H                 3         0.980578   0.636510   0.500506   x
            x  H                 4         0.852689   0.863545   0.378394   x
            x  H                 5         0.019422   0.363490   0.000506   x
            x  H                 6         0.147311   0.136455   0.878394   x
            x  H                 7         0.519422   0.636510   0.000506   x
            x  H                 8         0.647311   0.863545   0.878394   x
            xxxxxxxxxxxxxxxxxxxxxxxxxxxxxxxxxxxxxxxxxxxxxxxxxxxxxxxxxxxxxxxxx


 LBFGS: Final Enthalpy     = -1.13252732E+002 eV
 LBFGS: Final <frequency>  =    1315.57045 cm-1
 LBFGS: Final bulk modulus =     185.18141 GPa

 ******************************** Symmetrised Forces ********************************
 *                                                                                  *
 *                           Cartesian components (eV/A)                            *
 * -------------------------------------------------------------------------------- *
 *                         x                    y                    z              *
 *                                                                                  *
 * H               1      0.00000              0.00000             -0.00000         *
 * H               2      0.00000             -0.00000              0.00000         *
 * H               3      0.00000              0.00000              0.00000         *
 * H               4      0.00000             -0.00000             -0.00000         *
 * H               5     -0.00000             -0.00000              0.00000         *
 * H               6     -0.00000              0.00000             -0.00000         *
 * H               7     -0.00000              0.00000              0.00000         *
 * H               8     -0.00000             -0.00000             -0.00000         *
 *                                                                                  *
 ************************************************************************************

 *********** Symmetrised Stress Tensor ***********
 *                                               *
 *          Cartesian components (GPa)           *
 * --------------------------------------------- *
 *             x             y             z     *
 *                                               *
 *  x    -69.999999      0.000000      0.000000  *
 *  y      0.000000    -70.000003      0.000000  *
 *  z      0.000000      0.000000    -69.999998  *
 *                                               *
 *  Pressure:   70.0000                          *
 *                                               *
 *************************************************

 Pseudo atomic calculation performed for H 1s1

 Converged in 24 iterations to a total energy of -12.4855 eV

Charge spilling parameter for spin component 1 = 0.58%

            Orbital Populations       
     Ion    Atom   Orbital             Charge
  -------------------------------------------
      H     1      S                    0.998
      H     2      S                    1.002
      H     3      S                    0.999
      H     4      S                    1.001
      H     5      S                    0.998
      H     6      S                    1.002
      H     7      S                    1.003
      H     8      S                    0.998
  -------------------------------------------
                           Total:       8.000
  -------------------------------------------

     Atomic Populations (Mulliken)
     -----------------------------
Species          Ion     s      p      d      f     Total  Charge (e)
=====================================================================
  H               1     1.00   0.00   0.00   0.00   1.00     0.00
  H               2     1.00   0.00   0.00   0.00   1.00    -0.00
  H               3     1.00   0.00   0.00   0.00   1.00    -0.00
  H               4     1.00   0.00   0.00   0.00   1.00     0.00
  H               5     1.00   0.00   0.00   0.00   1.00    -0.00
  H               6     1.00   0.00   0.00   0.00   1.00     0.00
  H               7     1.00   0.00   0.00   0.00   1.00    -0.00
  H               8     1.00   0.00   0.00   0.00   1.00     0.00
=====================================================================

                 Bond                   Population      Length (A)
======================================================================
               H 5 -- H 6                    1.38        0.73424
               H 7 -- H 8                    1.38        0.73424
               H 3 -- H 4                    1.38        0.73424
               H 1 -- H 2                    1.38        0.73424
               H 4 -- H 5                   -0.26        1.64759
               H 1 -- H 7                   -0.26        1.64759
               H 2 -- H 8                   -0.26        1.64759
               H 3 -- H 6                   -0.26        1.64759
               H 1 -- H 3                   -0.23        1.65292
               H 5 -- H 8                   -0.23        1.65292
               H 2 -- H 4                   -0.23        1.65292
               H 6 -- H 7                   -0.23        1.65292
               H 3 -- H 5                   -0.23        1.66860
               H 2 -- H 7                   -0.23        1.66860
               H 1 -- H 5                   -0.12        1.70404
               H 4 -- H 7                   -0.12        1.70404
               H 2 -- H 6                   -0.12        1.70404
               H 3 -- H 8                   -0.12        1.70404
               H 1 -- H 6                   -0.07        1.72169
               H 4 -- H 8                   -0.07        1.72169
               H 1 -- H 4                   -0.33        1.78644
               H 6 -- H 8                   -0.33        1.78644
               H 2 -- H 3                   -0.23        1.78651
               H 5 -- H 7                   -0.23        1.78651
               H 4 -- H 6                   -0.31        1.94251
               H 1 -- H 8                   -0.31        1.94251
======================================================================


Writing analysis data to Pca21.castep_bin

Writing model to Pca21.check
 
 A BibTeX formatted list of references used in this run has been written to 
 Pca21.bib
 
Initialisation time =      3.59 s
Calculation time    =    448.85 s
Finalisation time   =      2.79 s
Total time          =    455.23 s
Peak Memory Use     = 546384 kB
  
Overall parallel efficiency rating: Good (78%)                                  
  
Data was distributed by:-
k-point (32-way); efficiency rating: Good (78%)                                 
  
Parallel notes:
1) Calculation only took 452.5 s, so efficiency estimates may be inaccurate.    
