 +-------------------------------------------------+
 |                                                 |
 |      CCC   AA    SSS  TTTTT  EEEEE  PPPP        |
 |     C     A  A  S       T    E      P   P       |
 |     C     AAAA   SS     T    EEE    PPPP        |
 |     C     A  A     S    T    E      P           |
 |      CCC  A  A  SSS     T    EEEEE  P           |
 |                                                 |
 +-------------------------------------------------+
 |                                                 |
 | Welcome to Academic Release CASTEP version 18.1 |          
 | Ab Initio Total Energy Program                  |
 |                                                 |
 | Authors:                                        |
 | M. Segall, M. Probert, C. Pickard, P. Hasnip,   |
 | S. Clark, K. Refson, J. R. Yates, M. Payne      |
 |                                                 |
 | Contributors:                                   |
 | P. Lindan, P. Haynes, J. White, V. Milman,      |
 | N. Govind, M. Gibson, P. Tulip, V. Cocula,      |
 | B. Montanari, D. Quigley, M. Glover,            |
 | L. Bernasconi, A. Perlov, M. Plummer,           |
 | E. McNellis, J. Meyer, J. Gale, D. Jochym       |
 | J. Aarons, B. Walker, R. Gillen, D. Jones       |
 | T. Green, I. J. Bush, C. J. Armstrong,          |
 | E. J. Higgins, E. L. Brown, M. S. McFly,        |
 | J. Wilkins, B-C. Shih, P. J. P. Byrne           |
 |                                                 |
 | Copyright (c) 2000 - 2017                       |
 |                                                 |
 |     Distributed under the terms of an           |
 |     Agreement between the United Kingdom        |
 |     Car-Parrinello (UKCP) Consortium,           |
 |     Daresbury Laboratory and Accelrys, Inc.     |
 |                                                 |
 | Please cite                                     |
 |                                                 |
 |     "First principles methods using CASTEP"     |
 |                                                 |
 |         Zeitschrift fuer Kristallographie       |
 |           220(5-6) pp. 567-570 (2005)           |
 |                                                 |
 | S. J. Clark, M. D. Segall, C. J. Pickard,       |
 | P. J. Hasnip, M. J. Probert, K. Refson,         |
 | M. C. Payne                                     |
 |                                                 |
 |       in all publications arising from          |
 |              your use of CASTEP                 |
 |                                                 |
 +-------------------------------------------------+


 Compiled for linux_x86_64_gfortran4.8 on Thu, 19 Jul 2018 15:42:32 +0100
 from code version 70483bd0ad64+  Sun, 10 Dec 2017 12:18:29 +0000
 Compiler: GNU Fortran 4.8.5; Optimisation: fast
 MATHLIBS: Intel MKL(2018.0.0) (LAPACK version 3.7.0)
 FFT Lib : mkl
 Fundamental constants values: CODATA 2014

 Run started: Sun, 30 Aug 2020 23:14:40 +0100

 Atomic calculation performed for H: 1s1

 Converged in 41 iterations to an ae energy of -12.488 eV

   ============================================================                
   | Pseudopotential Report - Date of generation 30-08-2020   |                
   ------------------------------------------------------------                
   | Element: H Ionic charge:  1.00 Level of theory: PBE      |                
   | Atomic Solver: Koelling-Harmon                           |                
   |                                                          |                
   |               Reference Electronic Structure             |                
   |         Orbital         Occupation         Energy        |                
   |            1s              1.000           -0.239        |                
   |                                                          |                
   |                 Pseudopotential Definition               |                
   |        Beta     l      e      Rc     scheme   norm       |                
   |         loc     0   -0.239   0.702     qc      1         |                
   |                                                          |                
   | No charge augmentation                                   |                
   | No partial core correction                               |                
   ------------------------------------------------------------                
   | "0|0.7|2|6|8|10L(qc=10)"                                 |                
   ------------------------------------------------------------                
   |      Author: Chris J. Pickard, Cambridge University      |                
   ============================================================                

 Pseudo atomic calculation performed for H 1s1

 Converged in 24 iterations to a total energy of -12.4855 eV

 Calculation parallelised over 32 processes.
 Data is distributed by k-point(32-way)

 ************************************ Title ************************************
 

 ***************************** General Parameters ******************************
  
 output verbosity                               : normal  (1)
 write checkpoint data to                       : Pca21.check
 type of calculation                            : geometry optimization
 stress calculation                             : on
 density difference calculation                 : off
 electron localisation func (ELF) calculation   : off
 Hirshfeld analysis                             : off
 unlimited duration calculation
 timing information                             : on
 memory usage estimate                          : on
 write extra output files                       : on
 write final potential to formatted file        : off
 write final density to formatted file          : off
 write structure in CELL formatted file         : on
 write BibTeX reference list                    : on
 write OTFG pseudopotential files               : on
 write electrostatic potential file             : on
 write bands file                               : on
 checkpoint writing                             : both castep_bin and check files
  
 output         length unit                     : A
 output           mass unit                     : amu
 output           time unit                     : ps
 output         charge unit                     : e
 output           spin unit                     : hbar/2
 output         energy unit                     : eV
 output          force unit                     : eV/A
 output       velocity unit                     : A/ps
 output       pressure unit                     : GPa
 output     inv_length unit                     : 1/A
 output      frequency unit                     : cm-1
 output force constant unit                     : eV/A**2
 output         volume unit                     : A**3
 output   IR intensity unit                     : (D/A)**2/amu
 output         dipole unit                     : D
 output         efield unit                     : eV/A/e
 output        entropy unit                     : J/mol/K
  
 wavefunctions paging                           : none
 random number generator seed                   : randomised (231440935)
 data distribution                              : optimal for this architecture
 optimization strategy                          : maximize speed(+++)

 *********************** Exchange-Correlation Parameters ***********************
  
 using functional                               : Perdew Burke Ernzerhof
 relativistic treatment                         : Koelling-Harmon
 DFT+D: Semi-empirical dispersion correction    : off

 ************************* Pseudopotential Parameters **************************
  
 pseudopotential representation                 : reciprocal space
 <beta|phi> representation                      : reciprocal space
 spin-orbit coupling                            : off

 **************************** Basis Set Parameters *****************************
  
 plane wave basis set cut-off                   :  1600.0000   eV
 size of standard grid                          :     2.0000
 size of   fine   gmax                          :    40.9853   1/A
 finite basis set correction                    : automatic
 number of sample energies                      :          3
           sample  spacing                      :     5.0000   eV

 **************************** Electronic Parameters ****************************
  
 number of  electrons                           :  8.000    
 net charge of system                           :  0.000    
 treating system as non-spin-polarized
 number of bands                                :          4

 ********************* Electronic Minimization Parameters **********************
  
 Method: Treating system as non-metallic,
         and number of  SD  steps               :          1
         and number of  CG  steps               :          4
  
 total energy / atom convergence tol.           : 0.1000E-10   eV
 eigen-energy convergence tolerance             : 0.2000E-10   eV
 max force / atom convergence tol.              : ignored
 convergence tolerance window                   :          3   cycles
 max. number of SCF cycles                      :        200
 periodic dipole correction                     : NONE

 ************************** Density Mixing Parameters **************************
  
 density-mixing scheme                          : Broyden
 max. length of mixing history                  :         20
 charge density mixing amplitude                : 0.8000    
 cut-off energy for mixing                      :  1600.       eV

 *********************** Population Analysis Parameters ************************
  
 Population analysis with cutoff                :  3.000       A
 Population analysis output                     : summary and pdos components

 ********************** Geometry Optimization Parameters ***********************
  
 optimization method                            : LBFGS
 max. no. of LBFGS updates                      : unbounded
 variable cell method                           : fixed basis quality
 max. number of steps                           :        200
 estimated bulk modulus                         :  500.0       GPa
 estimated <frequency>                          :  1668.       cm-1
 geom line minimiser                            : on
 with line minimiser tolerance                  :     0.4000
 total energy convergence tolerance             : 0.1000E-08   eV/atom
        max ionic |force| tolerance             : 0.1000E-04   eV/A
 max ionic |displacement| tolerance             : 0.1000E-04   A
   max |stress component| tolerance             : 0.1000E-04   GPa
 convergence tolerance window                   :          2   steps
 backup results every                           : 2147483647   steps
 write geom trajectory file                     : on

 *******************************************************************************
  

                           -------------------------------
                                      Unit Cell
                           -------------------------------
        Real Lattice(A)                      Reciprocal Lattice(1/A)
     3.3504602     0.0000000     0.0000000        1.875320076   0.000000000   0.000000000
     0.0000000     1.9465684     0.0000000        0.000000000   3.227826598   0.000000000
     0.0000000     0.0000000     3.0901614        0.000000000   0.000000000   2.033287121

                       Lattice parameters(A)       Cell Angles
                    a =      3.350460          alpha =   90.000000
                    b =      1.946568          beta  =   90.000000
                    c =      3.090161          gamma =   90.000000

                       Current cell volume =            20.153724       A**3
                                   density =             0.400101   AMU/A**3
                                           =             0.664383     g/cm^3

                           -------------------------------
                                     Cell Contents
                           -------------------------------
                         Total number of ions in cell =    8
                      Total number of species in cell =    1
                        Max number of any one species =    8

            xxxxxxxxxxxxxxxxxxxxxxxxxxxxxxxxxxxxxxxxxxxxxxxxxxxxxxxxxxxx
            x  Element    Atom        Fractional coordinates of atoms  x
            x            Number           u          v          w      x
            x----------------------------------------------------------x
            x  H            1         0.351271   0.134094   0.378126   x 
            x  H            2         0.482148   0.364932   0.500774   x 
            x  H            3         0.982148   0.635068   0.500774   x 
            x  H            4         0.851271   0.865906   0.378126   x 
            x  H            5         0.017852   0.364932   0.000774   x 
            x  H            6         0.148729   0.134094   0.878126   x 
            x  H            7         0.517852   0.635068   0.000774   x 
            x  H            8         0.648729   0.865906   0.878126   x 
            xxxxxxxxxxxxxxxxxxxxxxxxxxxxxxxxxxxxxxxxxxxxxxxxxxxxxxxxxxxx


                         No user defined ionic velocities

                           -------------------------------
                                   Details of Species
                           -------------------------------

                               Mass of species in AMU
                                    H    1.0078250

                          Electric Quadrupole Moment (Barn)
                                    H    0.0028600 Isotope  2

                          Files used for pseudopotentials:
                                    H 0|0.7|2|6|8|10L(qc=10)

                           -------------------------------
                              k-Points For BZ Sampling
                           -------------------------------
                       MP grid size for SCF calculation is 15 15 15
                            with an offset of   0.000  0.000  0.000
                       Number of kpoints used =           512

                           -------------------------------
                               Symmetry and Constraints
                           -------------------------------

                      Maximum deviation from symmetry = 0.583231E-14     ANG

                      Number of symmetry operations   =           4
                      Number of ionic constraints     =           3
                      Point group of crystal =     6: C2v, mm2, 2 mm
                      Space group of crystal =    29: Pca2_1, P 2c -2ac

             Set iprint > 1 for details on symmetry rotations/translations

                         Centre of mass is constrained
             Set iprint > 1 for details of linear ionic constraints

                         Number of cell constraints= 3
                         Cell constraints are:  1 2 3 0 0 0

                         External pressure/stress (GPa)
                         90.00000   0.00000   0.00000
                                   90.00000   0.00000
                                             90.00000
  
+---------------- MEMORY AND SCRATCH DISK ESTIMATES PER PROCESS --------------+
|                                                     Memory          Disk    |
| Baseline code, static data and system overhead      476.0 MB         0.0 MB |
| BLAS internal memory storage                          0.0 MB         0.0 MB |
| Model and support data                               26.7 MB         0.0 MB |
| Electronic energy minimisation requirements          17.3 MB         0.0 MB |
| Force calculation requirements                        6.3 MB         0.0 MB |
| Stress calculation requirements                       7.9 MB         0.0 MB |
|                                               ----------------------------- |
| Approx. total storage required per process          520.0 MB         0.0 MB |
|                                                                             |
| Requirements will fluctuate during execution and may exceed these estimates |
+-----------------------------------------------------------------------------+
Calculating finite basis set correction with  3 cut-off energies.
Calculating total energy with cut-off of 1590.000 eV.
------------------------------------------------------------------------ <-- SCF
SCF loop      Energy                           Energy gain       Timer   <-- SCF
                                               per atom          (sec)   <-- SCF
------------------------------------------------------------------------ <-- SCF
Initial   2.00594782E+002                                          4.24  <-- SCF
      1  -1.00640107E+002                    3.76543612E+001       6.12  <-- SCF
      2  -1.22618606E+002                    2.74731237E+000       7.51  <-- SCF
      3  -1.22705209E+002                    1.08254076E-002       8.59  <-- SCF
      4  -1.22049822E+002                   -8.19234495E-002      10.70  <-- SCF
      5  -1.22025465E+002                   -3.04463571E-003      13.22  <-- SCF
      6  -1.22026163E+002                    8.72720172E-005      15.60  <-- SCF
      7  -1.22026234E+002                    8.84023450E-006      17.98  <-- SCF
      8  -1.22026234E+002                    2.65073157E-008      20.13  <-- SCF
      9  -1.22026234E+002                    1.40469215E-009      22.22  <-- SCF
     10  -1.22026234E+002                    3.48752405E-011      23.83  <-- SCF
     11  -1.22026234E+002                    4.16907761E-013      25.39  <-- SCF
     12  -1.22026234E+002                   -3.92739195E-014      27.13  <-- SCF
------------------------------------------------------------------------ <-- SCF
 
Final energy =  -122.0262339261     eV
(energy not corrected for finite basis set)
 
Calculating total energy with cut-off of 1595.000 eV.
------------------------------------------------------------------------ <-- SCF
SCF loop      Energy                           Energy gain       Timer   <-- SCF
                                               per atom          (sec)   <-- SCF
------------------------------------------------------------------------ <-- SCF
Initial  -1.22026234E+002                                         28.26  <-- SCF
      1  -1.22026249E+002                    1.92525224E-006      29.82  <-- SCF
      2  -1.22026249E+002                    1.86400064E-012      31.40  <-- SCF
      3  -1.22026249E+002                    6.50472781E-010      32.96  <-- SCF
      4  -1.22026249E+002                    4.27088769E-011      34.57  <-- SCF
      5  -1.22026249E+002                    3.92739195E-013      36.14  <-- SCF
      6  -1.22026249E+002                    4.53160609E-014      37.71  <-- SCF
------------------------------------------------------------------------ <-- SCF
 
Final energy =  -122.0262493337     eV
(energy not corrected for finite basis set)
 
Calculating total energy with cut-off of 1600.000 eV.
------------------------------------------------------------------------ <-- SCF
SCF loop      Energy                           Energy gain       Timer   <-- SCF
                                               per atom          (sec)   <-- SCF
------------------------------------------------------------------------ <-- SCF
Initial  -1.22026249E+002                                         38.90  <-- SCF
      1  -1.22026264E+002                    1.77805386E-006      40.44  <-- SCF
      2  -1.22026264E+002                    1.87004278E-012      42.04  <-- SCF
      3  -1.22026264E+002                    5.94670583E-010      43.66  <-- SCF
      4  -1.22026264E+002                    3.91077606E-011      45.25  <-- SCF
      5  -1.22026264E+002                    5.64940226E-013      46.94  <-- SCF
      6  -1.22026264E+002                    4.53160609E-014      48.58  <-- SCF
------------------------------------------------------------------------ <-- SCF
 
Final energy =  -122.0262635633     eV
(energy not corrected for finite basis set)
 
 For future reference: finite basis dEtot/dlog(Ecut) =      -0.004717eV
 Total energy corrected for finite basis set =    -122.026264 eV
 
+---------------- MEMORY AND SCRATCH DISK ESTIMATES PER PROCESS --------------+
|                                                     Memory          Disk    |
| Model and support data                               35.2 MB         0.0 MB |
| Electronic energy minimisation requirements          17.3 MB         0.0 MB |
| Geometry minimisation requirements                   21.8 MB         0.0 MB |
|                                               ----------------------------- |
| Approx. total storage required per process           74.3 MB         0.0 MB |
|                                                                             |
| Requirements will fluctuate during execution and may exceed these estimates |
+-----------------------------------------------------------------------------+
 

 ******************************** Symmetrised Forces ********************************
 *                                                                                  *
 *                           Cartesian components (eV/A)                            *
 * -------------------------------------------------------------------------------- *
 *                         x                    y                    z              *
 *                                                                                  *
 * H               1     -0.00000              0.00000              0.00000         *
 * H               2      0.00000              0.00000             -0.00000         *
 * H               3      0.00000             -0.00000             -0.00000         *
 * H               4     -0.00000             -0.00000              0.00000         *
 * H               5     -0.00000              0.00000             -0.00000         *
 * H               6      0.00000              0.00000              0.00000         *
 * H               7     -0.00000             -0.00000             -0.00000         *
 * H               8      0.00000             -0.00000              0.00000         *
 *                                                                                  *
 ************************************************************************************

 *********** Symmetrised Stress Tensor ***********
 *                                               *
 *          Cartesian components (GPa)           *
 * --------------------------------------------- *
 *             x             y             z     *
 *                                               *
 *  x    -79.998832      0.000000      0.000000  *
 *  y      0.000000    -79.998822      0.000000  *
 *  z      0.000000      0.000000    -79.998817  *
 *                                               *
 *  Pressure:   79.9988                          *
 *                                               *
 *************************************************
 LBFGS: finished iteration     0 with enthalpy= -1.10705195E+002 eV
  
 +-----------+-----------------+-----------------+------------+-----+ <-- LBFGS
 | Parameter |      value      |    tolerance    |    units   | OK? | <-- LBFGS
 +-----------+-----------------+-----------------+------------+-----+ <-- LBFGS
 |  dE/ion   |   0.000000E+000 |   1.000000E-009 |         eV | No  | <-- LBFGS
 |  |F|max   |   5.645526E-007 |   1.000000E-005 |       eV/A | Yes | <-- LBFGS
 |  |dR|max  |   0.000000E+000 |   1.000000E-005 |          A | No  | <-- LBFGS
 |   Smax    |   1.000118E+001 |   1.000000E-005 |        GPa | No  | <-- LBFGS
 +-----------+-----------------+-----------------+------------+-----+ <-- LBFGS
  

================================================================================
 Starting LBFGS iteration          1 ...
================================================================================
  
 +------------+-------------+-------------+-----------------+ <-- min LBFGS
 |    Step    |   lambda    |   F.delta'  |    enthalpy     | <-- min LBFGS
 +------------+-------------+-------------+-----------------+ <-- min LBFGS
 |  previous  |    0.000000 |    0.080077 |     -110.705195 | <-- min LBFGS
 +------------+-------------+-------------+-----------------+ <-- min LBFGS
  

--------------------------------------------------------------------------------
 LBFGS: starting iteration         1 with trial guess (lambda=  1.000000)
--------------------------------------------------------------------------------

                           -------------------------------
                                      Unit Cell
                           -------------------------------
        Real Lattice(A)              Reciprocal Lattice(1/A)
     3.3281212     0.0000000     0.0000000        1.887907596   0.000000000   0.000000000
     0.0000000     1.9335898     0.0000000        0.000000000   3.249492432   0.000000000
     0.0000000     0.0000000     3.0695579        0.000000000   0.000000000   2.046934968

                       Lattice parameters(A)       Cell Angles
                    a =      3.328121          alpha =   90.000000
                    b =      1.933590          beta  =   90.000000
                    c =      3.069558          gamma =   90.000000

                Current cell volume =            19.753283 A**3

                           -------------------------------
                                     Cell Contents
                           -------------------------------

            xxxxxxxxxxxxxxxxxxxxxxxxxxxxxxxxxxxxxxxxxxxxxxxxxxxxxxxxxxxxxxxxx
            x  Element         Atom        Fractional coordinates of atoms  x
            x                 Number           u          v          w      x
            x---------------------------------------------------------------x
            x  H                 1         0.351271   0.134094   0.378126   x
            x  H                 2         0.482148   0.364932   0.500774   x
            x  H                 3         0.982148   0.635068   0.500774   x
            x  H                 4         0.851271   0.865906   0.378126   x
            x  H                 5         0.017852   0.364932   0.000774   x
            x  H                 6         0.148729   0.134094   0.878126   x
            x  H                 7         0.517852   0.635068   0.000774   x
            x  H                 8         0.648729   0.865906   0.878126   x
            xxxxxxxxxxxxxxxxxxxxxxxxxxxxxxxxxxxxxxxxxxxxxxxxxxxxxxxxxxxxxxxxx


------------------------------------------------------------------------ <-- SCF
SCF loop      Energy                           Energy gain       Timer   <-- SCF
                                               per atom          (sec)   <-- SCF
------------------------------------------------------------------------ <-- SCF
Initial  -1.21816674E+002                                         50.83  <-- SCF
      1  -1.21819766E+002                    3.86450861E-004      52.44  <-- SCF
      2  -1.21819774E+002                    1.07401464E-006      54.57  <-- SCF
      3  -1.21819628E+002                   -1.83561497E-005      56.64  <-- SCF
      4  -1.21819623E+002                   -5.54764729E-007      58.78  <-- SCF
      5  -1.21819623E+002                    1.79909022E-008      60.91  <-- SCF
      6  -1.21819623E+002                    1.73540876E-009      63.04  <-- SCF
      7  -1.21819623E+002                    5.84577186E-012      64.67  <-- SCF
      8  -1.21819623E+002                    2.71896366E-014      66.34  <-- SCF
------------------------------------------------------------------------ <-- SCF
 
Final energy =  -121.8196232668     eV
(energy not corrected for finite basis set)
 

 ******************************** Symmetrised Forces ********************************
 *                                                                                  *
 *                           Cartesian components (eV/A)                            *
 * -------------------------------------------------------------------------------- *
 *                         x                    y                    z              *
 *                                                                                  *
 * H               1     -0.09075             -0.09413             -0.07807         *
 * H               2      0.09086              0.09210              0.07807         *
 * H               3      0.09086             -0.09210              0.07807         *
 * H               4     -0.09075              0.09413             -0.07807         *
 * H               5     -0.09086              0.09210              0.07807         *
 * H               6      0.09075             -0.09413             -0.07807         *
 * H               7     -0.09086             -0.09210              0.07807         *
 * H               8      0.09075              0.09413             -0.07807         *
 *                                                                                  *
 ************************************************************************************

 *********** Symmetrised Stress Tensor ***********
 *                                               *
 *          Cartesian components (GPa)           *
 * --------------------------------------------- *
 *             x             y             z     *
 *                                               *
 *  x    -85.549081      0.000000      0.000000  *
 *  y      0.000000    -85.590762      0.000000  *
 *  z      0.000000      0.000000    -85.122003  *
 *                                               *
 *  Pressure:   85.4206                          *
 *                                               *
 *************************************************
  
 +------------+-------------+-------------+-----------------+ <-- min LBFGS
 |    Step    |   lambda    |   F.delta'  |    enthalpy     | <-- min LBFGS
 +------------+-------------+-------------+-----------------+ <-- min LBFGS
 |  previous  |    0.000000 |    0.080077 |     -110.705195 | <-- min LBFGS
 | trial step |    1.000000 |    0.036179 |     -110.723496 | <-- min LBFGS
 +------------+-------------+-------------+-----------------+ <-- min LBFGS
  

--------------------------------------------------------------------------------
 LBFGS: improving iteration         1 with line minimization (lambda=  1.824150)
--------------------------------------------------------------------------------

                           -------------------------------
                                      Unit Cell
                           -------------------------------
        Real Lattice(A)              Reciprocal Lattice(1/A)
     3.3097105     0.0000000     0.0000000        1.898409324   0.000000000   0.000000000
     0.0000000     1.9228934     0.0000000        0.000000000   3.267568169   0.000000000
     0.0000000     0.0000000     3.0525775        0.000000000   0.000000000   2.058321323

                       Lattice parameters(A)       Cell Angles
                    a =      3.309711          alpha =   90.000000
                    b =      1.922893          beta  =   90.000000
                    c =      3.052577          gamma =   90.000000

                Current cell volume =            19.427276 A**3

                           -------------------------------
                                     Cell Contents
                           -------------------------------

            xxxxxxxxxxxxxxxxxxxxxxxxxxxxxxxxxxxxxxxxxxxxxxxxxxxxxxxxxxxxxxxxx
            x  Element         Atom        Fractional coordinates of atoms  x
            x                 Number           u          v          w      x
            x---------------------------------------------------------------x
            x  H                 1         0.351271   0.134094   0.378126   x
            x  H                 2         0.482148   0.364932   0.500774   x
            x  H                 3         0.982148   0.635068   0.500774   x
            x  H                 4         0.851271   0.865906   0.378126   x
            x  H                 5         0.017852   0.364932   0.000774   x
            x  H                 6         0.148729   0.134094   0.878126   x
            x  H                 7         0.517852   0.635068   0.000774   x
            x  H                 8         0.648729   0.865906   0.878126   x
            xxxxxxxxxxxxxxxxxxxxxxxxxxxxxxxxxxxxxxxxxxxxxxxxxxxxxxxxxxxxxxxxx


------------------------------------------------------------------------ <-- SCF
SCF loop      Energy                           Energy gain       Timer   <-- SCF
                                               per atom          (sec)   <-- SCF
------------------------------------------------------------------------ <-- SCF
Initial  -1.21639061E+002                                         68.74  <-- SCF
      1  -1.21641181E+002                    2.64990789E-004      70.11  <-- SCF
      2  -1.21641186E+002                    7.30315729E-007      71.95  <-- SCF
      3  -1.21641087E+002                   -1.24734075E-005      73.81  <-- SCF
      4  -1.21641084E+002                   -3.77976249E-007      75.64  <-- SCF
      5  -1.21641084E+002                    1.18792459E-008      77.53  <-- SCF
      6  -1.21641084E+002                    1.13802828E-009      79.40  <-- SCF
      7  -1.21641084E+002                    3.45308384E-012      80.74  <-- SCF
      8  -1.21641084E+002                    3.65549558E-013      82.14  <-- SCF
------------------------------------------------------------------------ <-- SCF
 
Final energy =  -121.6410837247     eV
(energy not corrected for finite basis set)
 

 ******************************** Symmetrised Forces ********************************
 *                                                                                  *
 *                           Cartesian components (eV/A)                            *
 * -------------------------------------------------------------------------------- *
 *                         x                    y                    z              *
 *                                                                                  *
 * H               1     -0.16753             -0.17377             -0.14411         *
 * H               2      0.16773              0.17000              0.14411         *
 * H               3      0.16773             -0.17000              0.14411         *
 * H               4     -0.16753              0.17377             -0.14411         *
 * H               5     -0.16773              0.17000              0.14411         *
 * H               6      0.16753             -0.17377             -0.14411         *
 * H               7     -0.16773             -0.17000              0.14411         *
 * H               8      0.16753              0.17377             -0.14411         *
 *                                                                                  *
 ************************************************************************************

 *********** Symmetrised Stress Tensor ***********
 *                                               *
 *          Cartesian components (GPa)           *
 * --------------------------------------------- *
 *             x             y             z     *
 *                                               *
 *  x    -90.355230      0.000000      0.000000  *
 *  y      0.000000    -90.432663      0.000000  *
 *  z      0.000000      0.000000    -89.555544  *
 *                                               *
 *  Pressure:   90.1145                          *
 *                                               *
 *************************************************
  
 +------------+-------------+-------------+-----------------+ <-- min LBFGS
 |    Step    |   lambda    |   F.delta'  |    enthalpy     | <-- min LBFGS
 +------------+-------------+-------------+-----------------+ <-- min LBFGS
 |  previous  |    0.000000 |    0.080077 |     -110.705195 | <-- min LBFGS
 | trial step |    1.000000 |    0.036179 |     -110.723496 | <-- min LBFGS
 |  line step |    1.824150 |   -0.000894 |     -110.728087 | <-- min LBFGS
 +------------+-------------+-------------+-----------------+ <-- min LBFGS
  
 LBFGS: finished iteration     1 with enthalpy= -1.10728087E+002 eV
  
 +-----------+-----------------+-----------------+------------+-----+ <-- LBFGS
 | Parameter |      value      |    tolerance    |    units   | OK? | <-- LBFGS
 +-----------+-----------------+-----------------+------------+-----+ <-- LBFGS
 |  dE/ion   |   2.861455E-003 |   1.000000E-009 |         eV | No  | <-- LBFGS
 |  |F|max   |   2.811219E-001 |   1.000000E-005 |       eV/A | No  | <-- LBFGS
 |  |dR|max  |   9.867947E-008 |   1.000000E-005 |          A | Yes | <-- LBFGS
 |   Smax    |   4.444563E-001 |   1.000000E-005 |        GPa | No  | <-- LBFGS
 +-----------+-----------------+-----------------+------------+-----+ <-- LBFGS
  

================================================================================
 Starting LBFGS iteration          2 ...
================================================================================
  
 +------------+-------------+-------------+-----------------+ <-- min LBFGS
 |    Step    |   lambda    |   F.delta'  |    enthalpy     | <-- min LBFGS
 +------------+-------------+-------------+-----------------+ <-- min LBFGS
 |  previous  |    0.000000 |    0.053472 |     -110.728087 | <-- min LBFGS
 +------------+-------------+-------------+-----------------+ <-- min LBFGS
  

--------------------------------------------------------------------------------
 LBFGS: starting iteration         2 with trial guess (lambda=  1.000000)
--------------------------------------------------------------------------------

                           -------------------------------
                                      Unit Cell
                           -------------------------------
        Real Lattice(A)              Reciprocal Lattice(1/A)
     3.2590915     0.0000000     0.0000000        1.927894751   0.000000000   0.000000000
     0.0000000     1.8935814     0.0000000        0.000000000   3.318149010   0.000000000
     0.0000000     0.0000000     3.0043011        0.000000000   0.000000000   2.091396664

                       Lattice parameters(A)       Cell Angles
                    a =      3.259091          alpha =   90.000000
                    b =      1.893581          beta  =   90.000000
                    c =      3.004301          gamma =   90.000000

                Current cell volume =            18.540609 A**3

                           -------------------------------
                                     Cell Contents
                           -------------------------------

            xxxxxxxxxxxxxxxxxxxxxxxxxxxxxxxxxxxxxxxxxxxxxxxxxxxxxxxxxxxxxxxxx
            x  Element         Atom        Fractional coordinates of atoms  x
            x                 Number           u          v          w      x
            x---------------------------------------------------------------x
            x  H                 1         0.346533   0.125634   0.373707   x
            x  H                 2         0.486892   0.373207   0.505194   x
            x  H                 3         0.986892   0.626793   0.505194   x
            x  H                 4         0.846533   0.874366   0.373707   x
            x  H                 5         0.013108   0.373207   0.005194   x
            x  H                 6         0.153467   0.125634   0.873707   x
            x  H                 7         0.513108   0.626793   0.005194   x
            x  H                 8         0.653467   0.874366   0.873707   x
            xxxxxxxxxxxxxxxxxxxxxxxxxxxxxxxxxxxxxxxxxxxxxxxxxxxxxxxxxxxxxxxxx


------------------------------------------------------------------------ <-- SCF
SCF loop      Energy                           Energy gain       Timer   <-- SCF
                                               per atom          (sec)   <-- SCF
------------------------------------------------------------------------ <-- SCF
Initial  -1.20513222E+002                                         84.25  <-- SCF
      1  -1.21099193E+002                    7.32464016E-002      85.52  <-- SCF
      2  -1.21101315E+002                    2.65225827E-004      87.23  <-- SCF
      3  -1.21064495E+002                   -4.60248494E-003      88.86  <-- SCF
      4  -1.21062970E+002                   -1.90544772E-004      90.58  <-- SCF
      5  -1.21062980E+002                    1.17088770E-006      92.28  <-- SCF
      6  -1.21062980E+002                    9.05197894E-008      94.01  <-- SCF
      7  -1.21062980E+002                    2.11961343E-010      95.75  <-- SCF
      8  -1.21062980E+002                    1.39935996E-011      96.99  <-- SCF
      9  -1.21062980E+002                    9.09342290E-013      98.27  <-- SCF
     10  -1.21062980E+002                   -2.11474951E-014      99.55  <-- SCF
------------------------------------------------------------------------ <-- SCF
 
Final energy =  -121.0629803800     eV
(energy not corrected for finite basis set)
 

 ******************************** Symmetrised Forces ********************************
 *                                                                                  *
 *                           Cartesian components (eV/A)                            *
 * -------------------------------------------------------------------------------- *
 *                         x                    y                    z              *
 *                                                                                  *
 * H               1      0.56035              0.56780              0.49082         *
 * H               2     -0.55418             -0.58569             -0.49082         *
 * H               3     -0.55418              0.58569             -0.49082         *
 * H               4      0.56035             -0.56780              0.49082         *
 * H               5      0.55418             -0.58569             -0.49082         *
 * H               6     -0.56035              0.56780              0.49082         *
 * H               7      0.55418              0.58569             -0.49082         *
 * H               8     -0.56035             -0.56780              0.49082         *
 *                                                                                  *
 ************************************************************************************

 *********** Symmetrised Stress Tensor ***********
 *                                               *
 *          Cartesian components (GPa)           *
 * --------------------------------------------- *
 *             x             y             z     *
 *                                               *
 *  x    -91.623259      0.000000      0.000000  *
 *  y      0.000000    -91.129928      0.000000  *
 *  z      0.000000      0.000000    -91.886725  *
 *                                               *
 *  Pressure:   91.5466                          *
 *                                               *
 *************************************************
  
 +------------+-------------+-------------+-----------------+ <-- min LBFGS
 |    Step    |   lambda    |   F.delta'  |    enthalpy     | <-- min LBFGS
 +------------+-------------+-------------+-----------------+ <-- min LBFGS
 |  previous  |    0.000000 |    0.053472 |     -110.728087 | <-- min LBFGS
 | trial step |    1.000000 |   -0.186372 |     -110.648056 | <-- min LBFGS
 +------------+-------------+-------------+-----------------+ <-- min LBFGS
  

--------------------------------------------------------------------------------
 LBFGS: improving iteration         2 with line minimization (lambda=  0.222945)
--------------------------------------------------------------------------------

                           -------------------------------
                                      Unit Cell
                           -------------------------------
        Real Lattice(A)              Reciprocal Lattice(1/A)
     3.2984252     0.0000000     0.0000000        1.904904568   0.000000000   0.000000000
     0.0000000     1.9163584     0.0000000        0.000000000   3.278710895   0.000000000
     0.0000000     0.0000000     3.0418145        0.000000000   0.000000000   2.065604372

                       Lattice parameters(A)       Cell Angles
                    a =      3.298425          alpha =   90.000000
                    b =      1.916358          beta  =   90.000000
                    c =      3.041814          gamma =   90.000000

                Current cell volume =            19.227203 A**3

                           -------------------------------
                                     Cell Contents
                           -------------------------------

            xxxxxxxxxxxxxxxxxxxxxxxxxxxxxxxxxxxxxxxxxxxxxxxxxxxxxxxxxxxxxxxxx
            x  Element         Atom        Fractional coordinates of atoms  x
            x                 Number           u          v          w      x
            x---------------------------------------------------------------x
            x  H                 1         0.350215   0.132208   0.377141   x
            x  H                 2         0.483205   0.366777   0.501760   x
            x  H                 3         0.983205   0.633223   0.501760   x
            x  H                 4         0.850215   0.867792   0.377141   x
            x  H                 5         0.016795   0.366777   0.001760   x
            x  H                 6         0.149785   0.132208   0.877141   x
            x  H                 7         0.516795   0.633223   0.001760   x
            x  H                 8         0.649785   0.867792   0.877141   x
            xxxxxxxxxxxxxxxxxxxxxxxxxxxxxxxxxxxxxxxxxxxxxxxxxxxxxxxxxxxxxxxxx


------------------------------------------------------------------------ <-- SCF
SCF loop      Energy                           Energy gain       Timer   <-- SCF
                                               per atom          (sec)   <-- SCF
------------------------------------------------------------------------ <-- SCF
Initial  -1.21219479E+002                                        101.46  <-- SCF
      1  -1.21554951E+002                    4.19339591E-002     102.89  <-- SCF
      2  -1.21556150E+002                    1.49941160E-004     104.70  <-- SCF
      3  -1.21535053E+002                   -2.63718309E-003     106.53  <-- SCF
      4  -1.21534134E+002                   -1.14771479E-004     108.35  <-- SCF
      5  -1.21534142E+002                    9.71893441E-007     110.22  <-- SCF
      6  -1.21534143E+002                    8.49491344E-008     112.09  <-- SCF
      7  -1.21534143E+002                    4.20955995E-010     113.85  <-- SCF
      8  -1.21534143E+002                    1.32383319E-011     115.21  <-- SCF
      9  -1.21534143E+002                    9.36531926E-013     116.57  <-- SCF
     10  -1.21534143E+002                    3.05128144E-013     117.93  <-- SCF
------------------------------------------------------------------------ <-- SCF
 
Final energy =  -121.5341429024     eV
(energy not corrected for finite basis set)
 

 ******************************** Symmetrised Forces ********************************
 *                                                                                  *
 *                           Cartesian components (eV/A)                            *
 * -------------------------------------------------------------------------------- *
 *                         x                    y                    z              *
 *                                                                                  *
 * H               1      0.02048              0.01824              0.01961         *
 * H               2     -0.01941             -0.02444             -0.01961         *
 * H               3     -0.01941              0.02444             -0.01961         *
 * H               4      0.02048             -0.01824              0.01961         *
 * H               5      0.01941             -0.02444             -0.01961         *
 * H               6     -0.02048              0.01824              0.01961         *
 * H               7      0.01941              0.02444             -0.01961         *
 * H               8     -0.02048             -0.01824              0.01961         *
 *                                                                                  *
 ************************************************************************************

 *********** Symmetrised Stress Tensor ***********
 *                                               *
 *          Cartesian components (GPa)           *
 * --------------------------------------------- *
 *             x             y             z     *
 *                                               *
 *  x    -90.360955      0.000000      0.000000  *
 *  y      0.000000    -90.310926      0.000000  *
 *  z      0.000000      0.000000    -89.900957  *
 *                                               *
 *  Pressure:   90.1909                          *
 *                                               *
 *************************************************
  
 +------------+-------------+-------------+-----------------+ <-- min LBFGS
 |    Step    |   lambda    |   F.delta'  |    enthalpy     | <-- min LBFGS
 +------------+-------------+-------------+-----------------+ <-- min LBFGS
 |  previous  |    0.000000 |    0.053472 |     -110.728087 | <-- min LBFGS
 | trial step |    1.000000 |   -0.186372 |     -110.648056 | <-- min LBFGS
 |  line step |    0.222945 |   -0.007715 |     -110.733534 | <-- min LBFGS
 +------------+-------------+-------------+-----------------+ <-- min LBFGS
  
 LBFGS: finished iteration     2 with enthalpy= -1.10733534E+002 eV
  
 +-----------+-----------------+-----------------+------------+-----+ <-- LBFGS
 | Parameter |      value      |    tolerance    |    units   | OK? | <-- LBFGS
 +-----------+-----------------+-----------------+------------+-----+ <-- LBFGS
 |  dE/ion   |   6.809266E-004 |   1.000000E-009 |         eV | No  | <-- LBFGS
 |  |F|max   |   3.686434E-002 |   1.000000E-005 |       eV/A | No  | <-- LBFGS
 |  |dR|max  |   5.846845E-003 |   1.000000E-005 |          A | No  | <-- LBFGS
 |   Smax    |   3.609546E-001 |   1.000000E-005 |        GPa | No  | <-- LBFGS
 +-----------+-----------------+-----------------+------------+-----+ <-- LBFGS
  

================================================================================
 Starting LBFGS iteration          3 ...
================================================================================
  
 +------------+-------------+-------------+-----------------+ <-- min LBFGS
 |    Step    |   lambda    |   F.delta'  |    enthalpy     | <-- min LBFGS
 +------------+-------------+-------------+-----------------+ <-- min LBFGS
 |  previous  |    0.000000 |    0.006790 |     -110.733534 | <-- min LBFGS
 +------------+-------------+-------------+-----------------+ <-- min LBFGS
  

--------------------------------------------------------------------------------
 LBFGS: starting iteration         3 with trial guess (lambda=  1.000000)
--------------------------------------------------------------------------------

                           -------------------------------
                                      Unit Cell
                           -------------------------------
        Real Lattice(A)              Reciprocal Lattice(1/A)
     3.3009131     0.0000000     0.0000000        1.903468872   0.000000000   0.000000000
     0.0000000     1.9177569     0.0000000        0.000000000   3.276320095   0.000000000
     0.0000000     0.0000000     3.0431755        0.000000000   0.000000000   2.064680576

                       Lattice parameters(A)       Cell Angles
                    a =      3.300913          alpha =   90.000000
                    b =      1.917757          beta  =   90.000000
                    c =      3.043175          gamma =   90.000000

                Current cell volume =            19.264362 A**3

                           -------------------------------
                                     Cell Contents
                           -------------------------------

            xxxxxxxxxxxxxxxxxxxxxxxxxxxxxxxxxxxxxxxxxxxxxxxxxxxxxxxxxxxxxxxxx
            x  Element         Atom        Fractional coordinates of atoms  x
            x                 Number           u          v          w      x
            x---------------------------------------------------------------x
            x  H                 1         0.350334   0.132293   0.377306   x
            x  H                 2         0.483113   0.366411   0.501594   x
            x  H                 3         0.983113   0.633589   0.501594   x
            x  H                 4         0.850334   0.867707   0.377306   x
            x  H                 5         0.016887   0.366411   0.001594   x
            x  H                 6         0.149666   0.132293   0.877306   x
            x  H                 7         0.516887   0.633589   0.001594   x
            x  H                 8         0.649666   0.867707   0.877306   x
            xxxxxxxxxxxxxxxxxxxxxxxxxxxxxxxxxxxxxxxxxxxxxxxxxxxxxxxxxxxxxxxxx


------------------------------------------------------------------------ <-- SCF
SCF loop      Energy                           Energy gain       Timer   <-- SCF
                                               per atom          (sec)   <-- SCF
------------------------------------------------------------------------ <-- SCF
Initial  -1.21554641E+002                                        119.94  <-- SCF
      1  -1.21555198E+002                    6.96206980E-005     121.29  <-- SCF
      2  -1.21555200E+002                    2.27371720E-007     123.16  <-- SCF
      3  -1.21555163E+002                   -4.53955895E-006     124.96  <-- SCF
      4  -1.21555162E+002                   -1.86337223E-007     126.80  <-- SCF
      5  -1.21555162E+002                    1.41474325E-009     128.74  <-- SCF
      6  -1.21555162E+002                    1.21501423E-010     130.12  <-- SCF
      7  -1.21555162E+002                    6.52551278E-013     131.56  <-- SCF
      8  -1.21555162E+002                    2.08453880E-013     132.90  <-- SCF
------------------------------------------------------------------------ <-- SCF
 
Final energy =  -121.5551619841     eV
(energy not corrected for finite basis set)
 

 ******************************** Symmetrised Forces ********************************
 *                                                                                  *
 *                           Cartesian components (eV/A)                            *
 * -------------------------------------------------------------------------------- *
 *                         x                    y                    z              *
 *                                                                                  *
 * H               1      0.00039             -0.00094              0.00218         *
 * H               2      0.00016             -0.00269             -0.00218         *
 * H               3      0.00016              0.00269             -0.00218         *
 * H               4      0.00039              0.00094              0.00218         *
 * H               5     -0.00016             -0.00269             -0.00218         *
 * H               6     -0.00039             -0.00094              0.00218         *
 * H               7     -0.00016              0.00269             -0.00218         *
 * H               8     -0.00039              0.00094              0.00218         *
 *                                                                                  *
 ************************************************************************************

 *********** Symmetrised Stress Tensor ***********
 *                                               *
 *          Cartesian components (GPa)           *
 * --------------------------------------------- *
 *             x             y             z     *
 *                                               *
 *  x    -90.118980      0.000000      0.000000  *
 *  y      0.000000    -90.100029      0.000000  *
 *  z      0.000000      0.000000    -89.741423  *
 *                                               *
 *  Pressure:   89.9868                          *
 *                                               *
 *************************************************
  
 +------------+-------------+-------------+-----------------+ <-- min LBFGS
 |    Step    |   lambda    |   F.delta'  |    enthalpy     | <-- min LBFGS
 +------------+-------------+-------------+-----------------+ <-- min LBFGS
 |  previous  |    0.000000 |    0.006790 |     -110.733534 | <-- min LBFGS
 | trial step |    1.000000 |    0.000549 |     -110.733680 | <-- min LBFGS
 +------------+-------------+-------------+-----------------+ <-- min LBFGS
  
 LBFGS: finished iteration     3 with enthalpy= -1.10733680E+002 eV
  
 +-----------+-----------------+-----------------+------------+-----+ <-- LBFGS
 | Parameter |      value      |    tolerance    |    units   | OK? | <-- LBFGS
 +-----------+-----------------+-----------------+------------+-----+ <-- LBFGS
 |  dE/ion   |   1.820067E-005 |   1.000000E-009 |         eV | No  | <-- LBFGS
 |  |F|max   |   3.469818E-003 |   1.000000E-005 |       eV/A | No  | <-- LBFGS
 |  |dR|max  |   9.164735E-004 |   1.000000E-005 |          A | No  | <-- LBFGS
 |   Smax    |   2.585772E-001 |   1.000000E-005 |        GPa | No  | <-- LBFGS
 +-----------+-----------------+-----------------+------------+-----+ <-- LBFGS
  

================================================================================
 Starting LBFGS iteration          4 ...
================================================================================
  
 +------------+-------------+-------------+-----------------+ <-- min LBFGS
 |    Step    |   lambda    |   F.delta'  |    enthalpy     | <-- min LBFGS
 +------------+-------------+-------------+-----------------+ <-- min LBFGS
 |  previous  |    0.000000 |    0.001271 |     -110.733680 | <-- min LBFGS
 +------------+-------------+-------------+-----------------+ <-- min LBFGS
  

--------------------------------------------------------------------------------
 LBFGS: starting iteration         4 with trial guess (lambda=  1.000000)
--------------------------------------------------------------------------------

                           -------------------------------
                                      Unit Cell
                           -------------------------------
        Real Lattice(A)              Reciprocal Lattice(1/A)
     3.3013161     0.0000000     0.0000000        1.903236516   0.000000000   0.000000000
     0.0000000     1.9179637     0.0000000        0.000000000   3.275966756   0.000000000
     0.0000000     0.0000000     3.0426799        0.000000000   0.000000000   2.065016898

                       Lattice parameters(A)       Cell Angles
                    a =      3.301316          alpha =   90.000000
                    b =      1.917964          beta  =   90.000000
                    c =      3.042680          gamma =   90.000000

                Current cell volume =            19.265654 A**3

                           -------------------------------
                                     Cell Contents
                           -------------------------------

            xxxxxxxxxxxxxxxxxxxxxxxxxxxxxxxxxxxxxxxxxxxxxxxxxxxxxxxxxxxxxxxxx
            x  Element         Atom        Fractional coordinates of atoms  x
            x                 Number           u          v          w      x
            x---------------------------------------------------------------x
            x  H                 1         0.350325   0.132199   0.377361   x
            x  H                 2         0.483140   0.366298   0.501539   x
            x  H                 3         0.983140   0.633702   0.501539   x
            x  H                 4         0.850325   0.867801   0.377361   x
            x  H                 5         0.016860   0.366298   0.001539   x
            x  H                 6         0.149675   0.132199   0.877361   x
            x  H                 7         0.516860   0.633702   0.001539   x
            x  H                 8         0.649675   0.867801   0.877361   x
            xxxxxxxxxxxxxxxxxxxxxxxxxxxxxxxxxxxxxxxxxxxxxxxxxxxxxxxxxxxxxxxxx


------------------------------------------------------------------------ <-- SCF
SCF loop      Energy                           Energy gain       Timer   <-- SCF
                                               per atom          (sec)   <-- SCF
------------------------------------------------------------------------ <-- SCF
Initial  -1.21555865E+002                                        134.83  <-- SCF
      1  -1.21555900E+002                    4.34962785E-006     136.19  <-- SCF
      2  -1.21555900E+002                    1.11401167E-008     138.01  <-- SCF
      3  -1.21555899E+002                   -1.39755539E-007     140.11  <-- SCF
      4  -1.21555899E+002                   -4.06276311E-009     141.97  <-- SCF
      5  -1.21555899E+002                    4.74126840E-011     143.40  <-- SCF
      6  -1.21555899E+002                    5.00893527E-012     144.82  <-- SCF
      7  -1.21555899E+002                    1.72201032E-013     146.17  <-- SCF
------------------------------------------------------------------------ <-- SCF
 
Final energy =  -121.5558991864     eV
(energy not corrected for finite basis set)
 

 ******************************** Symmetrised Forces ********************************
 *                                                                                  *
 *                           Cartesian components (eV/A)                            *
 * -------------------------------------------------------------------------------- *
 *                         x                    y                    z              *
 *                                                                                  *
 * H               1     -0.00164             -0.00214              0.00043         *
 * H               2      0.00193              0.00008             -0.00043         *
 * H               3      0.00193             -0.00008             -0.00043         *
 * H               4     -0.00164              0.00214              0.00043         *
 * H               5     -0.00193              0.00008             -0.00043         *
 * H               6      0.00164             -0.00214              0.00043         *
 * H               7     -0.00193             -0.00008             -0.00043         *
 * H               8      0.00164              0.00214              0.00043         *
 *                                                                                  *
 ************************************************************************************

 *********** Symmetrised Stress Tensor ***********
 *                                               *
 *          Cartesian components (GPa)           *
 * --------------------------------------------- *
 *             x             y             z     *
 *                                               *
 *  x    -90.089763      0.000000      0.000000  *
 *  y      0.000000    -90.083403      0.000000  *
 *  z      0.000000      0.000000    -89.803242  *
 *                                               *
 *  Pressure:   89.9921                          *
 *                                               *
 *************************************************
  
 +------------+-------------+-------------+-----------------+ <-- min LBFGS
 |    Step    |   lambda    |   F.delta'  |    enthalpy     | <-- min LBFGS
 +------------+-------------+-------------+-----------------+ <-- min LBFGS
 |  previous  |    0.000000 |    0.001271 |     -110.733680 | <-- min LBFGS
 | trial step |    1.000000 |    0.000833 |     -110.733691 | <-- min LBFGS
 +------------+-------------+-------------+-----------------+ <-- min LBFGS
  

--------------------------------------------------------------------------------
 LBFGS: improving iteration         4 with line minimization (lambda=  2.904503)
--------------------------------------------------------------------------------

                           -------------------------------
                                      Unit Cell
                           -------------------------------
        Real Lattice(A)              Reciprocal Lattice(1/A)
     3.3020836     0.0000000     0.0000000        1.902794151   0.000000000   0.000000000
     0.0000000     1.9183576     0.0000000        0.000000000   3.275294032   0.000000000
     0.0000000     0.0000000     3.0417359        0.000000000   0.000000000   2.065657728

                       Lattice parameters(A)       Cell Angles
                    a =      3.302084          alpha =   90.000000
                    b =      1.918358          beta  =   90.000000
                    c =      3.041736          gamma =   90.000000

                Current cell volume =            19.268111 A**3

                           -------------------------------
                                     Cell Contents
                           -------------------------------

            xxxxxxxxxxxxxxxxxxxxxxxxxxxxxxxxxxxxxxxxxxxxxxxxxxxxxxxxxxxxxxxxx
            x  Element         Atom        Fractional coordinates of atoms  x
            x                 Number           u          v          w      x
            x---------------------------------------------------------------x
            x  H                 1         0.350307   0.132020   0.377467   x
            x  H                 2         0.483193   0.366085   0.501433   x
            x  H                 3         0.983193   0.633915   0.501433   x
            x  H                 4         0.850307   0.867980   0.377467   x
            x  H                 5         0.016807   0.366085   0.001433   x
            x  H                 6         0.149693   0.132020   0.877467   x
            x  H                 7         0.516807   0.633915   0.001433   x
            x  H                 8         0.649693   0.867980   0.877467   x
            xxxxxxxxxxxxxxxxxxxxxxxxxxxxxxxxxxxxxxxxxxxxxxxxxxxxxxxxxxxxxxxxx


------------------------------------------------------------------------ <-- SCF
SCF loop      Energy                           Energy gain       Timer   <-- SCF
                                               per atom          (sec)   <-- SCF
------------------------------------------------------------------------ <-- SCF
Initial  -1.21557167E+002                                        148.08  <-- SCF
      1  -1.21557292E+002                    1.56953379E-005     149.45  <-- SCF
      2  -1.21557292E+002                    4.03664746E-008     151.62  <-- SCF
      3  -1.21557288E+002                   -5.07729159E-007     153.47  <-- SCF
      4  -1.21557288E+002                   -1.47443689E-008     155.31  <-- SCF
      5  -1.21557288E+002                    1.73481966E-010     157.06  <-- SCF
      6  -1.21557288E+002                    1.77487905E-011     158.44  <-- SCF
      7  -1.21557288E+002                    3.62528488E-013     159.89  <-- SCF
      8  -1.21557288E+002                   -6.64635561E-014     161.25  <-- SCF
------------------------------------------------------------------------ <-- SCF
 
Final energy =  -121.5572882752     eV
(energy not corrected for finite basis set)
 

 ******************************** Symmetrised Forces ********************************
 *                                                                                  *
 *                           Cartesian components (eV/A)                            *
 * -------------------------------------------------------------------------------- *
 *                         x                    y                    z              *
 *                                                                                  *
 * H               1     -0.00550             -0.00442             -0.00290         *
 * H               2      0.00529              0.00535              0.00290         *
 * H               3      0.00529             -0.00535              0.00290         *
 * H               4     -0.00550              0.00442             -0.00290         *
 * H               5     -0.00529              0.00535              0.00290         *
 * H               6      0.00550             -0.00442             -0.00290         *
 * H               7     -0.00529             -0.00535              0.00290         *
 * H               8      0.00550              0.00442             -0.00290         *
 *                                                                                  *
 ************************************************************************************

 *********** Symmetrised Stress Tensor ***********
 *                                               *
 *          Cartesian components (GPa)           *
 * --------------------------------------------- *
 *             x             y             z     *
 *                                               *
 *  x    -90.034342      0.000000      0.000000  *
 *  y      0.000000    -90.051699      0.000000  *
 *  z      0.000000      0.000000    -89.920547  *
 *                                               *
 *  Pressure:   90.0022                          *
 *                                               *
 *************************************************
  
 +------------+-------------+-------------+-----------------+ <-- min LBFGS
 |    Step    |   lambda    |   F.delta'  |    enthalpy     | <-- min LBFGS
 +------------+-------------+-------------+-----------------+ <-- min LBFGS
 |  previous  |    0.000000 |    0.001271 |     -110.733680 | <-- min LBFGS
 | trial step |    1.000000 |    0.000833 |     -110.733691 | <-- min LBFGS
 |  line step |    2.904503 |  3.466E-006 |     -110.733700 | <-- min LBFGS
 +------------+-------------+-------------+-----------------+ <-- min LBFGS
  
 LBFGS: finished iteration     4 with enthalpy= -1.10733700E+002 eV
  
 +-----------+-----------------+-----------------+------------+-----+ <-- LBFGS
 | Parameter |      value      |    tolerance    |    units   | OK? | <-- LBFGS
 +-----------+-----------------+-----------------+------------+-----+ <-- LBFGS
 |  dE/ion   |   2.552511E-006 |   1.000000E-009 |         eV | No  | <-- LBFGS
 |  |F|max   |   8.063725E-003 |   1.000000E-005 |       eV/A | No  | <-- LBFGS
 |  |dR|max  |   8.361650E-004 |   1.000000E-005 |          A | No  | <-- LBFGS
 |   Smax    |   7.945349E-002 |   1.000000E-005 |        GPa | No  | <-- LBFGS
 +-----------+-----------------+-----------------+------------+-----+ <-- LBFGS
  

================================================================================
 Starting LBFGS iteration          5 ...
================================================================================
  
 +------------+-------------+-------------+-----------------+ <-- min LBFGS
 |    Step    |   lambda    |   F.delta'  |    enthalpy     | <-- min LBFGS
 +------------+-------------+-------------+-----------------+ <-- min LBFGS
 |  previous  |    0.000000 |    0.001087 |     -110.733700 | <-- min LBFGS
 +------------+-------------+-------------+-----------------+ <-- min LBFGS
  

--------------------------------------------------------------------------------
 LBFGS: starting iteration         5 with trial guess (lambda=  1.000000)
--------------------------------------------------------------------------------

                           -------------------------------
                                      Unit Cell
                           -------------------------------
        Real Lattice(A)              Reciprocal Lattice(1/A)
     3.3021703     0.0000000     0.0000000        1.902744185   0.000000000   0.000000000
     0.0000000     1.9184099     0.0000000        0.000000000   3.275204748   0.000000000
     0.0000000     0.0000000     3.0410805        0.000000000   0.000000000   2.066102900

                       Lattice parameters(A)       Cell Angles
                    a =      3.302170          alpha =   90.000000
                    b =      1.918410          beta  =   90.000000
                    c =      3.041081          gamma =   90.000000

                Current cell volume =            19.264991 A**3

                           -------------------------------
                                     Cell Contents
                           -------------------------------

            xxxxxxxxxxxxxxxxxxxxxxxxxxxxxxxxxxxxxxxxxxxxxxxxxxxxxxxxxxxxxxxxx
            x  Element         Atom        Fractional coordinates of atoms  x
            x                 Number           u          v          w      x
            x---------------------------------------------------------------x
            x  H                 1         0.350253   0.131937   0.377513   x
            x  H                 2         0.483253   0.366087   0.501388   x
            x  H                 3         0.983253   0.633913   0.501388   x
            x  H                 4         0.850253   0.868063   0.377513   x
            x  H                 5         0.016747   0.366087   0.001388   x
            x  H                 6         0.149747   0.131937   0.877513   x
            x  H                 7         0.516747   0.633913   0.001388   x
            x  H                 8         0.649747   0.868063   0.877513   x
            xxxxxxxxxxxxxxxxxxxxxxxxxxxxxxxxxxxxxxxxxxxxxxxxxxxxxxxxxxxxxxxxx


------------------------------------------------------------------------ <-- SCF
SCF loop      Energy                           Energy gain       Timer   <-- SCF
                                               per atom          (sec)   <-- SCF
------------------------------------------------------------------------ <-- SCF
Initial  -1.21555515E+002                                        163.32  <-- SCF
      1  -1.21555543E+002                    3.48245859E-006     164.68  <-- SCF
      2  -1.21555543E+002                    9.10716273E-009     166.54  <-- SCF
      3  -1.21555543E+002                   -3.83936490E-008     168.37  <-- SCF
      4  -1.21555543E+002                    3.99881006E-010     170.27  <-- SCF
      5  -1.21555543E+002                    4.45638143E-011     171.64  <-- SCF
      6  -1.21555543E+002                    4.25064652E-012     173.19  <-- SCF
      7  -1.21555543E+002                    1.38969254E-013     174.63  <-- SCF
------------------------------------------------------------------------ <-- SCF
 
Final energy =  -121.5555427534     eV
(energy not corrected for finite basis set)
 

 ******************************** Symmetrised Forces ********************************
 *                                                                                  *
 *                           Cartesian components (eV/A)                            *
 * -------------------------------------------------------------------------------- *
 *                         x                    y                    z              *
 *                                                                                  *
 * H               1     -0.00244             -0.00108             -0.00044         *
 * H               2      0.00223              0.00251              0.00044         *
 * H               3      0.00223             -0.00251              0.00044         *
 * H               4     -0.00244              0.00108             -0.00044         *
 * H               5     -0.00223              0.00251              0.00044         *
 * H               6      0.00244             -0.00108             -0.00044         *
 * H               7     -0.00223             -0.00251              0.00044         *
 * H               8      0.00244              0.00108             -0.00044         *
 *                                                                                  *
 ************************************************************************************

 *********** Symmetrised Stress Tensor ***********
 *                                               *
 *          Cartesian components (GPa)           *
 * --------------------------------------------- *
 *             x             y             z     *
 *                                               *
 *  x    -90.003016      0.000000      0.000000  *
 *  y      0.000000    -90.022119      0.000000  *
 *  z      0.000000      0.000000    -89.973902  *
 *                                               *
 *  Pressure:   89.9997                          *
 *                                               *
 *************************************************
  
 +------------+-------------+-------------+-----------------+ <-- min LBFGS
 |    Step    |   lambda    |   F.delta'  |    enthalpy     | <-- min LBFGS
 +------------+-------------+-------------+-----------------+ <-- min LBFGS
 |  previous  |    0.000000 |    0.001087 |     -110.733700 | <-- min LBFGS
 | trial step |    1.000000 |    0.000484 |     -110.733708 | <-- min LBFGS
 +------------+-------------+-------------+-----------------+ <-- min LBFGS
  

--------------------------------------------------------------------------------
 LBFGS: improving iteration         5 with line minimization (lambda=  1.802826)
--------------------------------------------------------------------------------

                           -------------------------------
                                      Unit Cell
                           -------------------------------
        Real Lattice(A)              Reciprocal Lattice(1/A)
     3.3022399     0.0000000     0.0000000        1.902704073   0.000000000   0.000000000
     0.0000000     1.9184519     0.0000000        0.000000000   3.275133073   0.000000000
     0.0000000     0.0000000     3.0405544        0.000000000   0.000000000   2.066460435

                       Lattice parameters(A)       Cell Angles
                    a =      3.302240          alpha =   90.000000
                    b =      1.918452          beta  =   90.000000
                    c =      3.040554          gamma =   90.000000

                Current cell volume =            19.262485 A**3

                           -------------------------------
                                     Cell Contents
                           -------------------------------

            xxxxxxxxxxxxxxxxxxxxxxxxxxxxxxxxxxxxxxxxxxxxxxxxxxxxxxxxxxxxxxxxx
            x  Element         Atom        Fractional coordinates of atoms  x
            x                 Number           u          v          w      x
            x---------------------------------------------------------------x
            x  H                 1         0.350209   0.131870   0.377549   x
            x  H                 2         0.483301   0.366088   0.501351   x
            x  H                 3         0.983301   0.633912   0.501351   x
            x  H                 4         0.850209   0.868130   0.377549   x
[...]
            x  H                 7         0.516374   0.633798   0.000940   x
            x  H                 8         0.650048   0.868094   0.877960   x
            xxxxxxxxxxxxxxxxxxxxxxxxxxxxxxxxxxxxxxxxxxxxxxxxxxxxxxxxxxxxxxxxx


------------------------------------------------------------------------ <-- SCF
SCF loop      Energy                           Energy gain       Timer   <-- SCF
                                               per atom          (sec)   <-- SCF
------------------------------------------------------------------------ <-- SCF
Initial  -1.21554362E+002                                        372.49  <-- SCF
      1  -1.21554362E+002                    2.20668069E-010     373.84  <-- SCF
      2  -1.21554362E+002                    2.23559234E-013     375.18  <-- SCF
      3  -1.21554362E+002                    3.80957019E-012     376.56  <-- SCF
      4  -1.21554362E+002                    1.81264244E-013     378.06  <-- SCF
------------------------------------------------------------------------ <-- SCF
 
Final energy =  -121.5543617382     eV
(energy not corrected for finite basis set)
 

 ******************************** Symmetrised Forces ********************************
 *                                                                                  *
 *                           Cartesian components (eV/A)                            *
 * -------------------------------------------------------------------------------- *
 *                         x                    y                    z              *
 *                                                                                  *
 * H               1     -0.00000             -0.00000              0.00000         *
 * H               2      0.00000             -0.00000             -0.00000         *
 * H               3      0.00000              0.00000             -0.00000         *
 * H               4     -0.00000              0.00000              0.00000         *
 * H               5     -0.00000             -0.00000             -0.00000         *
 * H               6      0.00000             -0.00000              0.00000         *
 * H               7     -0.00000              0.00000             -0.00000         *
 * H               8      0.00000              0.00000              0.00000         *
 *                                                                                  *
 ************************************************************************************

 *********** Symmetrised Stress Tensor ***********
 *                                               *
 *          Cartesian components (GPa)           *
 * --------------------------------------------- *
 *             x             y             z     *
 *                                               *
 *  x    -89.999985      0.000000      0.000000  *
 *  y      0.000000    -90.000039      0.000000  *
 *  z      0.000000      0.000000    -89.999998  *
 *                                               *
 *  Pressure:   90.0000                          *
 *                                               *
 *************************************************
  
 +------------+-------------+-------------+-----------------+ <-- min LBFGS
 |    Step    |   lambda    |   F.delta'  |    enthalpy     | <-- min LBFGS
 +------------+-------------+-------------+-----------------+ <-- min LBFGS
 |  previous  |    0.000000 |  7.226E-007 |     -110.733717 | <-- min LBFGS
 | trial step |    1.000000 |  3.621E-007 |     -110.733717 | <-- min LBFGS
 |  line step |    2.004544 | -1.052E-007 |     -110.733717 | <-- min LBFGS
 +------------+-------------+-------------+-----------------+ <-- min LBFGS
  
 LBFGS: finished iteration    16 with enthalpy= -1.10733717E+002 eV
  
 +-----------+-----------------+-----------------+------------+-----+ <-- LBFGS
 | Parameter |      value      |    tolerance    |    units   | OK? | <-- LBFGS
 +-----------+-----------------+-----------------+------------+-----+ <-- LBFGS
 |  dE/ion   |   6.178090E-012 |   1.000000E-009 |         eV | Yes | <-- LBFGS
 |  |F|max   |   8.023762E-007 |   1.000000E-005 |       eV/A | Yes | <-- LBFGS
 |  |dR|max  |   5.159172E-006 |   1.000000E-005 |          A | Yes | <-- LBFGS
 |   Smax    |   3.923679E-005 |   1.000000E-005 |        GPa | No  | <-- LBFGS
 +-----------+-----------------+-----------------+------------+-----+ <-- LBFGS
  

================================================================================
 Starting LBFGS iteration         17 ...
================================================================================
  
 +------------+-------------+-------------+-----------------+ <-- min LBFGS
 |    Step    |   lambda    |   F.delta'  |    enthalpy     | <-- min LBFGS
 +------------+-------------+-------------+-----------------+ <-- min LBFGS
 |  previous  |    0.000000 |  1.860E-007 |     -110.733717 | <-- min LBFGS
 +------------+-------------+-------------+-----------------+ <-- min LBFGS
  

--------------------------------------------------------------------------------
 LBFGS: starting iteration        17 with trial guess (lambda=  1.000000)
--------------------------------------------------------------------------------

                           -------------------------------
                                      Unit Cell
                           -------------------------------
        Real Lattice(A)              Reciprocal Lattice(1/A)
     3.3018990     0.0000000     0.0000000        1.902900534   0.000000000   0.000000000
     0.0000000     1.9185477     0.0000000        0.000000000   3.274969593   0.000000000
     0.0000000     0.0000000     3.0407775        0.000000000   0.000000000   2.066308780

                       Lattice parameters(A)       Cell Angles
                    a =      3.301899          alpha =   90.000000
                    b =      1.918548          beta  =   90.000000
                    c =      3.040778          gamma =   90.000000

                Current cell volume =            19.262871 A**3

                           -------------------------------
                                     Cell Contents
                           -------------------------------

            xxxxxxxxxxxxxxxxxxxxxxxxxxxxxxxxxxxxxxxxxxxxxxxxxxxxxxxxxxxxxxxxx
            x  Element         Atom        Fractional coordinates of atoms  x
            x                 Number           u          v          w      x
            x---------------------------------------------------------------x
            x  H                 1         0.349952   0.131906   0.377960   x
            x  H                 2         0.483626   0.366202   0.500940   x
            x  H                 3         0.983626   0.633798   0.500940   x
            x  H                 4         0.849952   0.868094   0.377960   x
            x  H                 5         0.016374   0.366202   0.000940   x
            x  H                 6         0.150048   0.131906   0.877960   x
            x  H                 7         0.516374   0.633798   0.000940   x
            x  H                 8         0.650048   0.868094   0.877960   x
            xxxxxxxxxxxxxxxxxxxxxxxxxxxxxxxxxxxxxxxxxxxxxxxxxxxxxxxxxxxxxxxxx


------------------------------------------------------------------------ <-- SCF
SCF loop      Energy                           Energy gain       Timer   <-- SCF
                                               per atom          (sec)   <-- SCF
------------------------------------------------------------------------ <-- SCF
Initial  -1.21554362E+002                                        380.01  <-- SCF
      1  -1.21554362E+002                    1.62291920E-011     381.11  <-- SCF
      2  -1.21554362E+002                    2.62833153E-013     382.52  <-- SCF
      3  -1.21554362E+002                   -2.71896366E-014     383.91  <-- SCF
      4  -1.21554362E+002                    1.08758546E-013     385.25  <-- SCF
------------------------------------------------------------------------ <-- SCF
 
Final energy =  -121.5543618563     eV
(energy not corrected for finite basis set)
 

 ******************************** Symmetrised Forces ********************************
 *                                                                                  *
 *                           Cartesian components (eV/A)                            *
 * -------------------------------------------------------------------------------- *
 *                         x                    y                    z              *
 *                                                                                  *
 * H               1      0.00000             -0.00000              0.00000         *
 * H               2      0.00000              0.00000             -0.00000         *
 * H               3      0.00000             -0.00000             -0.00000         *
 * H               4      0.00000              0.00000              0.00000         *
 * H               5     -0.00000              0.00000             -0.00000         *
 * H               6     -0.00000             -0.00000              0.00000         *
 * H               7     -0.00000             -0.00000             -0.00000         *
 * H               8     -0.00000              0.00000              0.00000         *
 *                                                                                  *
 ************************************************************************************

 *********** Symmetrised Stress Tensor ***********
 *                                               *
 *          Cartesian components (GPa)           *
 * --------------------------------------------- *
 *             x             y             z     *
 *                                               *
 *  x    -89.999999      0.000000      0.000000  *
 *  y      0.000000    -90.000004      0.000000  *
 *  z      0.000000      0.000000    -89.999998  *
 *                                               *
 *  Pressure:   90.0000                          *
 *                                               *
 *************************************************
  
 +------------+-------------+-------------+-----------------+ <-- min LBFGS
 |    Step    |   lambda    |   F.delta'  |    enthalpy     | <-- min LBFGS
 +------------+-------------+-------------+-----------------+ <-- min LBFGS
 |  previous  |    0.000000 |  1.860E-007 |     -110.733717 | <-- min LBFGS
 | trial step |    1.000000 |  6.644E-008 |     -110.733717 | <-- min LBFGS
 +------------+-------------+-------------+-----------------+ <-- min LBFGS
  
 LBFGS: finished iteration    17 with enthalpy= -1.10733717E+002 eV
  
 +-----------+-----------------+-----------------+------------+-----+ <-- LBFGS
 | Parameter |      value      |    tolerance    |    units   | OK? | <-- LBFGS
 +-----------+-----------------+-----------------+------------+-----+ <-- LBFGS
 |  dE/ion   |   4.410763E-013 |   1.000000E-009 |         eV | Yes | <-- LBFGS
 |  |F|max   |   4.428699E-007 |   1.000000E-005 |       eV/A | Yes | <-- LBFGS
 |  |dR|max  |   6.523215E-007 |   1.000000E-005 |          A | Yes | <-- LBFGS
 |   Smax    |   3.850498E-006 |   1.000000E-005 |        GPa | Yes | <-- LBFGS
 +-----------+-----------------+-----------------+------------+-----+ <-- LBFGS
  
 LBFGS: Geometry optimization completed successfully.

================================================================================
 LBFGS: Final Configuration:
================================================================================

                           -------------------------------
                                      Unit Cell
                           -------------------------------
        Real Lattice(A)              Reciprocal Lattice(1/A)
     3.3018990     0.0000000     0.0000000        1.902900534   0.000000000   0.000000000
     0.0000000     1.9185477     0.0000000        0.000000000   3.274969593   0.000000000
     0.0000000     0.0000000     3.0407775        0.000000000   0.000000000   2.066308780

                       Lattice parameters(A)       Cell Angles
                    a =      3.301899          alpha =   90.000000
                    b =      1.918548          beta  =   90.000000
                    c =      3.040778          gamma =   90.000000

                Current cell volume =            19.262871 A**3

                           -------------------------------
                                     Cell Contents
                           -------------------------------

            xxxxxxxxxxxxxxxxxxxxxxxxxxxxxxxxxxxxxxxxxxxxxxxxxxxxxxxxxxxxxxxxx
            x  Element         Atom        Fractional coordinates of atoms  x
            x                 Number           u          v          w      x
            x---------------------------------------------------------------x
            x  H                 1         0.349952   0.131906   0.377960   x
            x  H                 2         0.483626   0.366202   0.500940   x
            x  H                 3         0.983626   0.633798   0.500940   x
            x  H                 4         0.849952   0.868094   0.377960   x
            x  H                 5         0.016374   0.366202   0.000940   x
            x  H                 6         0.150048   0.131906   0.877960   x
            x  H                 7         0.516374   0.633798   0.000940   x
            x  H                 8         0.650048   0.868094   0.877960   x
            xxxxxxxxxxxxxxxxxxxxxxxxxxxxxxxxxxxxxxxxxxxxxxxxxxxxxxxxxxxxxxxxx


 LBFGS: Final Enthalpy     = -1.10733717E+002 eV
 LBFGS: Final <frequency>  =    1338.70669 cm-1
 LBFGS: Final bulk modulus =     232.81282 GPa

 ******************************** Symmetrised Forces ********************************
 *                                                                                  *
 *                           Cartesian components (eV/A)                            *
 * -------------------------------------------------------------------------------- *
 *                         x                    y                    z              *
 *                                                                                  *
 * H               1      0.00000             -0.00000              0.00000         *
 * H               2      0.00000              0.00000             -0.00000         *
 * H               3      0.00000             -0.00000             -0.00000         *
 * H               4      0.00000              0.00000              0.00000         *
 * H               5     -0.00000              0.00000             -0.00000         *
 * H               6     -0.00000             -0.00000              0.00000         *
 * H               7     -0.00000             -0.00000             -0.00000         *
 * H               8     -0.00000              0.00000              0.00000         *
 *                                                                                  *
 ************************************************************************************

 *********** Symmetrised Stress Tensor ***********
 *                                               *
 *          Cartesian components (GPa)           *
 * --------------------------------------------- *
 *             x             y             z     *
 *                                               *
 *  x    -89.999999      0.000000      0.000000  *
 *  y      0.000000    -90.000004      0.000000  *
 *  z      0.000000      0.000000    -89.999998  *
 *                                               *
 *  Pressure:   90.0000                          *
 *                                               *
 *************************************************

 Pseudo atomic calculation performed for H 1s1

 Converged in 24 iterations to a total energy of -12.4855 eV

Charge spilling parameter for spin component 1 = 0.56%

            Orbital Populations       
     Ion    Atom   Orbital             Charge
  -------------------------------------------
      H     1      S                    0.997
      H     2      S                    1.001
      H     3      S                    0.999
      H     4      S                    1.002
      H     5      S                    0.998
      H     6      S                    1.002
      H     7      S                    1.003
      H     8      S                    0.998
  -------------------------------------------
                           Total:       8.000
  -------------------------------------------

     Atomic Populations (Mulliken)
     -----------------------------
Species          Ion     s      p      d      f     Total  Charge (e)
=====================================================================
  H               1     1.00   0.00   0.00   0.00   1.00     0.00
  H               2     1.00   0.00   0.00   0.00   1.00    -0.00
  H               3     1.00   0.00   0.00   0.00   1.00    -0.00
  H               4     1.00   0.00   0.00   0.00   1.00     0.00
  H               5     1.00   0.00   0.00   0.00   1.00    -0.00
  H               6     1.00   0.00   0.00   0.00   1.00     0.00
  H               7     1.00   0.00   0.00   0.00   1.00    -0.00
  H               8     1.00   0.00   0.00   0.00   1.00     0.00
=====================================================================

                 Bond                   Population      Length (A)
======================================================================
               H 7 -- H 8                    1.42        0.73261
               H 5 -- H 6                    1.42        0.73261
               H 3 -- H 4                    1.42        0.73261
               H 1 -- H 2                    1.42        0.73261
               H 5 -- H 8                   -0.25        1.58624
               H 2 -- H 4                   -0.25        1.58624
               H 1 -- H 3                   -0.25        1.58624
               H 6 -- H 7                   -0.25        1.58624
               H 4 -- H 5                   -0.29        1.59045
               H 1 -- H 7                   -0.29        1.59045
               H 2 -- H 8                   -0.29        1.59045
               H 3 -- H 6                   -0.29        1.59045
               H 3 -- H 5                   -0.25        1.60837
               H 2 -- H 7                   -0.25        1.60837
               H 1 -- H 5                   -0.14        1.65214
               H 4 -- H 7                   -0.14        1.65214
               H 3 -- H 8                   -0.14        1.65214
               H 2 -- H 6                   -0.14        1.65214
               H 1 -- H 6                   -0.07        1.65749
               H 4 -- H 8                   -0.07        1.65749
               H 1 -- H 4                   -0.39        1.72679
               H 6 -- H 8                   -0.39        1.72679
               H 2 -- H 3                   -0.25        1.72893
               H 5 -- H 7                   -0.25        1.72893
               H 4 -- H 6                   -0.37        1.88404
               H 1 -- H 8                   -0.37        1.88404
======================================================================


Writing analysis data to Pca21.castep_bin

Writing model to Pca21.check
 
 A BibTeX formatted list of references used in this run has been written to 
 Pca21.bib
 
Initialisation time =      3.39 s
Calculation time    =    384.95 s
Finalisation time   =      2.21 s
Total time          =    390.55 s
Peak Memory Use     = 543112 kB
  
Overall parallel efficiency rating: Very good (88%)                             
  
Data was distributed by:-
k-point (32-way); efficiency rating: Very good (88%)                            
  
Parallel notes:
1) Calculation only took 388.4 s, so efficiency estimates may be inaccurate.    
