 +-------------------------------------------------+
 |                                                 |
 |      CCC   AA    SSS  TTTTT  EEEEE  PPPP        |
 |     C     A  A  S       T    E      P   P       |
 |     C     AAAA   SS     T    EEE    PPPP        |
 |     C     A  A     S    T    E      P           |
 |      CCC  A  A  SSS     T    EEEEE  P           |
 |                                                 |
 +-------------------------------------------------+
 |                                                 |
 | Welcome to Academic Release CASTEP version 18.1 |          
 | Ab Initio Total Energy Program                  |
 |                                                 |
 | Authors:                                        |
 | M. Segall, M. Probert, C. Pickard, P. Hasnip,   |
 | S. Clark, K. Refson, J. R. Yates, M. Payne      |
 |                                                 |
 | Contributors:                                   |
 | P. Lindan, P. Haynes, J. White, V. Milman,      |
 | N. Govind, M. Gibson, P. Tulip, V. Cocula,      |
 | B. Montanari, D. Quigley, M. Glover,            |
 | L. Bernasconi, A. Perlov, M. Plummer,           |
 | E. McNellis, J. Meyer, J. Gale, D. Jochym       |
 | J. Aarons, B. Walker, R. Gillen, D. Jones       |
 | T. Green, I. J. Bush, C. J. Armstrong,          |
 | E. J. Higgins, E. L. Brown, M. S. McFly,        |
 | J. Wilkins, B-C. Shih, P. J. P. Byrne           |
 |                                                 |
 | Copyright (c) 2000 - 2017                       |
 |                                                 |
 |     Distributed under the terms of an           |
 |     Agreement between the United Kingdom        |
 |     Car-Parrinello (UKCP) Consortium,           |
 |     Daresbury Laboratory and Accelrys, Inc.     |
 |                                                 |
 | Please cite                                     |
 |                                                 |
 |     "First principles methods using CASTEP"     |
 |                                                 |
 |         Zeitschrift fuer Kristallographie       |
 |           220(5-6) pp. 567-570 (2005)           |
 |                                                 |
 | S. J. Clark, M. D. Segall, C. J. Pickard,       |
 | P. J. Hasnip, M. J. Probert, K. Refson,         |
 | M. C. Payne                                     |
 |                                                 |
 |       in all publications arising from          |
 |              your use of CASTEP                 |
 |                                                 |
 +-------------------------------------------------+


 Compiled for linux_x86_64_gfortran4.8 on Thu, 19 Jul 2018 15:42:32 +0100
 from code version 70483bd0ad64+  Sun, 10 Dec 2017 12:18:29 +0000
 Compiler: GNU Fortran 4.8.5; Optimisation: fast
 MATHLIBS: Intel MKL(2018.0.0) (LAPACK version 3.7.0)
 FFT Lib : mkl
 Fundamental constants values: CODATA 2014

 Run started: Sun, 30 Aug 2020 23:21:12 +0100

 Atomic calculation performed for H: 1s1

 Converged in 41 iterations to an ae energy of -12.488 eV

   ============================================================                
   | Pseudopotential Report - Date of generation 30-08-2020   |                
   ------------------------------------------------------------                
   | Element: H Ionic charge:  1.00 Level of theory: PBE      |                
   | Atomic Solver: Koelling-Harmon                           |                
   |                                                          |                
   |               Reference Electronic Structure             |                
   |         Orbital         Occupation         Energy        |                
   |            1s              1.000           -0.239        |                
   |                                                          |                
   |                 Pseudopotential Definition               |                
   |        Beta     l      e      Rc     scheme   norm       |                
   |         loc     0   -0.239   0.702     qc      1         |                
   |                                                          |                
   | No charge augmentation                                   |                
   | No partial core correction                               |                
   ------------------------------------------------------------                
   | "0|0.7|2|6|8|10L(qc=10)"                                 |                
   ------------------------------------------------------------                
   |      Author: Chris J. Pickard, Cambridge University      |                
   ============================================================                

 Pseudo atomic calculation performed for H 1s1

 Converged in 24 iterations to a total energy of -12.4855 eV

 Calculation parallelised over 32 processes.
 Data is distributed by k-point(32-way)

 ************************************ Title ************************************
 

 ***************************** General Parameters ******************************
  
 output verbosity                               : normal  (1)
 write checkpoint data to                       : Pca21.check
 type of calculation                            : geometry optimization
 stress calculation                             : on
 density difference calculation                 : off
 electron localisation func (ELF) calculation   : off
 Hirshfeld analysis                             : off
 unlimited duration calculation
 timing information                             : on
 memory usage estimate                          : on
 write extra output files                       : on
 write final potential to formatted file        : off
 write final density to formatted file          : off
 write structure in CELL formatted file         : on
 write BibTeX reference list                    : on
 write OTFG pseudopotential files               : on
 write electrostatic potential file             : on
 write bands file                               : on
 checkpoint writing                             : both castep_bin and check files
  
 output         length unit                     : A
 output           mass unit                     : amu
 output           time unit                     : ps
 output         charge unit                     : e
 output           spin unit                     : hbar/2
 output         energy unit                     : eV
 output          force unit                     : eV/A
 output       velocity unit                     : A/ps
 output       pressure unit                     : GPa
 output     inv_length unit                     : 1/A
 output      frequency unit                     : cm-1
 output force constant unit                     : eV/A**2
 output         volume unit                     : A**3
 output   IR intensity unit                     : (D/A)**2/amu
 output         dipole unit                     : D
 output         efield unit                     : eV/A/e
 output        entropy unit                     : J/mol/K
  
 wavefunctions paging                           : none
 random number generator seed                   : randomised (232112678)
 data distribution                              : optimal for this architecture
 optimization strategy                          : maximize speed(+++)

 *********************** Exchange-Correlation Parameters ***********************
  
 using functional                               : Perdew Burke Ernzerhof
 relativistic treatment                         : Koelling-Harmon
 DFT+D: Semi-empirical dispersion correction    : off

 ************************* Pseudopotential Parameters **************************
  
 pseudopotential representation                 : reciprocal space
 <beta|phi> representation                      : reciprocal space
 spin-orbit coupling                            : off

 **************************** Basis Set Parameters *****************************
  
 plane wave basis set cut-off                   :  1600.0000   eV
 size of standard grid                          :     2.0000
 size of   fine   gmax                          :    40.9853   1/A
 finite basis set correction                    : automatic
 number of sample energies                      :          3
           sample  spacing                      :     5.0000   eV

 **************************** Electronic Parameters ****************************
  
 number of  electrons                           :  8.000    
 net charge of system                           :  0.000    
 treating system as non-spin-polarized
 number of bands                                :          4

 ********************* Electronic Minimization Parameters **********************
  
 Method: Treating system as non-metallic,
         and number of  SD  steps               :          1
         and number of  CG  steps               :          4
  
 total energy / atom convergence tol.           : 0.1000E-10   eV
 eigen-energy convergence tolerance             : 0.2000E-10   eV
 max force / atom convergence tol.              : ignored
 convergence tolerance window                   :          3   cycles
 max. number of SCF cycles                      :        200
 periodic dipole correction                     : NONE

 ************************** Density Mixing Parameters **************************
  
 density-mixing scheme                          : Broyden
 max. length of mixing history                  :         20
 charge density mixing amplitude                : 0.8000    
 cut-off energy for mixing                      :  1600.       eV

 *********************** Population Analysis Parameters ************************
  
 Population analysis with cutoff                :  3.000       A
 Population analysis output                     : summary and pdos components

 ********************** Geometry Optimization Parameters ***********************
  
 optimization method                            : LBFGS
 max. no. of LBFGS updates                      : unbounded
 variable cell method                           : fixed basis quality
 max. number of steps                           :        200
 estimated bulk modulus                         :  500.0       GPa
 estimated <frequency>                          :  1668.       cm-1
 geom line minimiser                            : on
 with line minimiser tolerance                  :     0.4000
 total energy convergence tolerance             : 0.1000E-08   eV/atom
        max ionic |force| tolerance             : 0.1000E-04   eV/A
 max ionic |displacement| tolerance             : 0.1000E-04   A
   max |stress component| tolerance             : 0.1000E-04   GPa
 convergence tolerance window                   :          2   steps
 backup results every                           : 2147483647   steps
 write geom trajectory file                     : on

 *******************************************************************************
  

                           -------------------------------
                                      Unit Cell
                           -------------------------------
        Real Lattice(A)                      Reciprocal Lattice(1/A)
     3.3018990     0.0000000     0.0000000        1.902900534   0.000000000   0.000000000
     0.0000000     1.9185477     0.0000000        0.000000000   3.274969593   0.000000000
     0.0000000     0.0000000     3.0407775        0.000000000   0.000000000   2.066308780

                       Lattice parameters(A)       Cell Angles
                    a =      3.301899          alpha =   90.000000
                    b =      1.918548          beta  =   90.000000
                    c =      3.040778          gamma =   90.000000

                       Current cell volume =            19.262871       A**3
                                   density =             0.418604   AMU/A**3
                                           =             0.695109     g/cm^3

                           -------------------------------
                                     Cell Contents
                           -------------------------------
                         Total number of ions in cell =    8
                      Total number of species in cell =    1
                        Max number of any one species =    8

            xxxxxxxxxxxxxxxxxxxxxxxxxxxxxxxxxxxxxxxxxxxxxxxxxxxxxxxxxxxx
            x  Element    Atom        Fractional coordinates of atoms  x
            x            Number           u          v          w      x
            x----------------------------------------------------------x
            x  H            1         0.349952   0.131906   0.377960   x 
            x  H            2         0.483626   0.366202   0.500940   x 
            x  H            3         0.983626   0.633798   0.500940   x 
            x  H            4         0.849952   0.868094   0.377960   x 
            x  H            5         0.016374   0.366202   0.000940   x 
            x  H            6         0.150048   0.131906   0.877960   x 
            x  H            7         0.516374   0.633798   0.000940   x 
            x  H            8         0.650048   0.868094   0.877960   x 
            xxxxxxxxxxxxxxxxxxxxxxxxxxxxxxxxxxxxxxxxxxxxxxxxxxxxxxxxxxxx


                         No user defined ionic velocities

                           -------------------------------
                                   Details of Species
                           -------------------------------

                               Mass of species in AMU
                                    H    1.0078250

                          Electric Quadrupole Moment (Barn)
                                    H    0.0028600 Isotope  2

                          Files used for pseudopotentials:
                                    H 0|0.7|2|6|8|10L(qc=10)

                           -------------------------------
                              k-Points For BZ Sampling
                           -------------------------------
                       MP grid size for SCF calculation is 15 15 15
                            with an offset of   0.000  0.000  0.000
                       Number of kpoints used =           512

                           -------------------------------
                               Symmetry and Constraints
                           -------------------------------

                      Maximum deviation from symmetry = 0.573910E-14     ANG

                      Number of symmetry operations   =           4
                      Number of ionic constraints     =           3
                      Point group of crystal =     6: C2v, mm2, 2 mm
                      Space group of crystal =    29: Pca2_1, P 2c -2ac

             Set iprint > 1 for details on symmetry rotations/translations

                         Centre of mass is constrained
             Set iprint > 1 for details of linear ionic constraints

                         Number of cell constraints= 3
                         Cell constraints are:  1 2 3 0 0 0

                         External pressure/stress (GPa)
                        100.00000   0.00000   0.00000
                                  100.00000   0.00000
                                            100.00000
  
+---------------- MEMORY AND SCRATCH DISK ESTIMATES PER PROCESS --------------+
|                                                     Memory          Disk    |
| Baseline code, static data and system overhead      476.0 MB         0.0 MB |
| BLAS internal memory storage                          0.0 MB         0.0 MB |
| Model and support data                               25.1 MB         0.0 MB |
| Electronic energy minimisation requirements          16.2 MB         0.0 MB |
| Force calculation requirements                        5.6 MB         0.0 MB |
| Stress calculation requirements                       7.0 MB         0.0 MB |
|                                               ----------------------------- |
| Approx. total storage required per process          517.3 MB         0.0 MB |
|                                                                             |
| Requirements will fluctuate during execution and may exceed these estimates |
+-----------------------------------------------------------------------------+
Calculating finite basis set correction with  3 cut-off energies.
Calculating total energy with cut-off of 1590.000 eV.
------------------------------------------------------------------------ <-- SCF
SCF loop      Energy                           Energy gain       Timer   <-- SCF
                                               per atom          (sec)   <-- SCF
------------------------------------------------------------------------ <-- SCF
Initial   1.99497517E+002                                          3.84  <-- SCF
      1  -1.00940777E+002                    3.75547868E+001       5.41  <-- SCF
      2  -1.22107429E+002                    2.64583145E+000       6.53  <-- SCF
      3  -1.21577179E+002                   -6.62812802E-002       8.23  <-- SCF
      4  -1.21553659E+002                   -2.93997424E-003       9.94  <-- SCF
      5  -1.21554275E+002                    7.70831522E-005      11.68  <-- SCF
      6  -1.21554332E+002                    7.08904039E-006      13.40  <-- SCF
      7  -1.21554332E+002                    1.13678481E-008      15.11  <-- SCF
      8  -1.21554332E+002                    1.12902851E-009      16.79  <-- SCF
      9  -1.21554332E+002                    1.49754476E-011      18.16  <-- SCF
     10  -1.21554332E+002                    8.73089441E-013      19.43  <-- SCF
     11  -1.21554332E+002                   -2.11474951E-013      20.71  <-- SCF
------------------------------------------------------------------------ <-- SCF
 
Final energy =  -121.5543322914     eV
(energy not corrected for finite basis set)
 
Calculating total energy with cut-off of 1595.000 eV.
------------------------------------------------------------------------ <-- SCF
SCF loop      Energy                           Energy gain       Timer   <-- SCF
                                               per atom          (sec)   <-- SCF
------------------------------------------------------------------------ <-- SCF
Initial  -1.21554332E+002                                         21.66  <-- SCF
      1  -1.21554348E+002                    1.93389762E-006      22.96  <-- SCF
      2  -1.21554348E+002                    1.83076886E-012      24.30  <-- SCF
      3  -1.21554348E+002                    6.23349608E-010      25.62  <-- SCF
      4  -1.21554348E+002                    3.74914878E-011      26.99  <-- SCF
      5  -1.21554348E+002                    2.41685658E-013      28.37  <-- SCF
      6  -1.21554348E+002                    2.26580305E-013      29.65  <-- SCF
------------------------------------------------------------------------ <-- SCF
 
Final energy =  -121.5543477679     eV
(energy not corrected for finite basis set)
 
Calculating total energy with cut-off of 1600.000 eV.
------------------------------------------------------------------------ <-- SCF
SCF loop      Energy                           Energy gain       Timer   <-- SCF
                                               per atom          (sec)   <-- SCF
------------------------------------------------------------------------ <-- SCF
Initial  -1.21554348E+002                                         30.60  <-- SCF
      1  -1.21554362E+002                    1.76046422E-006      32.04  <-- SCF
      2  -1.21554362E+002                    1.85191636E-012      33.47  <-- SCF
      3  -1.21554362E+002                    5.48248811E-010      34.84  <-- SCF
      4  -1.21554362E+002                    3.29477974E-011      36.26  <-- SCF
      5  -1.21554362E+002                    2.29601375E-013      37.63  <-- SCF
      6  -1.21554362E+002                    1.29906041E-013      39.01  <-- SCF
------------------------------------------------------------------------ <-- SCF
 
Final energy =  -121.5543618563     eV
(energy not corrected for finite basis set)
 
 For future reference: finite basis dEtot/dlog(Ecut) =      -0.004702eV
 Total energy corrected for finite basis set =    -121.554362 eV
 
+---------------- MEMORY AND SCRATCH DISK ESTIMATES PER PROCESS --------------+
|                                                     Memory          Disk    |
| Model and support data                               33.8 MB         0.0 MB |
| Electronic energy minimisation requirements          16.2 MB         0.0 MB |
| Geometry minimisation requirements                   20.5 MB         0.0 MB |
|                                               ----------------------------- |
| Approx. total storage required per process           70.6 MB         0.0 MB |
|                                                                             |
| Requirements will fluctuate during execution and may exceed these estimates |
+-----------------------------------------------------------------------------+
 

 ******************************** Symmetrised Forces ********************************
 *                                                                                  *
 *                           Cartesian components (eV/A)                            *
 * -------------------------------------------------------------------------------- *
 *                         x                    y                    z              *
 *                                                                                  *
 * H               1      0.00000             -0.00000              0.00000         *
 * H               2      0.00000              0.00000             -0.00000         *
 * H               3      0.00000             -0.00000             -0.00000         *
 * H               4      0.00000              0.00000              0.00000         *
 * H               5     -0.00000              0.00000             -0.00000         *
 * H               6     -0.00000             -0.00000              0.00000         *
 * H               7     -0.00000             -0.00000             -0.00000         *
 * H               8     -0.00000              0.00000              0.00000         *
 *                                                                                  *
 ************************************************************************************

 *********** Symmetrised Stress Tensor ***********
 *                                               *
 *          Cartesian components (GPa)           *
 * --------------------------------------------- *
 *             x             y             z     *
 *                                               *
 *  x    -89.999918      0.000000      0.000000  *
 *  y      0.000000    -89.999923      0.000000  *
 *  z      0.000000      0.000000    -89.999919  *
 *                                               *
 *  Pressure:   89.9999                          *
 *                                               *
 *************************************************
 LBFGS: finished iteration     0 with enthalpy= -1.09531423E+002 eV
  
 +-----------+-----------------+-----------------+------------+-----+ <-- LBFGS
 | Parameter |      value      |    tolerance    |    units   | OK? | <-- LBFGS
 +-----------+-----------------+-----------------+------------+-----+ <-- LBFGS
 |  dE/ion   |   0.000000E+000 |   1.000000E-009 |         eV | No  | <-- LBFGS
 |  |F|max   |   3.934367E-007 |   1.000000E-005 |       eV/A | Yes | <-- LBFGS
 |  |dR|max  |   0.000000E+000 |   1.000000E-005 |          A | No  | <-- LBFGS
 |   Smax    |   1.000008E+001 |   1.000000E-005 |        GPa | No  | <-- LBFGS
 +-----------+-----------------+-----------------+------------+-----+ <-- LBFGS
  

================================================================================
 Starting LBFGS iteration          1 ...
================================================================================
  
 +------------+-------------+-------------+-----------------+ <-- min LBFGS
 |    Step    |   lambda    |   F.delta'  |    enthalpy     | <-- min LBFGS
 +------------+-------------+-------------+-----------------+ <-- min LBFGS
 |  previous  |    0.000000 |    0.076529 |     -109.531423 | <-- min LBFGS
 +------------+-------------+-------------+-----------------+ <-- min LBFGS
  

--------------------------------------------------------------------------------
 LBFGS: starting iteration         1 with trial guess (lambda=  1.000000)
--------------------------------------------------------------------------------

                           -------------------------------
                                      Unit Cell
                           -------------------------------
        Real Lattice(A)              Reciprocal Lattice(1/A)
     3.2798861     0.0000000     0.0000000        1.915671784   0.000000000   0.000000000
     0.0000000     1.9057573     0.0000000        0.000000000   3.296949426   0.000000000
     0.0000000     0.0000000     3.0205055        0.000000000   0.000000000   2.080176738

                       Lattice parameters(A)       Cell Angles
                    a =      3.279886          alpha =   90.000000
                    b =      1.905757          beta  =   90.000000
                    c =      3.020506          gamma =   90.000000

                Current cell volume =            18.880174 A**3

                           -------------------------------
                                     Cell Contents
                           -------------------------------

            xxxxxxxxxxxxxxxxxxxxxxxxxxxxxxxxxxxxxxxxxxxxxxxxxxxxxxxxxxxxxxxxx
            x  Element         Atom        Fractional coordinates of atoms  x
            x                 Number           u          v          w      x
            x---------------------------------------------------------------x
            x  H                 1         0.349952   0.131906   0.377960   x
            x  H                 2         0.483626   0.366202   0.500940   x
            x  H                 3         0.983626   0.633798   0.500940   x
            x  H                 4         0.849952   0.868094   0.377960   x
            x  H                 5         0.016374   0.366202   0.000940   x
            x  H                 6         0.150048   0.131906   0.877960   x
            x  H                 7         0.516374   0.633798   0.000940   x
            x  H                 8         0.650048   0.868094   0.877960   x
            xxxxxxxxxxxxxxxxxxxxxxxxxxxxxxxxxxxxxxxxxxxxxxxxxxxxxxxxxxxxxxxxx


------------------------------------------------------------------------ <-- SCF
SCF loop      Energy                           Energy gain       Timer   <-- SCF
                                               per atom          (sec)   <-- SCF
------------------------------------------------------------------------ <-- SCF
Initial  -1.21329461E+002                                         40.98  <-- SCF
      1  -1.21332491E+002                    3.78729067E-004      42.25  <-- SCF
      2  -1.21332500E+002                    1.06832872E-006      43.95  <-- SCF
      3  -1.21332367E+002                   -1.66077712E-005      45.70  <-- SCF
      4  -1.21332363E+002                   -5.07838304E-007      47.45  <-- SCF
      5  -1.21332363E+002                    1.54544897E-008      49.47  <-- SCF
      6  -1.21332363E+002                    1.45796873E-009      51.23  <-- SCF
      7  -1.21332363E+002                    4.26575187E-012      52.54  <-- SCF
      8  -1.21332363E+002                    3.95760266E-013      53.79  <-- SCF
------------------------------------------------------------------------ <-- SCF
 
Final energy =  -121.3323628922     eV
(energy not corrected for finite basis set)
 

 ******************************** Symmetrised Forces ********************************
 *                                                                                  *
 *                           Cartesian components (eV/A)                            *
 * -------------------------------------------------------------------------------- *
 *                         x                    y                    z              *
 *                                                                                  *
 * H               1     -0.09064             -0.09354             -0.07641         *
 * H               2      0.09077              0.09137              0.07641         *
 * H               3      0.09077             -0.09137              0.07641         *
 * H               4     -0.09064              0.09354             -0.07641         *
 * H               5     -0.09077              0.09137              0.07641         *
 * H               6      0.09064             -0.09354             -0.07641         *
 * H               7     -0.09077             -0.09137              0.07641         *
 * H               8      0.09064              0.09354             -0.07641         *
 *                                                                                  *
 ************************************************************************************

 *********** Symmetrised Stress Tensor ***********
 *                                               *
 *          Cartesian components (GPa)           *
 * --------------------------------------------- *
 *             x             y             z     *
 *                                               *
 *  x    -96.108204      0.000000      0.000000  *
 *  y      0.000000    -96.132666      0.000000  *
 *  z      0.000000      0.000000    -95.612388  *
 *                                               *
 *  Pressure:   95.9511                          *
 *                                               *
 *************************************************
  
 +------------+-------------+-------------+-----------------+ <-- min LBFGS
 |    Step    |   lambda    |   F.delta'  |    enthalpy     | <-- min LBFGS
 +------------+-------------+-------------+-----------------+ <-- min LBFGS
 |  previous  |    0.000000 |    0.076529 |     -109.531423 | <-- min LBFGS
 | trial step |    1.000000 |    0.030574 |     -109.548285 | <-- min LBFGS
 +------------+-------------+-------------+-----------------+ <-- min LBFGS
  

--------------------------------------------------------------------------------
 LBFGS: improving iteration         1 with line minimization (lambda=  1.665300)
--------------------------------------------------------------------------------

                           -------------------------------
                                      Unit Cell
                           -------------------------------
        Real Lattice(A)              Reciprocal Lattice(1/A)
     3.2652410     0.0000000     0.0000000        1.924263884   0.000000000   0.000000000
     0.0000000     1.8972478     0.0000000        0.000000000   3.311736773   0.000000000
     0.0000000     0.0000000     3.0070185        0.000000000   0.000000000   2.089506668

                       Lattice parameters(A)       Cell Angles
                    a =      3.265241          alpha =   90.000000
                    b =      1.897248          beta  =   90.000000
                    c =      3.007019          gamma =   90.000000

                Current cell volume =            18.628394 A**3

                           -------------------------------
                                     Cell Contents
                           -------------------------------

            xxxxxxxxxxxxxxxxxxxxxxxxxxxxxxxxxxxxxxxxxxxxxxxxxxxxxxxxxxxxxxxxx
            x  Element         Atom        Fractional coordinates of atoms  x
            x                 Number           u          v          w      x
            x---------------------------------------------------------------x
            x  H                 1         0.349952   0.131906   0.377960   x
            x  H                 2         0.483626   0.366202   0.500940   x
            x  H                 3         0.983626   0.633798   0.500940   x
            x  H                 4         0.849952   0.868094   0.377960   x
            x  H                 5         0.016374   0.366202   0.000940   x
            x  H                 6         0.150048   0.131906   0.877960   x
            x  H                 7         0.516374   0.633798   0.000940   x
            x  H                 8         0.650048   0.868094   0.877960   x
            xxxxxxxxxxxxxxxxxxxxxxxxxxxxxxxxxxxxxxxxxxxxxxxxxxxxxxxxxxxxxxxxx


------------------------------------------------------------------------ <-- SCF
SCF loop      Energy                           Energy gain       Timer   <-- SCF
                                               per atom          (sec)   <-- SCF
------------------------------------------------------------------------ <-- SCF
Initial  -1.21177057E+002                                         55.73  <-- SCF
      1  -1.21178407E+002                    1.68870317E-004      56.97  <-- SCF
      2  -1.21178411E+002                    4.73268871E-007      58.70  <-- SCF
      3  -1.21178353E+002                   -7.34442575E-006      60.37  <-- SCF
      4  -1.21178351E+002                   -2.25841444E-007      62.04  <-- SCF
      5  -1.21178351E+002                    6.68379876E-009      63.69  <-- SCF
      6  -1.21178351E+002                    6.27428053E-010      65.41  <-- SCF
      7  -1.21178351E+002                    1.94254848E-012      66.77  <-- SCF
      8  -1.21178351E+002                   -3.92739195E-014      68.01  <-- SCF
------------------------------------------------------------------------ <-- SCF
 
Final energy =  -121.1783507590     eV
(energy not corrected for finite basis set)
 

 ******************************** Symmetrised Forces ********************************
 *                                                                                  *
 *                           Cartesian components (eV/A)                            *
 * -------------------------------------------------------------------------------- *
 *                         x                    y                    z              *
 *                                                                                  *
 * H               1     -0.15240             -0.15728             -0.12847         *
 * H               2      0.15261              0.15361              0.12847         *
 * H               3      0.15261             -0.15361              0.12847         *
 * H               4     -0.15240              0.15728             -0.12847         *
 * H               5     -0.15261              0.15361              0.12847         *
 * H               6      0.15240             -0.15728             -0.12847         *
 * H               7     -0.15261             -0.15361              0.12847         *
 * H               8      0.15240              0.15728             -0.12847         *
 *                                                                                  *
 ************************************************************************************

 *********** Symmetrised Stress Tensor ***********
 *                                               *
 *          Cartesian components (GPa)           *
 * --------------------------------------------- *
 *             x             y             z     *
 *                                               *
 *  x   -100.358423      0.000000      0.000000  *
 *  y      0.000000   -100.399603      0.000000  *
 *  z      0.000000      0.000000    -99.515339  *
 *                                               *
 *  Pressure:  100.0911                          *
 *                                               *
 *************************************************
  
 +------------+-------------+-------------+-----------------+ <-- min LBFGS
 |    Step    |   lambda    |   F.delta'  |    enthalpy     | <-- min LBFGS
 +------------+-------------+-------------+-----------------+ <-- min LBFGS
 |  previous  |    0.000000 |    0.076529 |     -109.531423 | <-- min LBFGS
 | trial step |    1.000000 |    0.030574 |     -109.548285 | <-- min LBFGS
 |  line step |    1.665300 |   -0.000682 |     -109.551422 | <-- min LBFGS
 +------------+-------------+-------------+-----------------+ <-- min LBFGS
  
 LBFGS: finished iteration     1 with enthalpy= -1.09551422E+002 eV
  
 +-----------+-----------------+-----------------+------------+-----+ <-- LBFGS
 | Parameter |      value      |    tolerance    |    units   | OK? | <-- LBFGS
 +-----------+-----------------+-----------------+------------+-----+ <-- LBFGS
 |  dE/ion   |   2.499854E-003 |   1.000000E-009 |         eV | No  | <-- LBFGS
 |  |F|max   |   2.538983E-001 |   1.000000E-005 |       eV/A | No  | <-- LBFGS
 |  |dR|max  |   6.284853E-008 |   1.000000E-005 |          A | Yes | <-- LBFGS
 |   Smax    |   4.846615E-001 |   1.000000E-005 |        GPa | No  | <-- LBFGS
 +-----------+-----------------+-----------------+------------+-----+ <-- LBFGS
  

================================================================================
 Starting LBFGS iteration          2 ...
================================================================================
  
 +------------+-------------+-------------+-----------------+ <-- min LBFGS
 |    Step    |   lambda    |   F.delta'  |    enthalpy     | <-- min LBFGS
 +------------+-------------+-------------+-----------------+ <-- min LBFGS
 |  previous  |    0.000000 |    0.049088 |     -109.551422 | <-- min LBFGS
 +------------+-------------+-------------+-----------------+ <-- min LBFGS
  

--------------------------------------------------------------------------------
 LBFGS: starting iteration         2 with trial guess (lambda=  1.000000)
--------------------------------------------------------------------------------

                           -------------------------------
                                      Unit Cell
                           -------------------------------
        Real Lattice(A)              Reciprocal Lattice(1/A)
     3.2224725     0.0000000     0.0000000        1.949802617   0.000000000   0.000000000
     0.0000000     1.8724485     0.0000000        0.000000000   3.355598457   0.000000000
     0.0000000     0.0000000     2.9659757        0.000000000   0.000000000   2.118421033

                       Lattice parameters(A)       Cell Angles
                    a =      3.222472          alpha =   90.000000
                    b =      1.872449          beta  =   90.000000
                    c =      2.965976          gamma =   90.000000

                Current cell volume =            17.896442 A**3

                           -------------------------------
                                     Cell Contents
                           -------------------------------

            xxxxxxxxxxxxxxxxxxxxxxxxxxxxxxxxxxxxxxxxxxxxxxxxxxxxxxxxxxxxxxxxx
            x  Element         Atom        Fractional coordinates of atoms  x
            x                 Number           u          v          w      x
            x---------------------------------------------------------------x
            x  H                 1         0.345564   0.124111   0.373944   x
            x  H                 2         0.488021   0.373815   0.504957   x
            x  H                 3         0.988021   0.626185   0.504957   x
            x  H                 4         0.845564   0.875889   0.373944   x
            x  H                 5         0.011979   0.373815   0.004957   x
            x  H                 6         0.154436   0.124111   0.873944   x
            x  H                 7         0.511979   0.626185   0.004957   x
            x  H                 8         0.654436   0.875889   0.873944   x
            xxxxxxxxxxxxxxxxxxxxxxxxxxxxxxxxxxxxxxxxxxxxxxxxxxxxxxxxxxxxxxxxx


------------------------------------------------------------------------ <-- SCF
SCF loop      Energy                           Energy gain       Timer   <-- SCF
                                               per atom          (sec)   <-- SCF
------------------------------------------------------------------------ <-- SCF
Initial  -1.20205924E+002                                         69.92  <-- SCF
      1  -1.20683168E+002                    5.96554748E-002      71.13  <-- SCF
      2  -1.20684906E+002                    2.17242491E-004      72.74  <-- SCF
      3  -1.20655986E+002                   -3.61498884E-003      74.41  <-- SCF
      4  -1.20654771E+002                   -1.51823659E-004      76.12  <-- SCF
      5  -1.20654778E+002                    8.67951865E-007      77.79  <-- SCF
      6  -1.20654779E+002                    6.58619430E-008      79.46  <-- SCF
      7  -1.20654779E+002                    1.51473465E-010      80.89  <-- SCF
      8  -1.20654779E+002                    8.68557835E-012      82.15  <-- SCF
      9  -1.20654779E+002                    6.94846268E-013      83.41  <-- SCF
------------------------------------------------------------------------ <-- SCF
 
Final energy =  -120.6547788312     eV
(energy not corrected for finite basis set)
 

 ******************************** Symmetrised Forces ********************************
 *                                                                                  *
 *                           Cartesian components (eV/A)                            *
 * -------------------------------------------------------------------------------- *
 *                         x                    y                    z              *
 *                                                                                  *
 * H               1      0.52177              0.52436              0.44848         *
 * H               2     -0.51524             -0.54333             -0.44848         *
 * H               3     -0.51524              0.54333             -0.44848         *
 * H               4      0.52177             -0.52436              0.44848         *
 * H               5      0.51524             -0.54333             -0.44848         *
 * H               6     -0.52177              0.52436              0.44848         *
 * H               7      0.51524              0.54333             -0.44848         *
 * H               8     -0.52177             -0.52436              0.44848         *
 *                                                                                  *
 ************************************************************************************

 *********** Symmetrised Stress Tensor ***********
 *                                               *
 *          Cartesian components (GPa)           *
 * --------------------------------------------- *
 *             x             y             z     *
 *                                               *
 *  x   -101.272520      0.000000      0.000000  *
 *  y      0.000000   -100.905153      0.000000  *
 *  z      0.000000      0.000000   -101.777821  *
 *                                               *
 *  Pressure:  101.3185                          *
 *                                               *
 *************************************************
  
 +------------+-------------+-------------+-----------------+ <-- min LBFGS
 |    Step    |   lambda    |   F.delta'  |    enthalpy     | <-- min LBFGS
 +------------+-------------+-------------+-----------------+ <-- min LBFGS
 |  previous  |    0.000000 |    0.049088 |     -109.551422 | <-- min LBFGS
 | trial step |    1.000000 |   -0.173924 |     -109.484698 | <-- min LBFGS
 +------------+-------------+-------------+-----------------+ <-- min LBFGS
  

--------------------------------------------------------------------------------
 LBFGS: improving iteration         2 with line minimization (lambda=  0.220114)
--------------------------------------------------------------------------------

                           -------------------------------
                                      Unit Cell
                           -------------------------------
        Real Lattice(A)              Reciprocal Lattice(1/A)
     3.2558270     0.0000000     0.0000000        1.929827726   0.000000000   0.000000000
     0.0000000     1.8917891     0.0000000        0.000000000   3.321292638   0.000000000
     0.0000000     0.0000000     2.9979844        0.000000000   0.000000000   2.095803171

                       Lattice parameters(A)       Cell Angles
                    a =      3.255827          alpha =   90.000000
                    b =      1.891789          beta  =   90.000000
                    c =      2.997984          gamma =   90.000000

                Current cell volume =            18.465600 A**3

                           -------------------------------
                                     Cell Contents
                           -------------------------------

            xxxxxxxxxxxxxxxxxxxxxxxxxxxxxxxxxxxxxxxxxxxxxxxxxxxxxxxxxxxxxxxxx
            x  Element         Atom        Fractional coordinates of atoms  x
            x                 Number           u          v          w      x
            x---------------------------------------------------------------x
            x  H                 1         0.348987   0.130190   0.377076   x
            x  H                 2         0.484594   0.367878   0.501824   x
            x  H                 3         0.984594   0.632122   0.501824   x
            x  H                 4         0.848987   0.869810   0.377076   x
            x  H                 5         0.015406   0.367878   0.001824   x
            x  H                 6         0.151013   0.130190   0.877076   x
            x  H                 7         0.515406   0.632122   0.001824   x
            x  H                 8         0.651013   0.869810   0.877076   x
            xxxxxxxxxxxxxxxxxxxxxxxxxxxxxxxxxxxxxxxxxxxxxxxxxxxxxxxxxxxxxxxxx


------------------------------------------------------------------------ <-- SCF
SCF loop      Energy                           Energy gain       Timer   <-- SCF
                                               per atom          (sec)   <-- SCF
------------------------------------------------------------------------ <-- SCF
Initial  -1.20820705E+002                                         85.22  <-- SCF
      1  -1.21097737E+002                    3.46289660E-002      86.54  <-- SCF
      2  -1.21098725E+002                    1.23558819E-004      88.21  <-- SCF
      3  -1.21081945E+002                   -2.09752047E-003      89.89  <-- SCF
      4  -1.21081206E+002                   -9.23206044E-005      91.57  <-- SCF
      5  -1.21081212E+002                    7.03834585E-007      93.37  <-- SCF
      6  -1.21081212E+002                    5.97270517E-008      95.07  <-- SCF
      7  -1.21081212E+002                    2.81717867E-010      96.68  <-- SCF
      8  -1.21081212E+002                    8.33513414E-012      97.96  <-- SCF
      9  -1.21081212E+002                    2.50748871E-013      99.22  <-- SCF
------------------------------------------------------------------------ <-- SCF
 
Final energy =  -121.0812123609     eV
(energy not corrected for finite basis set)
 

 ******************************** Symmetrised Forces ********************************
 *                                                                                  *
 *                           Cartesian components (eV/A)                            *
 * -------------------------------------------------------------------------------- *
 *                         x                    y                    z              *
 *                                                                                  *
 * H               1      0.01778              0.01524              0.01693         *
 * H               2     -0.01661             -0.02163             -0.01693         *
 * H               3     -0.01661              0.02163             -0.01693         *
 * H               4      0.01778             -0.01524              0.01693         *
 * H               5      0.01661             -0.02163             -0.01693         *
 * H               6     -0.01778              0.01524              0.01693         *
 * H               7      0.01661              0.02163             -0.01693         *
 * H               8     -0.01778             -0.01524              0.01693         *
 *                                                                                  *
 ************************************************************************************

 *********** Symmetrised Stress Tensor ***********
 *                                               *
 *          Cartesian components (GPa)           *
 * --------------------------------------------- *
 *             x             y             z     *
 *                                               *
 *  x   -100.322213      0.000000      0.000000  *
 *  y      0.000000   -100.275535      0.000000  *
 *  z      0.000000      0.000000    -99.869903  *
 *                                               *
 *  Pressure:  100.1559                          *
 *                                               *
 *************************************************
  
 +------------+-------------+-------------+-----------------+ <-- min LBFGS
 |    Step    |   lambda    |   F.delta'  |    enthalpy     | <-- min LBFGS
 +------------+-------------+-------------+-----------------+ <-- min LBFGS
 |  previous  |    0.000000 |    0.049088 |     -109.551422 | <-- min LBFGS
 | trial step |    1.000000 |   -0.173924 |     -109.484698 | <-- min LBFGS
 |  line step |    0.220114 |   -0.006629 |     -109.555891 | <-- min LBFGS
 +------------+-------------+-------------+-----------------+ <-- min LBFGS
  
 LBFGS: finished iteration     2 with enthalpy= -1.09555891E+002 eV
  
 +-----------+-----------------+-----------------+------------+-----+ <-- LBFGS
 | Parameter |      value      |    tolerance    |    units   | OK? | <-- LBFGS
 +-----------+-----------------+-----------------+------------+-----+ <-- LBFGS
 |  dE/ion   |   5.586417E-004 |   1.000000E-009 |         eV | No  | <-- LBFGS
 |  |F|max   |   3.209866E-002 |   1.000000E-005 |       eV/A | No  | <-- LBFGS
 |  |dR|max  |   5.239222E-003 |   1.000000E-005 |          A | No  | <-- LBFGS
 |   Smax    |   3.222129E-001 |   1.000000E-005 |        GPa | No  | <-- LBFGS
 +-----------+-----------------+-----------------+------------+-----+ <-- LBFGS
  

================================================================================
 Starting LBFGS iteration          3 ...
================================================================================
  
 +------------+-------------+-------------+-----------------+ <-- min LBFGS
 |    Step    |   lambda    |   F.delta'  |    enthalpy     | <-- min LBFGS
 +------------+-------------+-------------+-----------------+ <-- min LBFGS
 |  previous  |    0.000000 |    0.005910 |     -109.555891 | <-- min LBFGS
 +------------+-------------+-------------+-----------------+ <-- min LBFGS
  

--------------------------------------------------------------------------------
 LBFGS: starting iteration         3 with trial guess (lambda=  1.000000)
--------------------------------------------------------------------------------

                           -------------------------------
                                      Unit Cell
                           -------------------------------
        Real Lattice(A)              Reciprocal Lattice(1/A)
     3.2578236     0.0000000     0.0000000        1.928645007   0.000000000   0.000000000
     0.0000000     1.8929022     0.0000000        0.000000000   3.319339661   0.000000000
     0.0000000     0.0000000     2.9989052        0.000000000   0.000000000   2.095159704

                       Lattice parameters(A)       Cell Angles
                    a =      3.257824          alpha =   90.000000
                    b =      1.892902          beta  =   90.000000
                    c =      2.998905          gamma =   90.000000

                Current cell volume =            18.493473 A**3

                           -------------------------------
                                     Cell Contents
                           -------------------------------

            xxxxxxxxxxxxxxxxxxxxxxxxxxxxxxxxxxxxxxxxxxxxxxxxxxxxxxxxxxxxxxxxx
            x  Element         Atom        Fractional coordinates of atoms  x
            x                 Number           u          v          w      x
            x---------------------------------------------------------------x
            x  H                 1         0.349089   0.130236   0.377224   x
            x  H                 2         0.484521   0.367537   0.501676   x
            x  H                 3         0.984521   0.632463   0.501676   x
            x  H                 4         0.849089   0.869764   0.377224   x
            x  H                 5         0.015479   0.367537   0.001676   x
            x  H                 6         0.150911   0.130236   0.877224   x
            x  H                 7         0.515479   0.632463   0.001676   x
            x  H                 8         0.650911   0.869764   0.877224   x
            xxxxxxxxxxxxxxxxxxxxxxxxxxxxxxxxxxxxxxxxxxxxxxxxxxxxxxxxxxxxxxxxx


------------------------------------------------------------------------ <-- SCF
SCF loop      Energy                           Energy gain       Timer   <-- SCF
                                               per atom          (sec)   <-- SCF
------------------------------------------------------------------------ <-- SCF
Initial  -1.21098335E+002                                        101.33  <-- SCF
      1  -1.21098742E+002                    5.09023409E-005     102.58  <-- SCF
      2  -1.21098743E+002                    1.65104174E-007     104.27  <-- SCF
      3  -1.21098719E+002                   -3.11278238E-006     106.11  <-- SCF
      4  -1.21098717E+002                   -1.29008805E-007     107.80  <-- SCF
      5  -1.21098717E+002                    8.58990104E-010     109.45  <-- SCF
      6  -1.21098717E+002                    7.20827476E-011     110.71  <-- SCF
      7  -1.21098717E+002                    5.34729519E-013     111.97  <-- SCF
      8  -1.21098717E+002                   -7.25056975E-014     113.19  <-- SCF
------------------------------------------------------------------------ <-- SCF
 
Final energy =  -121.0987174869     eV
(energy not corrected for finite basis set)
 

 ******************************** Symmetrised Forces ********************************
 *                                                                                  *
 *                           Cartesian components (eV/A)                            *
 * -------------------------------------------------------------------------------- *
 *                         x                    y                    z              *
 *                                                                                  *
 * H               1      0.00018             -0.00113              0.00200         *
 * H               2      0.00039             -0.00247             -0.00200         *
 * H               3      0.00039              0.00247             -0.00200         *
 * H               4      0.00018              0.00113              0.00200         *
 * H               5     -0.00039             -0.00247             -0.00200         *
 * H               6     -0.00018             -0.00113              0.00200         *
 * H               7     -0.00039              0.00247             -0.00200         *
 * H               8     -0.00018              0.00113              0.00200         *
 *                                                                                  *
 ************************************************************************************

 *********** Symmetrised Stress Tensor ***********
 *                                               *
 *          Cartesian components (GPa)           *
 * --------------------------------------------- *
 *             x             y             z     *
 *                                               *
 *  x   -100.117700      0.000000      0.000000  *
 *  y      0.000000   -100.100014      0.000000  *
 *  z      0.000000      0.000000    -99.751865  *
 *                                               *
 *  Pressure:   99.9899                          *
 *                                               *
 *************************************************
  
 +------------+-------------+-------------+-----------------+ <-- min LBFGS
 |    Step    |   lambda    |   F.delta'  |    enthalpy     | <-- min LBFGS
 +------------+-------------+-------------+-----------------+ <-- min LBFGS
 |  previous  |    0.000000 |    0.005910 |     -109.555891 | <-- min LBFGS
 | trial step |    1.000000 |    0.000577 |     -109.555999 | <-- min LBFGS
 +------------+-------------+-------------+-----------------+ <-- min LBFGS
  
 LBFGS: finished iteration     3 with enthalpy= -1.09555999E+002 eV
  
 +-----------+-----------------+-----------------+------------+-----+ <-- LBFGS
 | Parameter |      value      |    tolerance    |    units   | OK? | <-- LBFGS
 +-----------+-----------------+-----------------+------------+-----+ <-- LBFGS
 |  dE/ion   |   1.351749E-005 |   1.000000E-009 |         eV | No  | <-- LBFGS
 |  |F|max   |   3.203951E-003 |   1.000000E-005 |       eV/A | No  | <-- LBFGS
 |  |dR|max  |   8.168920E-004 |   1.000000E-005 |          A | No  | <-- LBFGS
 |   Smax    |   2.481346E-001 |   1.000000E-005 |        GPa | No  | <-- LBFGS
 +-----------+-----------------+-----------------+------------+-----+ <-- LBFGS
  

================================================================================
 Starting LBFGS iteration          4 ...
================================================================================
  
 +------------+-------------+-------------+-----------------+ <-- min LBFGS
 |    Step    |   lambda    |   F.delta'  |    enthalpy     | <-- min LBFGS
 +------------+-------------+-------------+-----------------+ <-- min LBFGS
 |  previous  |    0.000000 |    0.001183 |     -109.555999 | <-- min LBFGS
 +------------+-------------+-------------+-----------------+ <-- min LBFGS
  

--------------------------------------------------------------------------------
 LBFGS: starting iteration         4 with trial guess (lambda=  1.000000)
--------------------------------------------------------------------------------

                           -------------------------------
                                      Unit Cell
                           -------------------------------
        Real Lattice(A)              Reciprocal Lattice(1/A)
     3.2582268     0.0000000     0.0000000        1.928406347   0.000000000   0.000000000
     0.0000000     1.8931098     0.0000000        0.000000000   3.318975644   0.000000000
     0.0000000     0.0000000     2.9984191        0.000000000   0.000000000   2.095499338

                       Lattice parameters(A)       Cell Angles
                    a =      3.258227          alpha =   90.000000
                    b =      1.893110          beta  =   90.000000
                    c =      2.998419          gamma =   90.000000

                Current cell volume =            18.494792 A**3

                           -------------------------------
                                     Cell Contents
                           -------------------------------

            xxxxxxxxxxxxxxxxxxxxxxxxxxxxxxxxxxxxxxxxxxxxxxxxxxxxxxxxxxxxxxxxx
            x  Element         Atom        Fractional coordinates of atoms  x
            x                 Number           u          v          w      x
            x---------------------------------------------------------------x
            x  H                 1         0.349079   0.130137   0.377282   x
            x  H                 2         0.484552   0.367420   0.501618   x
            x  H                 3         0.984552   0.632580   0.501618   x
            x  H                 4         0.849079   0.869863   0.377282   x
            x  H                 5         0.015448   0.367420   0.001618   x
            x  H                 6         0.150921   0.130137   0.877282   x
            x  H                 7         0.515448   0.632580   0.001618   x
            x  H                 8         0.650921   0.869863   0.877282   x
            xxxxxxxxxxxxxxxxxxxxxxxxxxxxxxxxxxxxxxxxxxxxxxxxxxxxxxxxxxxxxxxxx


------------------------------------------------------------------------ <-- SCF
SCF loop      Energy                           Energy gain       Timer   <-- SCF
                                               per atom          (sec)   <-- SCF
------------------------------------------------------------------------ <-- SCF
Initial  -1.21099516E+002                                        114.99  <-- SCF
      1  -1.21099553E+002                    4.64646114E-006     116.22  <-- SCF
      2  -1.21099553E+002                    1.17091082E-008     117.90  <-- SCF
      3  -1.21099552E+002                   -1.44077549E-007     119.56  <-- SCF
      4  -1.21099552E+002                   -4.20380179E-009     121.20  <-- SCF
      5  -1.21099552E+002                    4.24339595E-011     122.50  <-- SCF
      6  -1.21099552E+002                    4.36846828E-012     123.79  <-- SCF
      7  -1.21099552E+002                    1.29906041E-013     125.47  <-- SCF
------------------------------------------------------------------------ <-- SCF
 
Final energy =  -121.0995519413     eV
(energy not corrected for finite basis set)
 

 ******************************** Symmetrised Forces ********************************
 *                                                                                  *
 *                           Cartesian components (eV/A)                            *
 * -------------------------------------------------------------------------------- *
 *                         x                    y                    z              *
 *                                                                                  *
 * H               1     -0.00177             -0.00215              0.00036         *
 * H               2      0.00204              0.00027             -0.00036         *
 * H               3      0.00204             -0.00027             -0.00036         *
 * H               4     -0.00177              0.00215              0.00036         *
 * H               5     -0.00204              0.00027             -0.00036         *
 * H               6      0.00177             -0.00215              0.00036         *
 * H               7     -0.00204             -0.00027             -0.00036         *
 * H               8      0.00177              0.00215              0.00036         *
 *                                                                                  *
 ************************************************************************************

 *********** Symmetrised Stress Tensor ***********
 *                                               *
 *          Cartesian components (GPa)           *
 * --------------------------------------------- *
 *             x             y             z     *
 *                                               *
 *  x   -100.081425      0.000000      0.000000  *
 *  y      0.000000   -100.077526      0.000000  *
 *  z      0.000000      0.000000    -99.815618  *
 *                                               *
 *  Pressure:   99.9915                          *
 *                                               *
 *************************************************
  
 +------------+-------------+-------------+-----------------+ <-- min LBFGS
 |    Step    |   lambda    |   F.delta'  |    enthalpy     | <-- min LBFGS
 +------------+-------------+-------------+-----------------+ <-- min LBFGS
 |  previous  |    0.000000 |    0.001183 |     -109.555999 | <-- min LBFGS
 | trial step |    1.000000 |    0.000744 |     -109.556010 | <-- min LBFGS
 +------------+-------------+-------------+-----------------+ <-- min LBFGS
  

--------------------------------------------------------------------------------
 LBFGS: improving iteration         4 with line minimization (lambda=  2.694643)
--------------------------------------------------------------------------------

                           -------------------------------
                                      Unit Cell
                           -------------------------------
        Real Lattice(A)              Reciprocal Lattice(1/A)
     3.2589101     0.0000000     0.0000000        1.928002040   0.000000000   0.000000000
     0.0000000     1.8934616     0.0000000        0.000000000   3.318358948   0.000000000
     0.0000000     0.0000000     2.9975954        0.000000000   0.000000000   2.096075148

                       Lattice parameters(A)       Cell Angles
                    a =      3.258910          alpha =   90.000000
                    b =      1.893462          beta  =   90.000000
                    c =      2.997595          gamma =   90.000000

                Current cell volume =            18.497026 A**3

                           -------------------------------
                                     Cell Contents
                           -------------------------------

            xxxxxxxxxxxxxxxxxxxxxxxxxxxxxxxxxxxxxxxxxxxxxxxxxxxxxxxxxxxxxxxxx
            x  Element         Atom        Fractional coordinates of atoms  x
            x                 Number           u          v          w      x
            x---------------------------------------------------------------x
            x  H                 1         0.349061   0.129970   0.377380   x
            x  H                 2         0.484604   0.367222   0.501520   x
            x  H                 3         0.984604   0.632778   0.501520   x
            x  H                 4         0.849061   0.870030   0.377380   x
            x  H                 5         0.015396   0.367222   0.001520   x
            x  H                 6         0.150939   0.129970   0.877380   x
            x  H                 7         0.515396   0.632778   0.001520   x
            x  H                 8         0.650939   0.870030   0.877380   x
            xxxxxxxxxxxxxxxxxxxxxxxxxxxxxxxxxxxxxxxxxxxxxxxxxxxxxxxxxxxxxxxxx


------------------------------------------------------------------------ <-- SCF
SCF loop      Energy                           Energy gain       Timer   <-- SCF
                                               per atom          (sec)   <-- SCF
------------------------------------------------------------------------ <-- SCF
Initial  -1.21100850E+002                                        127.45  <-- SCF
      1  -1.21100956E+002                    1.32666153E-005     128.78  <-- SCF
      2  -1.21100957E+002                    3.35913187E-008     130.47  <-- SCF
      3  -1.21100953E+002                   -4.14407686E-007     132.21  <-- SCF
      4  -1.21100953E+002                   -1.20805187E-008     133.90  <-- SCF
      5  -1.21100953E+002                    1.21936457E-010     135.36  <-- SCF
      6  -1.21100953E+002                    1.26552653E-011     136.62  <-- SCF
      7  -1.21100953E+002                    1.66158890E-013     137.95  <-- SCF
      8  -1.21100953E+002                    3.02107073E-014     139.27  <-- SCF
------------------------------------------------------------------------ <-- SCF
 
Final energy =  -121.1009532554     eV
(energy not corrected for finite basis set)
 

 ******************************** Symmetrised Forces ********************************
 *                                                                                  *
 *                           Cartesian components (eV/A)                            *
 * -------------------------------------------------------------------------------- *
 *                         x                    y                    z              *
 *                                                                                  *
 * H               1     -0.00507             -0.00387             -0.00241         *
 * H               2      0.00483              0.00490              0.00241         *
 * H               3      0.00483             -0.00490              0.00241         *
 * H               4     -0.00507              0.00387             -0.00241         *
 * H               5     -0.00483              0.00490              0.00241         *
 * H               6      0.00507             -0.00387             -0.00241         *
 * H               7     -0.00483             -0.00490              0.00241         *
 * H               8      0.00507              0.00387             -0.00241         *
 *                                                                                  *
 ************************************************************************************

 *********** Symmetrised Stress Tensor ***********
 *                                               *
 *          Cartesian components (GPa)           *
 * --------------------------------------------- *
 *             x             y             z     *
 *                                               *
 *  x   -100.020118      0.000000      0.000000  *
 *  y      0.000000   -100.039373      0.000000  *
 *  z      0.000000      0.000000    -99.923323  *
 *                                               *
 *  Pressure:   99.9943                          *
 *                                               *
 *************************************************
  
 +------------+-------------+-------------+-----------------+ <-- min LBFGS
 |    Step    |   lambda    |   F.delta'  |    enthalpy     | <-- min LBFGS
 +------------+-------------+-------------+-----------------+ <-- min LBFGS
 |  previous  |    0.000000 |    0.001183 |     -109.555999 | <-- min LBFGS
 | trial step |    1.000000 |    0.000744 |     -109.556010 | <-- min LBFGS
 |  line step |    2.694643 |  2.712E-006 |     -109.556018 | <-- min LBFGS
 +------------+-------------+-------------+-----------------+ <-- min LBFGS
  
 LBFGS: finished iteration     4 with enthalpy= -1.09556018E+002 eV
  
 +-----------+-----------------+-----------------+------------+-----+ <-- LBFGS
 | Parameter |      value      |    tolerance    |    units   | OK? | <-- LBFGS
 +-----------+-----------------+-----------------+------------+-----+ <-- LBFGS
 |  dE/ion   |   2.291412E-006 |   1.000000E-009 |         eV | No  | <-- LBFGS
 |  |F|max   |   7.289439E-003 |   1.000000E-005 |       eV/A | No  | <-- LBFGS
 |  |dR|max  |   8.047247E-004 |   1.000000E-005 |          A | No  | <-- LBFGS
 |   Smax    |   7.667746E-002 |   1.000000E-005 |        GPa | No  | <-- LBFGS
 +-----------+-----------------+-----------------+------------+-----+ <-- LBFGS
  

================================================================================
 Starting LBFGS iteration          5 ...
================================================================================
  
 +------------+-------------+-------------+-----------------+ <-- min LBFGS
 |    Step    |   lambda    |   F.delta'  |    enthalpy     | <-- min LBFGS
 +------------+-------------+-------------+-----------------+ <-- min LBFGS
 |  previous  |    0.000000 |    0.001015 |     -109.556018 | <-- min LBFGS
 +------------+-------------+-------------+-----------------+ <-- min LBFGS
  

--------------------------------------------------------------------------------
 LBFGS: starting iteration         5 with trial guess (lambda=  1.000000)
--------------------------------------------------------------------------------

                           -------------------------------
                                      Unit Cell
                           -------------------------------
        Real Lattice(A)              Reciprocal Lattice(1/A)
     3.2589562     0.0000000     0.0000000        1.927974744   0.000000000   0.000000000
     0.0000000     1.8934961     0.0000000        0.000000000   3.318298598   0.000000000
     0.0000000     0.0000000     2.9970230        0.000000000   0.000000000   2.096475505

                       Lattice parameters(A)       Cell Angles
                    a =      3.258956          alpha =   90.000000
                    b =      1.893496          beta  =   90.000000
                    c =      2.997023          gamma =   90.000000

                Current cell volume =            18.494092 A**3

                           -------------------------------
                                     Cell Contents
                           -------------------------------

            xxxxxxxxxxxxxxxxxxxxxxxxxxxxxxxxxxxxxxxxxxxxxxxxxxxxxxxxxxxxxxxxx
            x  Element         Atom        Fractional coordinates of atoms  x
            x                 Number           u          v          w      x
            x---------------------------------------------------------------x
            x  H                 1         0.349008   0.129898   0.377426   x
            x  H                 2         0.484660   0.367229   0.501475   x
            x  H                 3         0.984660   0.632771   0.501475   x
            x  H                 4         0.849008   0.870102   0.377426   x
            x  H                 5         0.015340   0.367229   0.001475   x
            x  H                 6         0.150992   0.129898   0.877426   x
            x  H                 7         0.515340   0.632771   0.001475   x
            x  H                 8         0.650992   0.870102   0.877426   x
            xxxxxxxxxxxxxxxxxxxxxxxxxxxxxxxxxxxxxxxxxxxxxxxxxxxxxxxxxxxxxxxxx


------------------------------------------------------------------------ <-- SCF
SCF loop      Energy                           Energy gain       Timer   <-- SCF
                                               per atom          (sec)   <-- SCF
------------------------------------------------------------------------ <-- SCF
Initial  -1.21099104E+002                                        141.11  <-- SCF
      1  -1.21099128E+002                    3.01464485E-006     142.39  <-- SCF
      2  -1.21099128E+002                    7.58831337E-009     144.06  <-- SCF
      3  -1.21099128E+002                   -2.31447642E-008     145.74  <-- SCF
      4  -1.21099128E+002                    6.73061327E-010     147.45  <-- SCF
      5  -1.21099128E+002                    3.28601863E-011     148.70  <-- SCF
      6  -1.21099128E+002                    3.24765103E-012     150.05  <-- SCF
      7  -1.21099128E+002                    1.51053536E-013     151.32  <-- SCF
------------------------------------------------------------------------ <-- SCF
 
Final energy =  -121.0991282797     eV
(energy not corrected for finite basis set)
 

 ******************************** Symmetrised Forces ********************************
 *                                                                                  *
 *                           Cartesian components (eV/A)                            *
 * -------------------------------------------------------------------------------- *
 *                         x                    y                    z              *
 *                                                                                  *
 * H               1     -0.00228             -0.00091             -0.00023         *
 * H               2      0.00206              0.00230              0.00023         *
 * H               3      0.00206             -0.00230              0.00023         *
 * H               4     -0.00228              0.00091             -0.00023         *
 * H               5     -0.00206              0.00230              0.00023         *
 * H               6      0.00228             -0.00091             -0.00023         *
 * H               7     -0.00206             -0.00230              0.00023         *
 * H               8      0.00228              0.00091             -0.00023         *
 *                                                                                  *
 ************************************************************************************

 *********** Symmetrised Stress Tensor ***********
 *                                               *
 *          Cartesian components (GPa)           *
 * --------------------------------------------- *
 *             x             y             z     *
 *                                               *
 *  x    -99.996124      0.000000      0.000000  *
 *  y      0.000000   -100.016458      0.000000  *
 *  z      0.000000      0.000000    -99.978799  *
 *                                               *
 *  Pressure:   99.9971                          *
 *                                               *
 *************************************************
  
 +------------+-------------+-------------+-----------------+ <-- min LBFGS
 |    Step    |   lambda    |   F.delta'  |    enthalpy     | <-- min LBFGS
 +------------+-------------+-------------+-----------------+ <-- min LBFGS
 |  previous  |    0.000000 |    0.001015 |     -109.556018 | <-- min LBFGS
 | trial step |    1.000000 |    0.000467 |     -109.556024 | <-- min LBFGS
 +------------+-------------+-------------+-----------------+ <-- min LBFGS
  

--------------------------------------------------------------------------------
 LBFGS: improving iteration         5 with line minimization (lambda=  1.851822)
--------------------------------------------------------------------------------

                           -------------------------------
                                      Unit Cell
                           -------------------------------
        Real Lattice(A)              Reciprocal Lattice(1/A)
     3.2589955     0.0000000     0.0000000        1.927951493   0.000000000   0.000000000
     0.0000000     1.8935254     0.0000000        0.000000000   3.318247192   0.000000000
     0.0000000     0.0000000     2.9965354        0.000000000   0.000000000   2.096816657

                       Lattice parameters(A)       Cell Angles
                    a =      3.258996          alpha =   90.000000
                    b =      1.893525          beta  =   90.000000
                    c =      2.996535          gamma =   90.000000

                Current cell volume =            18.491592 A**3

                           -------------------------------
                                     Cell Contents
                           -------------------------------

            xxxxxxxxxxxxxxxxxxxxxxxxxxxxxxxxxxxxxxxxxxxxxxxxxxxxxxxxxxxxxxxxx
            x  Element         Atom        Fractional coordinates of atoms  x
            x                 Number           u          v          w      x
            x---------------------------------------------------------------x
            x  H                 1         0.348963   0.129838   0.377465   x
            x  H                 2         0.484709   0.367236   0.501436   x
            x  H                 3         0.984709   0.632764   0.501436   x
            x  H                 4         0.848963   0.870162   0.377465   x
            x  H                 5         0.015291   0.367236   0.001436   x
            x  H                 6         0.151037   0.129838   0.877465   x
            x  H                 7         0.515291   0.632764   0.001436   x
            x  H                 8         0.651037   0.870162   0.877465   x
[...]
            x  H                 7         0.514973   0.632666   0.001029   x
            x  H                 8         0.651280   0.870140   0.877872   x
            xxxxxxxxxxxxxxxxxxxxxxxxxxxxxxxxxxxxxxxxxxxxxxxxxxxxxxxxxxxxxxxxx


------------------------------------------------------------------------ <-- SCF
SCF loop      Energy                           Energy gain       Timer   <-- SCF
                                               per atom          (sec)   <-- SCF
------------------------------------------------------------------------ <-- SCF
Initial  -1.21097926E+002                                        309.08  <-- SCF
      1  -1.21097926E+002                    1.51407002E-009     310.33  <-- SCF
      2  -1.21097926E+002                    8.57984087E-013     311.60  <-- SCF
      3  -1.21097926E+002                    2.04345224E-011     312.92  <-- SCF
      4  -1.21097926E+002                    1.63439926E-012     314.16  <-- SCF
      5  -1.21097926E+002                   -7.25056975E-014     315.41  <-- SCF
------------------------------------------------------------------------ <-- SCF
 
Final energy =  -121.0979257639     eV
(energy not corrected for finite basis set)
 

 ******************************** Symmetrised Forces ********************************
 *                                                                                  *
 *                           Cartesian components (eV/A)                            *
 * -------------------------------------------------------------------------------- *
 *                         x                    y                    z              *
 *                                                                                  *
 * H               1      0.00000              0.00000              0.00000         *
 * H               2     -0.00000             -0.00000             -0.00000         *
 * H               3     -0.00000              0.00000             -0.00000         *
 * H               4      0.00000             -0.00000              0.00000         *
 * H               5      0.00000             -0.00000             -0.00000         *
 * H               6     -0.00000              0.00000              0.00000         *
 * H               7      0.00000              0.00000             -0.00000         *
 * H               8     -0.00000             -0.00000              0.00000         *
 *                                                                                  *
 ************************************************************************************

 *********** Symmetrised Stress Tensor ***********
 *                                               *
 *          Cartesian components (GPa)           *
 * --------------------------------------------- *
 *             x             y             z     *
 *                                               *
 *  x    -99.999995      0.000000      0.000000  *
 *  y      0.000000   -100.000010      0.000000  *
 *  z      0.000000      0.000000    -99.999985  *
 *                                               *
 *  Pressure:  100.0000                          *
 *                                               *
 *************************************************
  
 +------------+-------------+-------------+-----------------+ <-- min LBFGS
 |    Step    |   lambda    |   F.delta'  |    enthalpy     | <-- min LBFGS
 +------------+-------------+-------------+-----------------+ <-- min LBFGS
 |  previous  |    0.000000 |  1.204E-006 |     -109.556033 | <-- min LBFGS
 | trial step |    1.000000 | -1.787E-008 |     -109.556033 | <-- min LBFGS
 +------------+-------------+-------------+-----------------+ <-- min LBFGS
  
 LBFGS: finished iteration    14 with enthalpy= -1.09556033E+002 eV
  
 +-----------+-----------------+-----------------+------------+-----+ <-- LBFGS
 | Parameter |      value      |    tolerance    |    units   | OK? | <-- LBFGS
 +-----------+-----------------+-----------------+------------+-----+ <-- LBFGS
 |  dE/ion   |   2.028558E-010 |   1.000000E-009 |         eV | Yes | <-- LBFGS
 |  |F|max   |   1.228117E-006 |   1.000000E-005 |       eV/A | Yes | <-- LBFGS
 |  |dR|max  |   5.270760E-006 |   1.000000E-005 |          A | Yes | <-- LBFGS
 |   Smax    |   1.499488E-005 |   1.000000E-005 |        GPa | No  | <-- LBFGS
 +-----------+-----------------+-----------------+------------+-----+ <-- LBFGS
  

================================================================================
 Starting LBFGS iteration         15 ...
================================================================================
  
 +------------+-------------+-------------+-----------------+ <-- min LBFGS
 |    Step    |   lambda    |   F.delta'  |    enthalpy     | <-- min LBFGS
 +------------+-------------+-------------+-----------------+ <-- min LBFGS
 |  previous  |    0.000000 |  1.028E-007 |     -109.556033 | <-- min LBFGS
 +------------+-------------+-------------+-----------------+ <-- min LBFGS
  

--------------------------------------------------------------------------------
 LBFGS: starting iteration        15 with trial guess (lambda=  1.000000)
--------------------------------------------------------------------------------

                           -------------------------------
                                      Unit Cell
                           -------------------------------
        Real Lattice(A)              Reciprocal Lattice(1/A)
     3.2586531     0.0000000     0.0000000        1.928154080   0.000000000   0.000000000
     0.0000000     1.8936132     0.0000000        0.000000000   3.318093353   0.000000000
     0.0000000     0.0000000     2.9968018        0.000000000   0.000000000   2.096630247

                       Lattice parameters(A)       Cell Angles
                    a =      3.258653          alpha =   90.000000
                    b =      1.893613          beta  =   90.000000
                    c =      2.996802          gamma =   90.000000

                Current cell volume =            18.492151 A**3

                           -------------------------------
                                     Cell Contents
                           -------------------------------

            xxxxxxxxxxxxxxxxxxxxxxxxxxxxxxxxxxxxxxxxxxxxxxxxxxxxxxxxxxxxxxxxx
            x  Element         Atom        Fractional coordinates of atoms  x
            x                 Number           u          v          w      x
            x---------------------------------------------------------------x
            x  H                 1         0.348720   0.129860   0.377872   x
            x  H                 2         0.485027   0.367334   0.501029   x
            x  H                 3         0.985027   0.632666   0.501029   x
            x  H                 4         0.848720   0.870140   0.377872   x
            x  H                 5         0.014973   0.367334   0.001029   x
            x  H                 6         0.151280   0.129860   0.877872   x
            x  H                 7         0.514973   0.632666   0.001029   x
            x  H                 8         0.651280   0.870140   0.877872   x
            xxxxxxxxxxxxxxxxxxxxxxxxxxxxxxxxxxxxxxxxxxxxxxxxxxxxxxxxxxxxxxxxx


------------------------------------------------------------------------ <-- SCF
SCF loop      Energy                           Energy gain       Timer   <-- SCF
                                               per atom          (sec)   <-- SCF
------------------------------------------------------------------------ <-- SCF
Initial  -1.21097926E+002                                        317.20  <-- SCF
      1  -1.21097926E+002                    1.01900716E-011     318.04  <-- SCF
      2  -1.21097926E+002                    2.08453880E-013     319.33  <-- SCF
      3  -1.21097926E+002                    1.45011395E-013     320.57  <-- SCF
      4  -1.21097926E+002                    2.80959578E-013     321.82  <-- SCF
------------------------------------------------------------------------ <-- SCF
 
Final energy =  -121.0979259521     eV
(energy not corrected for finite basis set)
 

 ******************************** Symmetrised Forces ********************************
 *                                                                                  *
 *                           Cartesian components (eV/A)                            *
 * -------------------------------------------------------------------------------- *
 *                         x                    y                    z              *
 *                                                                                  *
 * H               1     -0.00000             -0.00000              0.00000         *
 * H               2      0.00000              0.00000             -0.00000         *
 * H               3      0.00000             -0.00000             -0.00000         *
 * H               4     -0.00000              0.00000              0.00000         *
 * H               5     -0.00000              0.00000             -0.00000         *
 * H               6      0.00000             -0.00000              0.00000         *
 * H               7     -0.00000             -0.00000             -0.00000         *
 * H               8      0.00000              0.00000              0.00000         *
 *                                                                                  *
 ************************************************************************************

 *********** Symmetrised Stress Tensor ***********
 *                                               *
 *          Cartesian components (GPa)           *
 * --------------------------------------------- *
 *             x             y             z     *
 *                                               *
 *  x    -99.999999      0.000000      0.000000  *
 *  y      0.000000    -99.999996      0.000000  *
 *  z      0.000000      0.000000   -100.000004  *
 *                                               *
 *  Pressure:  100.0000                          *
 *                                               *
 *************************************************
  
 +------------+-------------+-------------+-----------------+ <-- min LBFGS
 |    Step    |   lambda    |   F.delta'  |    enthalpy     | <-- min LBFGS
 +------------+-------------+-------------+-----------------+ <-- min LBFGS
 |  previous  |    0.000000 |  1.028E-007 |     -109.556033 | <-- min LBFGS
 | trial step |    1.000000 | -5.391E-009 |     -109.556033 | <-- min LBFGS
 +------------+-------------+-------------+-----------------+ <-- min LBFGS
  
 LBFGS: finished iteration    15 with enthalpy= -1.09556033E+002 eV
  
 +-----------+-----------------+-----------------+------------+-----+ <-- LBFGS
 | Parameter |      value      |    tolerance    |    units   | OK? | <-- LBFGS
 +-----------+-----------------+-----------------+------------+-----+ <-- LBFGS
 |  dE/ion   |   4.682660E-013 |   1.000000E-009 |         eV | Yes | <-- LBFGS
 |  |F|max   |   1.952854E-007 |   1.000000E-005 |       eV/A | Yes | <-- LBFGS
 |  |dR|max  |   5.323452E-007 |   1.000000E-005 |          A | Yes | <-- LBFGS
 |   Smax    |   3.983465E-006 |   1.000000E-005 |        GPa | Yes | <-- LBFGS
 +-----------+-----------------+-----------------+------------+-----+ <-- LBFGS
  
 LBFGS: Geometry optimization completed successfully.

================================================================================
 LBFGS: Final Configuration:
================================================================================

                           -------------------------------
                                      Unit Cell
                           -------------------------------
        Real Lattice(A)              Reciprocal Lattice(1/A)
     3.2586531     0.0000000     0.0000000        1.928154080   0.000000000   0.000000000
     0.0000000     1.8936132     0.0000000        0.000000000   3.318093353   0.000000000
     0.0000000     0.0000000     2.9968018        0.000000000   0.000000000   2.096630247

                       Lattice parameters(A)       Cell Angles
                    a =      3.258653          alpha =   90.000000
                    b =      1.893613          beta  =   90.000000
                    c =      2.996802          gamma =   90.000000

                Current cell volume =            18.492151 A**3

                           -------------------------------
                                     Cell Contents
                           -------------------------------

            xxxxxxxxxxxxxxxxxxxxxxxxxxxxxxxxxxxxxxxxxxxxxxxxxxxxxxxxxxxxxxxxx
            x  Element         Atom        Fractional coordinates of atoms  x
            x                 Number           u          v          w      x
            x---------------------------------------------------------------x
            x  H                 1         0.348720   0.129860   0.377872   x
            x  H                 2         0.485027   0.367334   0.501029   x
            x  H                 3         0.985027   0.632666   0.501029   x
            x  H                 4         0.848720   0.870140   0.377872   x
            x  H                 5         0.014973   0.367334   0.001029   x
            x  H                 6         0.151280   0.129860   0.877872   x
            x  H                 7         0.514973   0.632666   0.001029   x
            x  H                 8         0.651280   0.870140   0.877872   x
            xxxxxxxxxxxxxxxxxxxxxxxxxxxxxxxxxxxxxxxxxxxxxxxxxxxxxxxxxxxxxxxxx


 LBFGS: Final Enthalpy     = -1.09556033E+002 eV
 LBFGS: Final <frequency>  =    1353.20834 cm-1
 LBFGS: Final bulk modulus =     257.54134 GPa

 ******************************** Symmetrised Forces ********************************
 *                                                                                  *
 *                           Cartesian components (eV/A)                            *
 * -------------------------------------------------------------------------------- *
 *                         x                    y                    z              *
 *                                                                                  *
 * H               1     -0.00000             -0.00000              0.00000         *
 * H               2      0.00000              0.00000             -0.00000         *
 * H               3      0.00000             -0.00000             -0.00000         *
 * H               4     -0.00000              0.00000              0.00000         *
 * H               5     -0.00000              0.00000             -0.00000         *
 * H               6      0.00000             -0.00000              0.00000         *
 * H               7     -0.00000             -0.00000             -0.00000         *
 * H               8      0.00000              0.00000              0.00000         *
 *                                                                                  *
 ************************************************************************************

 *********** Symmetrised Stress Tensor ***********
 *                                               *
 *          Cartesian components (GPa)           *
 * --------------------------------------------- *
 *             x             y             z     *
 *                                               *
 *  x    -99.999999      0.000000      0.000000  *
 *  y      0.000000    -99.999996      0.000000  *
 *  z      0.000000      0.000000   -100.000004  *
 *                                               *
 *  Pressure:  100.0000                          *
 *                                               *
 *************************************************

 Pseudo atomic calculation performed for H 1s1

 Converged in 24 iterations to a total energy of -12.4855 eV

Charge spilling parameter for spin component 1 = 0.55%

            Orbital Populations       
     Ion    Atom   Orbital             Charge
  -------------------------------------------
      H     1      S                    0.996
      H     2      S                    1.001
      H     3      S                    0.998
      H     4      S                    1.002
      H     5      S                    0.997
      H     6      S                    1.002
      H     7      S                    1.004
      H     8      S                    0.998
  -------------------------------------------
                           Total:       8.000
  -------------------------------------------

     Atomic Populations (Mulliken)
     -----------------------------
Species          Ion     s      p      d      f     Total  Charge (e)
=====================================================================
  H               1     1.00   0.00   0.00   0.00   1.00     0.00
  H               2     1.00   0.00   0.00   0.00   1.00    -0.00
  H               3     1.00   0.00   0.00   0.00   1.00    -0.00
  H               4     1.00   0.00   0.00   0.00   1.00     0.00
  H               5     1.00   0.00   0.00   0.00   1.00    -0.00
  H               6     1.00   0.00   0.00   0.00   1.00     0.00
  H               7     1.00   0.00   0.00   0.00   1.00    -0.00
  H               8     1.00   0.00   0.00   0.00   1.00     0.00
=====================================================================

                 Bond                   Population      Length (A)
======================================================================
               H 7 -- H 8                    1.44        0.73193
               H 5 -- H 6                    1.44        0.73193
               H 3 -- H 4                    1.44        0.73193
               H 1 -- H 2                    1.44        0.73193
               H 5 -- H 8                   -0.26        1.55795
               H 2 -- H 4                   -0.26        1.55795
               H 1 -- H 3                   -0.26        1.55795
               H 6 -- H 7                   -0.26        1.55795
               H 4 -- H 5                   -0.30        1.56694
               H 1 -- H 7                   -0.30        1.56694
               H 2 -- H 8                   -0.30        1.56694
               H 3 -- H 6                   -0.30        1.56694
               H 3 -- H 5                   -0.26        1.58340
               H 2 -- H 7                   -0.26        1.58340
               H 1 -- H 6                   -0.06        1.63069
               H 4 -- H 8                   -0.06        1.63069
               H 1 -- H 5                   -0.15        1.63107
               H 4 -- H 7                   -0.15        1.63107
               H 3 -- H 8                   -0.15        1.63107
               H 2 -- H 6                   -0.15        1.63107
               H 1 -- H 4                   -0.41        1.70193
               H 6 -- H 8                   -0.41        1.70193
               H 5 -- H 7                   -0.26        1.70504
               H 2 -- H 3                   -0.26        1.70504
               H 4 -- H 6                   -0.40        1.85988
               H 1 -- H 8                   -0.40        1.85988
======================================================================


Writing analysis data to Pca21.castep_bin

Writing model to Pca21.check
 
 A BibTeX formatted list of references used in this run has been written to 
 Pca21.bib
 
Initialisation time =      3.14 s
Calculation time    =    321.48 s
Finalisation time   =      2.22 s
Total time          =    326.84 s
Peak Memory Use     = 537684 kB
  
Overall parallel efficiency rating: Very good (85%)                             
  
Data was distributed by:-
k-point (32-way); efficiency rating: Very good (86%)                            
  
Parallel notes:
1) Calculation only took 324.6 s, so efficiency estimates may be inaccurate.    
