 +-------------------------------------------------+
 |                                                 |
 |      CCC   AA    SSS  TTTTT  EEEEE  PPPP        |
 |     C     A  A  S       T    E      P   P       |
 |     C     AAAA   SS     T    EEE    PPPP        |
 |     C     A  A     S    T    E      P           |
 |      CCC  A  A  SSS     T    EEEEE  P           |
 |                                                 |
 +-------------------------------------------------+
 |                                                 |
 | Welcome to Academic Release CASTEP version 18.1 |          
 | Ab Initio Total Energy Program                  |
 |                                                 |
 | Authors:                                        |
 | M. Segall, M. Probert, C. Pickard, P. Hasnip,   |
 | S. Clark, K. Refson, J. R. Yates, M. Payne      |
 |                                                 |
 | Contributors:                                   |
 | P. Lindan, P. Haynes, J. White, V. Milman,      |
 | N. Govind, M. Gibson, P. Tulip, V. Cocula,      |
 | B. Montanari, D. Quigley, M. Glover,            |
 | L. Bernasconi, A. Perlov, M. Plummer,           |
 | E. McNellis, J. Meyer, J. Gale, D. Jochym       |
 | J. Aarons, B. Walker, R. Gillen, D. Jones       |
 | T. Green, I. J. Bush, C. J. Armstrong,          |
 | E. J. Higgins, E. L. Brown, M. S. McFly,        |
 | J. Wilkins, B-C. Shih, P. J. P. Byrne           |
 |                                                 |
 | Copyright (c) 2000 - 2017                       |
 |                                                 |
 |     Distributed under the terms of an           |
 |     Agreement between the United Kingdom        |
 |     Car-Parrinello (UKCP) Consortium,           |
 |     Daresbury Laboratory and Accelrys, Inc.     |
 |                                                 |
 | Please cite                                     |
 |                                                 |
 |     "First principles methods using CASTEP"     |
 |                                                 |
 |         Zeitschrift fuer Kristallographie       |
 |           220(5-6) pp. 567-570 (2005)           |
 |                                                 |
 | S. J. Clark, M. D. Segall, C. J. Pickard,       |
 | P. J. Hasnip, M. J. Probert, K. Refson,         |
 | M. C. Payne                                     |
 |                                                 |
 |       in all publications arising from          |
 |              your use of CASTEP                 |
 |                                                 |
 +-------------------------------------------------+


 Compiled for linux_x86_64_gfortran4.8 on Thu, 19 Jul 2018 15:42:32 +0100
 from code version 70483bd0ad64+  Sun, 10 Dec 2017 12:18:29 +0000
 Compiler: GNU Fortran 4.8.5; Optimisation: fast
 MATHLIBS: Intel MKL(2018.0.0) (LAPACK version 3.7.0)
 FFT Lib : mkl
 Fundamental constants values: CODATA 2014

 Run started: Sun, 30 Aug 2020 23:07:33 +0100

 Atomic calculation performed for H: 1s1

 Converged in 41 iterations to an ae energy of -12.488 eV

   ============================================================                
   | Pseudopotential Report - Date of generation 30-08-2020   |                
   ------------------------------------------------------------                
   | Element: H Ionic charge:  1.00 Level of theory: PBE      |                
   | Atomic Solver: Koelling-Harmon                           |                
   |                                                          |                
   |               Reference Electronic Structure             |                
   |         Orbital         Occupation         Energy        |                
   |            1s              1.000           -0.239        |                
   |                                                          |                
   |                 Pseudopotential Definition               |                
   |        Beta     l      e      Rc     scheme   norm       |                
   |         loc     0   -0.239   0.702     qc      1         |                
   |                                                          |                
   | No charge augmentation                                   |                
   | No partial core correction                               |                
   ------------------------------------------------------------                
   | "0|0.7|2|6|8|10L(qc=10)"                                 |                
   ------------------------------------------------------------                
   |      Author: Chris J. Pickard, Cambridge University      |                
   ============================================================                

 Pseudo atomic calculation performed for H 1s1

 Converged in 24 iterations to a total energy of -12.4855 eV

 Calculation parallelised over 32 processes.
 Data is distributed by k-point(32-way)

 ************************************ Title ************************************
 

 ***************************** General Parameters ******************************
  
 output verbosity                               : normal  (1)
 write checkpoint data to                       : Pca21.check
 type of calculation                            : geometry optimization
 stress calculation                             : on
 density difference calculation                 : off
 electron localisation func (ELF) calculation   : off
 Hirshfeld analysis                             : off
 unlimited duration calculation
 timing information                             : on
 memory usage estimate                          : on
 write extra output files                       : on
 write final potential to formatted file        : off
 write final density to formatted file          : off
 write structure in CELL formatted file         : on
 write BibTeX reference list                    : on
 write OTFG pseudopotential files               : on
 write electrostatic potential file             : on
 write bands file                               : on
 checkpoint writing                             : both castep_bin and check files
  
 output         length unit                     : A
 output           mass unit                     : amu
 output           time unit                     : ps
 output         charge unit                     : e
 output           spin unit                     : hbar/2
 output         energy unit                     : eV
 output          force unit                     : eV/A
 output       velocity unit                     : A/ps
 output       pressure unit                     : GPa
 output     inv_length unit                     : 1/A
 output      frequency unit                     : cm-1
 output force constant unit                     : eV/A**2
 output         volume unit                     : A**3
 output   IR intensity unit                     : (D/A)**2/amu
 output         dipole unit                     : D
 output         efield unit                     : eV/A/e
 output        entropy unit                     : J/mol/K
  
 wavefunctions paging                           : none
 random number generator seed                   : randomised (230733968)
 data distribution                              : optimal for this architecture
 optimization strategy                          : maximize speed(+++)

 *********************** Exchange-Correlation Parameters ***********************
  
 using functional                               : Perdew Burke Ernzerhof
 relativistic treatment                         : Koelling-Harmon
 DFT+D: Semi-empirical dispersion correction    : off

 ************************* Pseudopotential Parameters **************************
  
 pseudopotential representation                 : reciprocal space
 <beta|phi> representation                      : reciprocal space
 spin-orbit coupling                            : off

 **************************** Basis Set Parameters *****************************
  
 plane wave basis set cut-off                   :  1600.0000   eV
 size of standard grid                          :     2.0000
 size of   fine   gmax                          :    40.9853   1/A
 finite basis set correction                    : automatic
 number of sample energies                      :          3
           sample  spacing                      :     5.0000   eV

 **************************** Electronic Parameters ****************************
  
 number of  electrons                           :  8.000    
 net charge of system                           :  0.000    
 treating system as non-spin-polarized
 number of bands                                :          4

 ********************* Electronic Minimization Parameters **********************
  
 Method: Treating system as non-metallic,
         and number of  SD  steps               :          1
         and number of  CG  steps               :          4
  
 total energy / atom convergence tol.           : 0.1000E-10   eV
 eigen-energy convergence tolerance             : 0.2000E-10   eV
 max force / atom convergence tol.              : ignored
 convergence tolerance window                   :          3   cycles
 max. number of SCF cycles                      :        200
 periodic dipole correction                     : NONE

 ************************** Density Mixing Parameters **************************
  
 density-mixing scheme                          : Broyden
 max. length of mixing history                  :         20
 charge density mixing amplitude                : 0.8000    
 cut-off energy for mixing                      :  1600.       eV

 *********************** Population Analysis Parameters ************************
  
 Population analysis with cutoff                :  3.000       A
 Population analysis output                     : summary and pdos components

 ********************** Geometry Optimization Parameters ***********************
  
 optimization method                            : LBFGS
 max. no. of LBFGS updates                      : unbounded
 variable cell method                           : fixed basis quality
 max. number of steps                           :        200
 estimated bulk modulus                         :  500.0       GPa
 estimated <frequency>                          :  1668.       cm-1
 geom line minimiser                            : on
 with line minimiser tolerance                  :     0.4000
 total energy convergence tolerance             : 0.1000E-08   eV/atom
        max ionic |force| tolerance             : 0.1000E-04   eV/A
 max ionic |displacement| tolerance             : 0.1000E-04   A
   max |stress component| tolerance             : 0.1000E-04   GPa
 convergence tolerance window                   :          2   steps
 backup results every                           : 2147483647   steps
 write geom trajectory file                     : on

 *******************************************************************************
  

                           -------------------------------
                                      Unit Cell
                           -------------------------------
        Real Lattice(A)                      Reciprocal Lattice(1/A)
     3.4057742     0.0000000     0.0000000        1.844862577   0.000000000   0.000000000
     0.0000000     1.9785163     0.0000000        0.000000000   3.175705657   0.000000000
     0.0000000     0.0000000     3.1463857        0.000000000   0.000000000   1.996953291

                       Lattice parameters(A)       Cell Angles
                    a =      3.405774          alpha =   90.000000
                    b =      1.978516          beta  =   90.000000
                    c =      3.146386          gamma =   90.000000

                       Current cell volume =            21.201541       A**3
                                   density =             0.380327   AMU/A**3
                                           =             0.631548     g/cm^3

                           -------------------------------
                                     Cell Contents
                           -------------------------------
                         Total number of ions in cell =    8
                      Total number of species in cell =    1
                        Max number of any one species =    8

            xxxxxxxxxxxxxxxxxxxxxxxxxxxxxxxxxxxxxxxxxxxxxxxxxxxxxxxxxxxx
            x  Element    Atom        Fractional coordinates of atoms  x
            x            Number           u          v          w      x
            x----------------------------------------------------------x
            x  H            1         0.352689   0.136455   0.378394   x 
            x  H            2         0.480578   0.363490   0.500506   x 
            x  H            3         0.980578   0.636510   0.500506   x 
            x  H            4         0.852689   0.863545   0.378394   x 
            x  H            5         0.019422   0.363490   0.000506   x 
            x  H            6         0.147311   0.136455   0.878394   x 
            x  H            7         0.519422   0.636510   0.000506   x 
            x  H            8         0.647311   0.863545   0.878394   x 
            xxxxxxxxxxxxxxxxxxxxxxxxxxxxxxxxxxxxxxxxxxxxxxxxxxxxxxxxxxxx


                         No user defined ionic velocities

                           -------------------------------
                                   Details of Species
                           -------------------------------

                               Mass of species in AMU
                                    H    1.0078250

                          Electric Quadrupole Moment (Barn)
                                    H    0.0028600 Isotope  2

                          Files used for pseudopotentials:
                                    H 0|0.7|2|6|8|10L(qc=10)

                           -------------------------------
                              k-Points For BZ Sampling
                           -------------------------------
                       MP grid size for SCF calculation is 15 15 15
                            with an offset of   0.000  0.000  0.000
                       Number of kpoints used =           512

                           -------------------------------
                               Symmetry and Constraints
                           -------------------------------

                      Maximum deviation from symmetry = 0.646240E-14     ANG

                      Number of symmetry operations   =           4
                      Number of ionic constraints     =           3
                      Point group of crystal =     6: C2v, mm2, 2 mm
                      Space group of crystal =    29: Pca2_1, P 2c -2ac

             Set iprint > 1 for details on symmetry rotations/translations

                         Centre of mass is constrained
             Set iprint > 1 for details of linear ionic constraints

                         Number of cell constraints= 3
                         Cell constraints are:  1 2 3 0 0 0

                         External pressure/stress (GPa)
                         80.00000   0.00000   0.00000
                                   80.00000   0.00000
                                             80.00000
  
+---------------- MEMORY AND SCRATCH DISK ESTIMATES PER PROCESS --------------+
|                                                     Memory          Disk    |
| Baseline code, static data and system overhead      476.0 MB         0.0 MB |
| BLAS internal memory storage                          0.0 MB         0.0 MB |
| Model and support data                               27.1 MB         0.0 MB |
| Electronic energy minimisation requirements          17.9 MB         0.0 MB |
| Force calculation requirements                        6.3 MB         0.0 MB |
| Stress calculation requirements                       7.9 MB         0.0 MB |
|                                               ----------------------------- |
| Approx. total storage required per process          521.1 MB         0.0 MB |
|                                                                             |
| Requirements will fluctuate during execution and may exceed these estimates |
+-----------------------------------------------------------------------------+
Calculating finite basis set correction with  3 cut-off energies.
Calculating total energy with cut-off of 1590.000 eV.
------------------------------------------------------------------------ <-- SCF
SCF loop      Energy                           Energy gain       Timer   <-- SCF
                                               per atom          (sec)   <-- SCF
------------------------------------------------------------------------ <-- SCF
Initial   2.03301117E+002                                          4.33  <-- SCF
      1  -1.00516483E+002                    3.79772000E+001       6.32  <-- SCF
      2  -1.23144859E+002                    2.82854691E+000       7.65  <-- SCF
      3  -1.23239557E+002                    1.18372622E-002       8.78  <-- SCF
      4  -1.22539878E+002                   -8.74598899E-002      10.86  <-- SCF
      5  -1.22514871E+002                   -3.12582974E-003      12.98  <-- SCF
      6  -1.22515689E+002                    1.02220738E-004      15.19  <-- SCF
      7  -1.22515774E+002                    1.06257628E-005      17.32  <-- SCF
      8  -1.22515774E+002                    3.26233072E-008      19.46  <-- SCF
      9  -1.22515774E+002                    1.98775276E-009      21.63  <-- SCF
     10  -1.22515774E+002                    3.56425925E-011      23.19  <-- SCF
     11  -1.22515774E+002                    7.76415178E-013      24.73  <-- SCF
     12  -1.22515774E+002                    6.64635561E-014      26.47  <-- SCF
------------------------------------------------------------------------ <-- SCF
 
Final energy =  -122.5157740479     eV
(energy not corrected for finite basis set)
 
Calculating total energy with cut-off of 1595.000 eV.
------------------------------------------------------------------------ <-- SCF
SCF loop      Energy                           Energy gain       Timer   <-- SCF
                                               per atom          (sec)   <-- SCF
------------------------------------------------------------------------ <-- SCF
Initial  -1.22515774E+002                                         27.60  <-- SCF
      1  -1.22515790E+002                    1.99898066E-006      29.16  <-- SCF
      2  -1.22515790E+002                    1.84285315E-012      30.73  <-- SCF
      3  -1.22515790E+002                    6.89190823E-010      32.31  <-- SCF
      4  -1.22515790E+002                    4.73009044E-011      33.88  <-- SCF
      5  -1.22515790E+002                    8.91215865E-013      35.54  <-- SCF
      6  -1.22515790E+002                   -2.53769941E-013      37.12  <-- SCF
------------------------------------------------------------------------ <-- SCF
 
Final energy =  -122.5157900456     eV
(energy not corrected for finite basis set)
 
Calculating total energy with cut-off of 1600.000 eV.
------------------------------------------------------------------------ <-- SCF
SCF loop      Energy                           Energy gain       Timer   <-- SCF
                                               per atom          (sec)   <-- SCF
------------------------------------------------------------------------ <-- SCF
Initial  -1.22515790E+002                                         38.23  <-- SCF
      1  -1.22515805E+002                    1.85355828E-006      39.83  <-- SCF
      2  -1.22515805E+002                    1.91837991E-012      41.39  <-- SCF
      3  -1.22515805E+002                    6.32884107E-010      42.97  <-- SCF
      4  -1.22515805E+002                    4.30291104E-011      44.71  <-- SCF
      5  -1.22515805E+002                    3.95760266E-013      46.31  <-- SCF
      6  -1.22515805E+002                    3.32317780E-013      47.90  <-- SCF
------------------------------------------------------------------------ <-- SCF
 
Final energy =  -122.5158048795     eV
(energy not corrected for finite basis set)
 
 For future reference: finite basis dEtot/dlog(Ecut) =      -0.004938eV
 Total energy corrected for finite basis set =    -122.515805 eV
 
+---------------- MEMORY AND SCRATCH DISK ESTIMATES PER PROCESS --------------+
|                                                     Memory          Disk    |
| Model and support data                               35.6 MB         0.0 MB |
| Electronic energy minimisation requirements          17.9 MB         0.0 MB |
| Geometry minimisation requirements                   22.6 MB         0.0 MB |
|                                               ----------------------------- |
| Approx. total storage required per process           76.2 MB         0.0 MB |
|                                                                             |
| Requirements will fluctuate during execution and may exceed these estimates |
+-----------------------------------------------------------------------------+
 

 ******************************** Symmetrised Forces ********************************
 *                                                                                  *
 *                           Cartesian components (eV/A)                            *
 * -------------------------------------------------------------------------------- *
 *                         x                    y                    z              *
 *                                                                                  *
 * H               1      0.00000              0.00000              0.00000         *
 * H               2      0.00000              0.00000             -0.00000         *
 * H               3      0.00000             -0.00000             -0.00000         *
 * H               4      0.00000             -0.00000              0.00000         *
 * H               5     -0.00000              0.00000             -0.00000         *
 * H               6     -0.00000              0.00000              0.00000         *
 * H               7     -0.00000             -0.00000             -0.00000         *
 * H               8     -0.00000             -0.00000              0.00000         *
 *                                                                                  *
 ************************************************************************************

 *********** Symmetrised Stress Tensor ***********
 *                                               *
 *          Cartesian components (GPa)           *
 * --------------------------------------------- *
 *             x             y             z     *
 *                                               *
 *  x    -69.999028      0.000000      0.000000  *
 *  y      0.000000    -69.999034      0.000000  *
 *  z      0.000000      0.000000    -69.999029  *
 *                                               *
 *  Pressure:   69.9990                          *
 *                                               *
 *************************************************
 LBFGS: finished iteration     0 with enthalpy= -1.11929436E+002 eV
  
 +-----------+-----------------+-----------------+------------+-----+ <-- LBFGS
 | Parameter |      value      |    tolerance    |    units   | OK? | <-- LBFGS
 +-----------+-----------------+-----------------+------------+-----+ <-- LBFGS
 |  dE/ion   |   0.000000E+000 |   1.000000E-009 |         eV | No  | <-- LBFGS
 |  |F|max   |   2.275523E-007 |   1.000000E-005 |       eV/A | Yes | <-- LBFGS
 |  |dR|max  |   0.000000E+000 |   1.000000E-005 |          A | No  | <-- LBFGS
 |   Smax    |   1.000097E+001 |   1.000000E-005 |        GPa | No  | <-- LBFGS
 +-----------+-----------------+-----------------+------------+-----+ <-- LBFGS
  

================================================================================
 Starting LBFGS iteration          1 ...
================================================================================
  
 +------------+-------------+-------------+-----------------+ <-- min LBFGS
 |    Step    |   lambda    |   F.delta'  |    enthalpy     | <-- min LBFGS
 +------------+-------------+-------------+-----------------+ <-- min LBFGS
 |  previous  |    0.000000 |    0.084238 |     -111.929436 | <-- min LBFGS
 +------------+-------------+-------------+-----------------+ <-- min LBFGS
  

--------------------------------------------------------------------------------
 LBFGS: starting iteration         1 with trial guess (lambda=  1.000000)
--------------------------------------------------------------------------------

                           -------------------------------
                                      Unit Cell
                           -------------------------------
        Real Lattice(A)              Reciprocal Lattice(1/A)
     3.3830668     0.0000000     0.0000000        1.857245417   0.000000000   0.000000000
     0.0000000     1.9653249     0.0000000        0.000000000   3.197021190   0.000000000
     0.0000000     0.0000000     3.1254078        0.000000000   0.000000000   2.010356972

                       Lattice parameters(A)       Cell Angles
                    a =      3.383067          alpha =   90.000000
                    b =      1.965325          beta  =   90.000000
                    c =      3.125408          gamma =   90.000000

                Current cell volume =            20.780290 A**3

                           -------------------------------
                                     Cell Contents
                           -------------------------------

            xxxxxxxxxxxxxxxxxxxxxxxxxxxxxxxxxxxxxxxxxxxxxxxxxxxxxxxxxxxxxxxxx
            x  Element         Atom        Fractional coordinates of atoms  x
            x                 Number           u          v          w      x
            x---------------------------------------------------------------x
            x  H                 1         0.352689   0.136455   0.378394   x
            x  H                 2         0.480578   0.363490   0.500506   x
            x  H                 3         0.980578   0.636510   0.500506   x
            x  H                 4         0.852689   0.863545   0.378394   x
            x  H                 5         0.019422   0.363490   0.000506   x
            x  H                 6         0.147311   0.136455   0.878394   x
            x  H                 7         0.519422   0.636510   0.000506   x
            x  H                 8         0.647311   0.863545   0.878394   x
            xxxxxxxxxxxxxxxxxxxxxxxxxxxxxxxxxxxxxxxxxxxxxxxxxxxxxxxxxxxxxxxxx


------------------------------------------------------------------------ <-- SCF
SCF loop      Energy                           Energy gain       Timer   <-- SCF
                                               per atom          (sec)   <-- SCF
------------------------------------------------------------------------ <-- SCF
Initial  -1.22322417E+002                                         50.33  <-- SCF
      1  -1.22325577E+002                    3.94997051E-004      51.87  <-- SCF
      2  -1.22325585E+002                    1.08045300E-006      54.09  <-- SCF
      3  -1.22325422E+002                   -2.03967298E-005      56.18  <-- SCF
      4  -1.22325417E+002                   -6.09747923E-007      58.38  <-- SCF
      5  -1.22325418E+002                    2.12677216E-008      60.52  <-- SCF
      6  -1.22325418E+002                    2.10555639E-009      62.70  <-- SCF
      7  -1.22325418E+002                    6.92731518E-012      64.29  <-- SCF
      8  -1.22325418E+002                    4.16907761E-013      65.88  <-- SCF
------------------------------------------------------------------------ <-- SCF
 
Final energy =  -122.3254175936     eV
(energy not corrected for finite basis set)
 

 ******************************** Symmetrised Forces ********************************
 *                                                                                  *
 *                           Cartesian components (eV/A)                            *
 * -------------------------------------------------------------------------------- *
 *                         x                    y                    z              *
 *                                                                                  *
 * H               1     -0.09084             -0.09472             -0.07979         *
 * H               2      0.09094              0.09285              0.07979         *
 * H               3      0.09094             -0.09285              0.07979         *
 * H               4     -0.09084              0.09472             -0.07979         *
 * H               5     -0.09094              0.09285              0.07979         *
 * H               6      0.09084             -0.09472             -0.07979         *
 * H               7     -0.09094             -0.09285              0.07979         *
 * H               8      0.09084              0.09472             -0.07979         *
 *                                                                                  *
 ************************************************************************************

 *********** Symmetrised Stress Tensor ***********
 *                                               *
 *          Cartesian components (GPa)           *
 * --------------------------------------------- *
 *             x             y             z     *
 *                                               *
 *  x    -74.983046      0.000000      0.000000  *
 *  y      0.000000    -75.040264      0.000000  *
 *  z      0.000000      0.000000    -74.624426  *
 *                                               *
 *  Pressure:   74.8826                          *
 *                                               *
 *************************************************
  
 +------------+-------------+-------------+-----------------+ <-- min LBFGS
 |    Step    |   lambda    |   F.delta'  |    enthalpy     | <-- min LBFGS
 +------------+-------------+-------------+-----------------+ <-- min LBFGS
 |  previous  |    0.000000 |    0.084238 |     -111.929436 | <-- min LBFGS
 | trial step |    1.000000 |    0.042531 |     -111.949388 | <-- min LBFGS
 +------------+-------------+-------------+-----------------+ <-- min LBFGS
  

--------------------------------------------------------------------------------
 LBFGS: improving iteration         1 with line minimization (lambda=  2.019761)
--------------------------------------------------------------------------------

                           -------------------------------
                                      Unit Cell
                           -------------------------------
        Real Lattice(A)              Reciprocal Lattice(1/A)
     3.3599107     0.0000000     0.0000000        1.870045327   0.000000000   0.000000000
     0.0000000     1.9518728     0.0000000        0.000000000   3.219054657   0.000000000
     0.0000000     0.0000000     3.1040153        0.000000000   0.000000000   2.024212105

                       Lattice parameters(A)       Cell Angles
                    a =      3.359911          alpha =   90.000000
                    b =      1.951873          beta  =   90.000000
                    c =      3.104015          gamma =   90.000000

                Current cell volume =            20.356500 A**3

                           -------------------------------
                                     Cell Contents
                           -------------------------------

            xxxxxxxxxxxxxxxxxxxxxxxxxxxxxxxxxxxxxxxxxxxxxxxxxxxxxxxxxxxxxxxxx
            x  Element         Atom        Fractional coordinates of atoms  x
            x                 Number           u          v          w      x
            x---------------------------------------------------------------x
            x  H                 1         0.352689   0.136455   0.378394   x
            x  H                 2         0.480578   0.363490   0.500506   x
            x  H                 3         0.980578   0.636510   0.500506   x
            x  H                 4         0.852689   0.863545   0.378394   x
            x  H                 5         0.019422   0.363490   0.000506   x
            x  H                 6         0.147311   0.136455   0.878394   x
            x  H                 7         0.519422   0.636510   0.000506   x
            x  H                 8         0.647311   0.863545   0.878394   x
            xxxxxxxxxxxxxxxxxxxxxxxxxxxxxxxxxxxxxxxxxxxxxxxxxxxxxxxxxxxxxxxxx


------------------------------------------------------------------------ <-- SCF
SCF loop      Energy                           Energy gain       Timer   <-- SCF
                                               per atom          (sec)   <-- SCF
------------------------------------------------------------------------ <-- SCF
Initial  -1.22117314E+002                                         68.06  <-- SCF
      1  -1.22120640E+002                    4.15782064E-004      69.62  <-- SCF
      2  -1.22120649E+002                    1.12518285E-006      71.74  <-- SCF
      3  -1.22120479E+002                   -2.12524783E-005      73.88  <-- SCF
      4  -1.22120474E+002                   -6.37913462E-007      75.97  <-- SCF
      5  -1.22120474E+002                    2.13356806E-008      78.21  <-- SCF
      6  -1.22120474E+002                    2.09357483E-009      80.48  <-- SCF
      7  -1.22120474E+002                    6.78834593E-012      82.13  <-- SCF
      8  -1.22120474E+002                    7.22035904E-013      83.72  <-- SCF
------------------------------------------------------------------------ <-- SCF
 
Final energy =  -122.1204738406     eV
(energy not corrected for finite basis set)
 

 ******************************** Symmetrised Forces ********************************
 *                                                                                  *
 *                           Cartesian components (eV/A)                            *
 * -------------------------------------------------------------------------------- *
 *                         x                    y                    z              *
 *                                                                                  *
 * H               1     -0.18622             -0.19419             -0.16356         *
 * H               2      0.18642              0.19031              0.16356         *
 * H               3      0.18642             -0.19031              0.16356         *
 * H               4     -0.18622              0.19419             -0.16356         *
 * H               5     -0.18642              0.19031              0.16356         *
 * H               6      0.18622             -0.19419             -0.16356         *
 * H               7     -0.18642             -0.19031              0.16356         *
 * H               8      0.18622              0.19419             -0.16356         *
 *                                                                                  *
 ************************************************************************************

 *********** Symmetrised Stress Tensor ***********
 *                                               *
 *          Cartesian components (GPa)           *
 * --------------------------------------------- *
 *             x             y             z     *
 *                                               *
 *  x    -80.353901      0.000000      0.000000  *
 *  y      0.000000    -80.472557      0.000000  *
 *  z      0.000000      0.000000    -79.605299  *
 *                                               *
 *  Pressure:   80.1439                          *
 *                                               *
 *************************************************
  
 +------------+-------------+-------------+-----------------+ <-- min LBFGS
 |    Step    |   lambda    |   F.delta'  |    enthalpy     | <-- min LBFGS
 +------------+-------------+-------------+-----------------+ <-- min LBFGS
 |  previous  |    0.000000 |    0.084238 |     -111.929436 | <-- min LBFGS
 | trial step |    1.000000 |    0.042531 |     -111.949388 | <-- min LBFGS
 |  line step |    2.019761 |   -0.001180 |     -111.956051 | <-- min LBFGS
 +------------+-------------+-------------+-----------------+ <-- min LBFGS
  
 LBFGS: finished iteration     1 with enthalpy= -1.11956051E+002 eV
  
 +-----------+-----------------+-----------------+------------+-----+ <-- LBFGS
 | Parameter |      value      |    tolerance    |    units   | OK? | <-- LBFGS
 +-----------+-----------------+-----------------+------------+-----+ <-- LBFGS
 |  dE/ion   |   3.326955E-003 |   1.000000E-009 |         eV | No  | <-- LBFGS
 |  |F|max   |   3.148635E-001 |   1.000000E-005 |       eV/A | No  | <-- LBFGS
 |  |dR|max  |   4.398146E-008 |   1.000000E-005 |          A | Yes | <-- LBFGS
 |   Smax    |   4.725570E-001 |   1.000000E-005 |        GPa | No  | <-- LBFGS
 +-----------+-----------------+-----------------+------------+-----+ <-- LBFGS
  

================================================================================
 Starting LBFGS iteration          2 ...
================================================================================
  
 +------------+-------------+-------------+-----------------+ <-- min LBFGS
 |    Step    |   lambda    |   F.delta'  |    enthalpy     | <-- min LBFGS
 +------------+-------------+-------------+-----------------+ <-- min LBFGS
 |  previous  |    0.000000 |    0.058658 |     -111.956051 | <-- min LBFGS
 +------------+-------------+-------------+-----------------+ <-- min LBFGS
  

--------------------------------------------------------------------------------
 LBFGS: starting iteration         2 with trial guess (lambda=  1.000000)
--------------------------------------------------------------------------------

                           -------------------------------
                                      Unit Cell
                           -------------------------------
        Real Lattice(A)              Reciprocal Lattice(1/A)
     3.2989505     0.0000000     0.0000000        1.904601289   0.000000000   0.000000000
     0.0000000     1.9166094     0.0000000        0.000000000   3.278281523   0.000000000
     0.0000000     0.0000000     3.0461907        0.000000000   0.000000000   2.062636873

                       Lattice parameters(A)       Cell Angles
                    a =      3.298950          alpha =   90.000000
                    b =      1.916609          beta  =   90.000000
                    c =      3.046191          gamma =   90.000000

                Current cell volume =            19.260453 A**3

                           -------------------------------
                                     Cell Contents
                           -------------------------------

            xxxxxxxxxxxxxxxxxxxxxxxxxxxxxxxxxxxxxxxxxxxxxxxxxxxxxxxxxxxxxxxxx
            x  Element         Atom        Fractional coordinates of atoms  x
            x                 Number           u          v          w      x
            x---------------------------------------------------------------x
            x  H                 1         0.347529   0.127192   0.373488   x
            x  H                 2         0.485744   0.372568   0.505412   x
            x  H                 3         0.985744   0.627432   0.505412   x
            x  H                 4         0.847529   0.872808   0.373488   x
            x  H                 5         0.014256   0.372568   0.005412   x
            x  H                 6         0.152471   0.127192   0.873488   x
            x  H                 7         0.514256   0.627432   0.005412   x
            x  H                 8         0.652471   0.872808   0.873488   x
            xxxxxxxxxxxxxxxxxxxxxxxxxxxxxxxxxxxxxxxxxxxxxxxxxxxxxxxxxxxxxxxxx


------------------------------------------------------------------------ <-- SCF
SCF loop      Energy                           Energy gain       Timer   <-- SCF
                                               per atom          (sec)   <-- SCF
------------------------------------------------------------------------ <-- SCF
Initial  -1.20786647E+002                                         85.88  <-- SCF
      1  -1.21523103E+002                    9.20570134E-002      87.24  <-- SCF
      2  -1.21525748E+002                    3.30690482E-004      89.09  <-- SCF
      3  -1.21477608E+002                   -6.01754871E-003      91.03  <-- SCF
      4  -1.21475649E+002                   -2.44860028E-004      92.86  <-- SCF
      5  -1.21475662E+002                    1.62510376E-006      94.70  <-- SCF
      6  -1.21475663E+002                    1.28188587E-007      96.57  <-- SCF
      7  -1.21475663E+002                    3.06729311E-010      98.40  <-- SCF
      8  -1.21475663E+002                    2.34646564E-011      99.78  <-- SCF
      9  -1.21475663E+002                    1.59512535E-012     101.29  <-- SCF
     10  -1.21475663E+002                   -1.96369597E-013     102.66  <-- SCF
------------------------------------------------------------------------ <-- SCF
 
Final energy =  -121.4756631193     eV
(energy not corrected for finite basis set)
 

 ******************************** Symmetrised Forces ********************************
 *                                                                                  *
 *                           Cartesian components (eV/A)                            *
 * -------------------------------------------------------------------------------- *
 *                         x                    y                    z              *
 *                                                                                  *
 * H               1      0.60435              0.61750              0.53964         *
 * H               2     -0.59854             -0.63424             -0.53964         *
 * H               3     -0.59854              0.63424             -0.53964         *
 * H               4      0.60435             -0.61750              0.53964         *
 * H               5      0.59854             -0.63424             -0.53964         *
 * H               6     -0.60435              0.61750              0.53964         *
 * H               7      0.59854              0.63424             -0.53964         *
 * H               8     -0.60435             -0.61750              0.53964         *
 *                                                                                  *
 ************************************************************************************

 *********** Symmetrised Stress Tensor ***********
 *                                               *
 *          Cartesian components (GPa)           *
 * --------------------------------------------- *
 *             x             y             z     *
 *                                               *
 *  x    -82.061563      0.000000      0.000000  *
 *  y      0.000000    -81.426944      0.000000  *
 *  z      0.000000      0.000000    -82.055534  *
 *                                               *
 *  Pressure:   81.8480                          *
 *                                               *
 *************************************************
  
 +------------+-------------+-------------+-----------------+ <-- min LBFGS
 |    Step    |   lambda    |   F.delta'  |    enthalpy     | <-- min LBFGS
 +------------+-------------+-------------+-----------------+ <-- min LBFGS
 |  previous  |    0.000000 |    0.058658 |     -111.956051 | <-- min LBFGS
 | trial step |    1.000000 |   -0.200169 |     -111.858519 | <-- min LBFGS
 +------------+-------------+-------------+-----------------+ <-- min LBFGS
  

--------------------------------------------------------------------------------
 LBFGS: improving iteration         2 with line minimization (lambda=  0.226631)
--------------------------------------------------------------------------------

                           -------------------------------
                                      Unit Cell
                           -------------------------------
        Real Lattice(A)              Reciprocal Lattice(1/A)
     3.3460952     0.0000000     0.0000000        1.877766439   0.000000000   0.000000000
     0.0000000     1.9438810     0.0000000        0.000000000   3.232288990   0.000000000
     0.0000000     0.0000000     3.0909104        0.000000000   0.000000000   2.032794358

                       Lattice parameters(A)       Cell Angles
                    a =      3.346095          alpha =   90.000000
                    b =      1.943881          beta  =   90.000000
                    c =      3.090910          gamma =   90.000000

                Current cell volume =            20.104552 A**3

                           -------------------------------
                                     Cell Contents
                           -------------------------------

            xxxxxxxxxxxxxxxxxxxxxxxxxxxxxxxxxxxxxxxxxxxxxxxxxxxxxxxxxxxxxxxxx
            x  Element         Atom        Fractional coordinates of atoms  x
            x                 Number           u          v          w      x
            x---------------------------------------------------------------x
            x  H                 1         0.351520   0.134356   0.377282   x
            x  H                 2         0.481749   0.365547   0.501618   x
            x  H                 3         0.981749   0.634453   0.501618   x
            x  H                 4         0.851520   0.865644   0.377282   x
            x  H                 5         0.018251   0.365547   0.001618   x
            x  H                 6         0.148480   0.134356   0.877282   x
            x  H                 7         0.518251   0.634453   0.001618   x
            x  H                 8         0.648480   0.865644   0.877282   x
            xxxxxxxxxxxxxxxxxxxxxxxxxxxxxxxxxxxxxxxxxxxxxxxxxxxxxxxxxxxxxxxxx


------------------------------------------------------------------------ <-- SCF
SCF loop      Energy                           Energy gain       Timer   <-- SCF
                                               per atom          (sec)   <-- SCF
------------------------------------------------------------------------ <-- SCF
Initial  -1.21614110E+002                                        104.73  <-- SCF
      1  -1.22028277E+002                    5.17708398E-002     106.30  <-- SCF
      2  -1.22029760E+002                    1.85373499E-004     108.42  <-- SCF
      3  -1.22002620E+002                   -3.39254576E-003     110.54  <-- SCF
      4  -1.22001453E+002                   -1.45788980E-004     112.63  <-- SCF
      5  -1.22001464E+002                    1.38779006E-006     114.83  <-- SCF
      6  -1.22001465E+002                    1.25395685E-007     116.93  <-- SCF
      7  -1.22001465E+002                    6.57239979E-010     119.02  <-- SCF
      8  -1.22001465E+002                    2.29118004E-011     120.58  <-- SCF
      9  -1.22001465E+002                    1.59210427E-012     122.26  <-- SCF
     10  -1.22001465E+002                   -1.99390668E-013     123.86  <-- SCF
------------------------------------------------------------------------ <-- SCF
 
Final energy =  -122.0014654445     eV
(energy not corrected for finite basis set)
 

 ******************************** Symmetrised Forces ********************************
 *                                                                                  *
 *                           Cartesian components (eV/A)                            *
 * -------------------------------------------------------------------------------- *
 *                         x                    y                    z              *
 *                                                                                  *
 * H               1      0.02387              0.02201              0.02299         *
 * H               2     -0.02290             -0.02800             -0.02299         *
 * H               3     -0.02290              0.02800             -0.02299         *
 * H               4      0.02387             -0.02201              0.02299         *
 * H               5      0.02290             -0.02800             -0.02299         *
 * H               6     -0.02387              0.02201              0.02299         *
 * H               7      0.02290              0.02800             -0.02299         *
 * H               8     -0.02387             -0.02201              0.02299         *
 *                                                                                  *
 ************************************************************************************

 *********** Symmetrised Stress Tensor ***********
 *                                               *
 *          Cartesian components (GPa)           *
 * --------------------------------------------- *
 *             x             y             z     *
 *                                               *
 *  x    -80.410714      0.000000      0.000000  *
 *  y      0.000000    -80.355481      0.000000  *
 *  z      0.000000      0.000000    -79.944149  *
 *                                               *
 *  Pressure:   80.2368                          *
 *                                               *
 *************************************************
  
 +------------+-------------+-------------+-----------------+ <-- min LBFGS
 |    Step    |   lambda    |   F.delta'  |    enthalpy     | <-- min LBFGS
 +------------+-------------+-------------+-----------------+ <-- min LBFGS
 |  previous  |    0.000000 |    0.058658 |     -111.956051 | <-- min LBFGS
 | trial step |    1.000000 |   -0.200169 |     -111.858519 | <-- min LBFGS
 |  line step |    0.226631 |   -0.009081 |     -111.962846 | <-- min LBFGS
 +------------+-------------+-------------+-----------------+ <-- min LBFGS
  
 LBFGS: finished iteration     2 with enthalpy= -1.11962846E+002 eV
  
 +-----------+-----------------+-----------------+------------+-----+ <-- LBFGS
 | Parameter |      value      |    tolerance    |    units   | OK? | <-- LBFGS
 +-----------+-----------------+-----------------+------------+-----+ <-- LBFGS
 |  dE/ion   |   8.493201E-004 |   1.000000E-009 |         eV | No  | <-- LBFGS
 |  |F|max   |   4.286327E-002 |   1.000000E-005 |       eV/A | No  | <-- LBFGS
 |  |dR|max  |   6.616091E-003 |   1.000000E-005 |          A | No  | <-- LBFGS
 |   Smax    |   4.107136E-001 |   1.000000E-005 |        GPa | No  | <-- LBFGS
 +-----------+-----------------+-----------------+------------+-----+ <-- LBFGS
  

================================================================================
 Starting LBFGS iteration          3 ...
================================================================================
  
 +------------+-------------+-------------+-----------------+ <-- min LBFGS
 |    Step    |   lambda    |   F.delta'  |    enthalpy     | <-- min LBFGS
 +------------+-------------+-------------+-----------------+ <-- min LBFGS
 |  previous  |    0.000000 |    0.007853 |     -111.962846 | <-- min LBFGS
 +------------+-------------+-------------+-----------------+ <-- min LBFGS
  

--------------------------------------------------------------------------------
 LBFGS: starting iteration         3 with trial guess (lambda=  1.000000)
--------------------------------------------------------------------------------

                           -------------------------------
                                      Unit Cell
                           -------------------------------
        Real Lattice(A)              Reciprocal Lattice(1/A)
     3.3492852     0.0000000     0.0000000        1.875977961   0.000000000   0.000000000
     0.0000000     1.9456860     0.0000000        0.000000000   3.229290451   0.000000000
     0.0000000     0.0000000     3.0929122        0.000000000   0.000000000   2.031478730

                       Lattice parameters(A)       Cell Angles
                    a =      3.349285          alpha =   90.000000
                    b =      1.945686          beta  =   90.000000
                    c =      3.092912          gamma =   90.000000

                Current cell volume =            20.155449 A**3

                           -------------------------------
                                     Cell Contents
                           -------------------------------

            xxxxxxxxxxxxxxxxxxxxxxxxxxxxxxxxxxxxxxxxxxxxxxxxxxxxxxxxxxxxxxxxx
            x  Element         Atom        Fractional coordinates of atoms  x
            x                 Number           u          v          w      x
            x---------------------------------------------------------------x
            x  H                 1         0.351662   0.134491   0.377471   x
            x  H                 2         0.481630   0.365147   0.501429   x
            x  H                 3         0.981630   0.634853   0.501429   x
            x  H                 4         0.851662   0.865509   0.377471   x
            x  H                 5         0.018370   0.365147   0.001429   x
            x  H                 6         0.148338   0.134491   0.877471   x
            x  H                 7         0.518370   0.634853   0.001429   x
            x  H                 8         0.648338   0.865509   0.877471   x
            xxxxxxxxxxxxxxxxxxxxxxxxxxxxxxxxxxxxxxxxxxxxxxxxxxxxxxxxxxxxxxxxx


------------------------------------------------------------------------ <-- SCF
SCF loop      Energy                           Energy gain       Timer   <-- SCF
                                               per atom          (sec)   <-- SCF
------------------------------------------------------------------------ <-- SCF
Initial  -1.22026338E+002                                        126.15  <-- SCF
      1  -1.22027140E+002                    1.00181876E-004     127.74  <-- SCF
      2  -1.22027142E+002                    3.27553304E-007     129.94  <-- SCF
      3  -1.22027087E+002                   -6.97260308E-006     132.05  <-- SCF
      4  -1.22027084E+002                   -2.82130122E-007     134.18  <-- SCF
      5  -1.22027084E+002                    2.45944160E-009     136.34  <-- SCF
      6  -1.22027084E+002                    2.17544282E-010     137.99  <-- SCF
      7  -1.22027084E+002                    1.01205869E-012     139.57  <-- SCF
      8  -1.22027084E+002                   -1.66158890E-013     141.20  <-- SCF
------------------------------------------------------------------------ <-- SCF
 
Final energy =  -122.0270843108     eV
(energy not corrected for finite basis set)
 

 ******************************** Symmetrised Forces ********************************
 *                                                                                  *
 *                           Cartesian components (eV/A)                            *
 * -------------------------------------------------------------------------------- *
 *                         x                    y                    z              *
 *                                                                                  *
 * H               1      0.00071             -0.00062              0.00245         *
 * H               2     -0.00019             -0.00301             -0.00245         *
 * H               3     -0.00019              0.00301             -0.00245         *
 * H               4      0.00071              0.00062              0.00245         *
 * H               5      0.00019             -0.00301             -0.00245         *
 * H               6     -0.00071             -0.00062              0.00245         *
 * H               7      0.00019              0.00301             -0.00245         *
 * H               8     -0.00071              0.00062              0.00245         *
 *                                                                                  *
 ************************************************************************************

 *********** Symmetrised Stress Tensor ***********
 *                                               *
 *          Cartesian components (GPa)           *
 * --------------------------------------------- *
 *             x             y             z     *
 *                                               *
 *  x    -80.118245      0.000000      0.000000  *
 *  y      0.000000    -80.097611      0.000000  *
 *  z      0.000000      0.000000    -79.731259  *
 *                                               *
 *  Pressure:   79.9824                          *
 *                                               *
 *************************************************
  
 +------------+-------------+-------------+-----------------+ <-- min LBFGS
 |    Step    |   lambda    |   F.delta'  |    enthalpy     | <-- min LBFGS
 +------------+-------------+-------------+-----------------+ <-- min LBFGS
 |  previous  |    0.000000 |    0.007853 |     -111.962846 | <-- min LBFGS
 | trial step |    1.000000 |    0.000519 |     -111.963051 | <-- min LBFGS
 +------------+-------------+-------------+-----------------+ <-- min LBFGS
  
 LBFGS: finished iteration     3 with enthalpy= -1.11963051E+002 eV
  
 +-----------+-----------------+-----------------+------------+-----+ <-- LBFGS
 | Parameter |      value      |    tolerance    |    units   | OK? | <-- LBFGS
 +-----------+-----------------+-----------------+------------+-----+ <-- LBFGS
 |  dE/ion   |   2.558073E-005 |   1.000000E-009 |         eV | No  | <-- LBFGS
 |  |F|max   |   3.884721E-003 |   1.000000E-005 |       eV/A | No  | <-- LBFGS
 |  |dR|max  |   1.051283E-003 |   1.000000E-005 |          A | No  | <-- LBFGS
 |   Smax    |   2.687407E-001 |   1.000000E-005 |        GPa | No  | <-- LBFGS
 +-----------+-----------------+-----------------+------------+-----+ <-- LBFGS
  

================================================================================
 Starting LBFGS iteration          4 ...
================================================================================
  
 +------------+-------------+-------------+-----------------+ <-- min LBFGS
 |    Step    |   lambda    |   F.delta'  |    enthalpy     | <-- min LBFGS
 +------------+-------------+-------------+-----------------+ <-- min LBFGS
 |  previous  |    0.000000 |    0.001374 |     -111.963051 | <-- min LBFGS
 +------------+-------------+-------------+-----------------+ <-- min LBFGS
  

--------------------------------------------------------------------------------
 LBFGS: starting iteration         4 with trial guess (lambda=  1.000000)
--------------------------------------------------------------------------------

                           -------------------------------
                                      Unit Cell
                           -------------------------------
        Real Lattice(A)              Reciprocal Lattice(1/A)
     3.3496826     0.0000000     0.0000000        1.875755442   0.000000000   0.000000000
     0.0000000     1.9458883     0.0000000        0.000000000   3.228954741   0.000000000
     0.0000000     0.0000000     3.0924030        0.000000000   0.000000000   2.031813251

                       Lattice parameters(A)       Cell Angles
                    a =      3.349683          alpha =   90.000000
                    b =      1.945888          beta  =   90.000000
                    c =      3.092403          gamma =   90.000000

                Current cell volume =            20.156617 A**3

                           -------------------------------
                                     Cell Contents
                           -------------------------------

            xxxxxxxxxxxxxxxxxxxxxxxxxxxxxxxxxxxxxxxxxxxxxxxxxxxxxxxxxxxxxxxxx
            x  Element         Atom        Fractional coordinates of atoms  x
            x                 Number           u          v          w      x
            x---------------------------------------------------------------x
            x  H                 1         0.351654   0.134402   0.377524   x
            x  H                 2         0.481655   0.365039   0.501377   x
            x  H                 3         0.981655   0.634961   0.501377   x
            x  H                 4         0.851654   0.865598   0.377524   x
            x  H                 5         0.018345   0.365039   0.001377   x
            x  H                 6         0.148346   0.134402   0.877524   x
            x  H                 7         0.518345   0.634961   0.001377   x
            x  H                 8         0.648346   0.865598   0.877524   x
            xxxxxxxxxxxxxxxxxxxxxxxxxxxxxxxxxxxxxxxxxxxxxxxxxxxxxxxxxxxxxxxxx


------------------------------------------------------------------------ <-- SCF
SCF loop      Energy                           Energy gain       Timer   <-- SCF
                                               per atom          (sec)   <-- SCF
------------------------------------------------------------------------ <-- SCF
Initial  -1.22027648E+002                                        143.38  <-- SCF
      1  -1.22027681E+002                    4.09102579E-006     144.92  <-- SCF
      2  -1.22027681E+002                    1.06467094E-008     147.03  <-- SCF
      3  -1.22027680E+002                   -1.37232543E-007     149.27  <-- SCF
      4  -1.22027679E+002                   -3.97525779E-009     151.48  <-- SCF
      5  -1.22027679E+002                    5.42403039E-011     153.06  <-- SCF
      6  -1.22027679E+002                    5.74305546E-012     154.67  <-- SCF
      7  -1.22027679E+002                    5.43792731E-014     156.50  <-- SCF
------------------------------------------------------------------------ <-- SCF
 
Final energy =  -122.0276794867     eV
(energy not corrected for finite basis set)
 

 ******************************** Symmetrised Forces ********************************
 *                                                                                  *
 *                           Cartesian components (eV/A)                            *
 * -------------------------------------------------------------------------------- *
 *                         x                    y                    z              *
 *                                                                                  *
 * H               1     -0.00149             -0.00210              0.00050         *
 * H               2      0.00179             -0.00011             -0.00050         *
 * H               3      0.00179              0.00011             -0.00050         *
 * H               4     -0.00149              0.00210              0.00050         *
 * H               5     -0.00179             -0.00011             -0.00050         *
 * H               6      0.00149             -0.00210              0.00050         *
 * H               7     -0.00179              0.00011             -0.00050         *
 * H               8      0.00149              0.00210              0.00050         *
 *                                                                                  *
 ************************************************************************************

 *********** Symmetrised Stress Tensor ***********
 *                                               *
 *          Cartesian components (GPa)           *
 * --------------------------------------------- *
 *             x             y             z     *
 *                                               *
 *  x    -80.097877      0.000000      0.000000  *
 *  y      0.000000    -80.088837      0.000000  *
 *  z      0.000000      0.000000    -79.792463  *
 *                                               *
 *  Pressure:   79.9931                          *
 *                                               *
 *************************************************
  
 +------------+-------------+-------------+-----------------+ <-- min LBFGS
 |    Step    |   lambda    |   F.delta'  |    enthalpy     | <-- min LBFGS
 +------------+-------------+-------------+-----------------+ <-- min LBFGS
 |  previous  |    0.000000 |    0.001374 |     -111.963051 | <-- min LBFGS
 | trial step |    1.000000 |    0.000927 |     -111.963063 | <-- min LBFGS
 +------------+-------------+-------------+-----------------+ <-- min LBFGS
  

--------------------------------------------------------------------------------
 LBFGS: improving iteration         4 with line minimization (lambda=  3.074497)
--------------------------------------------------------------------------------

                           -------------------------------
                                      Unit Cell
                           -------------------------------
        Real Lattice(A)              Reciprocal Lattice(1/A)
     3.3505068     0.0000000     0.0000000        1.875293997   0.000000000   0.000000000
     0.0000000     1.9463080     0.0000000        0.000000000   3.228258534   0.000000000
     0.0000000     0.0000000     3.0913466        0.000000000   0.000000000   2.032507566

                       Lattice parameters(A)       Cell Angles
                    a =      3.350507          alpha =   90.000000
                    b =      1.946308          beta  =   90.000000
                    c =      3.091347          gamma =   90.000000

                Current cell volume =            20.159036 A**3

                           -------------------------------
                                     Cell Contents
                           -------------------------------

            xxxxxxxxxxxxxxxxxxxxxxxxxxxxxxxxxxxxxxxxxxxxxxxxxxxxxxxxxxxxxxxxx
            x  Element         Atom        Fractional coordinates of atoms  x
            x                 Number           u          v          w      x
            x---------------------------------------------------------------x
            x  H                 1         0.351637   0.134219   0.377633   x
            x  H                 2         0.481705   0.364816   0.501267   x
            x  H                 3         0.981705   0.635184   0.501267   x
            x  H                 4         0.851637   0.865781   0.377633   x
            x  H                 5         0.018295   0.364816   0.001267   x
            x  H                 6         0.148363   0.134219   0.877633   x
            x  H                 7         0.518295   0.635184   0.001267   x
            x  H                 8         0.648363   0.865781   0.877633   x
            xxxxxxxxxxxxxxxxxxxxxxxxxxxxxxxxxxxxxxxxxxxxxxxxxxxxxxxxxxxxxxxxx


------------------------------------------------------------------------ <-- SCF
SCF loop      Energy                           Energy gain       Timer   <-- SCF
                                               per atom          (sec)   <-- SCF
------------------------------------------------------------------------ <-- SCF
Initial  -1.22028762E+002                                        158.67  <-- SCF
      1  -1.22028902E+002                    1.74811179E-005     160.22  <-- SCF
      2  -1.22028902E+002                    4.57309385E-008     162.35  <-- SCF
      3  -1.22028898E+002                   -5.91549117E-007     164.64  <-- SCF
      4  -1.22028898E+002                   -1.71150847E-008     166.75  <-- SCF
      5  -1.22028898E+002                    2.34812722E-010     168.87  <-- SCF
      6  -1.22028898E+002                    2.40265755E-011     170.44  <-- SCF
      7  -1.22028898E+002                    1.96369597E-013     172.06  <-- SCF
      8  -1.22028898E+002                    1.11779617E-013     173.74  <-- SCF
------------------------------------------------------------------------ <-- SCF
 
Final energy =  -122.0288975673     eV
(energy not corrected for finite basis set)
 

 ******************************** Symmetrised Forces ********************************
 *                                                                                  *
 *                           Cartesian components (eV/A)                            *
 * -------------------------------------------------------------------------------- *
 *                         x                    y                    z              *
 *                                                                                  *
 * H               1     -0.00604             -0.00515             -0.00353         *
 * H               2      0.00588              0.00588              0.00353         *
 * H               3      0.00588             -0.00588              0.00353         *
 * H               4     -0.00604              0.00515             -0.00353         *
 * H               5     -0.00588              0.00588              0.00353         *
 * H               6      0.00604             -0.00515             -0.00353         *
 * H               7     -0.00588             -0.00588              0.00353         *
 * H               8      0.00604              0.00515             -0.00353         *
 *                                                                                  *
 ************************************************************************************

 *********** Symmetrised Stress Tensor ***********
 *                                               *
 *          Cartesian components (GPa)           *
 * --------------------------------------------- *
 *             x             y             z     *
 *                                               *
 *  x    -80.055869      0.000000      0.000000  *
 *  y      0.000000    -80.070621      0.000000  *
 *  z      0.000000      0.000000    -79.919025  *
 *                                               *
 *  Pressure:   80.0152                          *
 *                                               *
 *************************************************
  
 +------------+-------------+-------------+-----------------+ <-- min LBFGS
 |    Step    |   lambda    |   F.delta'  |    enthalpy     | <-- min LBFGS
 +------------+-------------+-------------+-----------------+ <-- min LBFGS
 |  previous  |    0.000000 |    0.001374 |     -111.963051 | <-- min LBFGS
 | trial step |    1.000000 |    0.000927 |     -111.963063 | <-- min LBFGS
 |  line step |    3.074497 |  3.997E-006 |     -111.963073 | <-- min LBFGS
 +------------+-------------+-------------+-----------------+ <-- min LBFGS
  
 LBFGS: finished iteration     4 with enthalpy= -1.11963073E+002 eV
  
 +-----------+-----------------+-----------------+------------+-----+ <-- LBFGS
 | Parameter |      value      |    tolerance    |    units   | OK? | <-- LBFGS
 +-----------+-----------------+-----------------+------------+-----+ <-- LBFGS
 |  dE/ion   |   2.793205E-006 |   1.000000E-009 |         eV | No  | <-- LBFGS
 |  |F|max   |   9.034730E-003 |   1.000000E-005 |       eV/A | No  | <-- LBFGS
 |  |dR|max  |   8.545261E-004 |   1.000000E-005 |          A | No  | <-- LBFGS
 |   Smax    |   8.097498E-002 |   1.000000E-005 |        GPa | No  | <-- LBFGS
 +-----------+-----------------+-----------------+------------+-----+ <-- LBFGS
  

================================================================================
 Starting LBFGS iteration          5 ...
================================================================================
  
 +------------+-------------+-------------+-----------------+ <-- min LBFGS
 |    Step    |   lambda    |   F.delta'  |    enthalpy     | <-- min LBFGS
 +------------+-------------+-------------+-----------------+ <-- min LBFGS
 |  previous  |    0.000000 |    0.001167 |     -111.963073 | <-- min LBFGS
 +------------+-------------+-------------+-----------------+ <-- min LBFGS
  

--------------------------------------------------------------------------------
 LBFGS: starting iteration         5 with trial guess (lambda=  1.000000)
--------------------------------------------------------------------------------

                           -------------------------------
                                      Unit Cell
                           -------------------------------
        Real Lattice(A)              Reciprocal Lattice(1/A)
     3.3506664     0.0000000     0.0000000        1.875204704   0.000000000   0.000000000
     0.0000000     1.9463943     0.0000000        0.000000000   3.228115370   0.000000000
     0.0000000     0.0000000     3.0905985        0.000000000   0.000000000   2.032999531

                       Lattice parameters(A)       Cell Angles
                    a =      3.350666          alpha =   90.000000
                    b =      1.946394          beta  =   90.000000
                    c =      3.090599          gamma =   90.000000

                Current cell volume =            20.156011 A**3

                           -------------------------------
                                     Cell Contents
                           -------------------------------

            xxxxxxxxxxxxxxxxxxxxxxxxxxxxxxxxxxxxxxxxxxxxxxxxxxxxxxxxxxxxxxxxx
            x  Element         Atom        Fractional coordinates of atoms  x
            x                 Number           u          v          w      x
            x---------------------------------------------------------------x
            x  H                 1         0.351582   0.134119   0.377680   x
            x  H                 2         0.481768   0.364807   0.501221   x
            x  H                 3         0.981768   0.635193   0.501221   x
            x  H                 4         0.851582   0.865881   0.377680   x
            x  H                 5         0.018232   0.364807   0.001221   x
            x  H                 6         0.148418   0.134119   0.877680   x
            x  H                 7         0.518232   0.635193   0.001221   x
            x  H                 8         0.648418   0.865881   0.877680   x
            xxxxxxxxxxxxxxxxxxxxxxxxxxxxxxxxxxxxxxxxxxxxxxxxxxxxxxxxxxxxxxxxx


------------------------------------------------------------------------ <-- SCF
SCF loop      Energy                           Energy gain       Timer   <-- SCF
                                               per atom          (sec)   <-- SCF
------------------------------------------------------------------------ <-- SCF
Initial  -1.22027363E+002                                        176.00  <-- SCF
      1  -1.22027397E+002                    4.13153101E-006     177.64  <-- SCF
      2  -1.22027397E+002                    1.12034172E-008     179.72  <-- SCF
      3  -1.22027396E+002                   -5.93399831E-008     181.84  <-- SCF
      4  -1.22027396E+002                    6.16842222E-011     183.93  <-- SCF
      5  -1.22027396E+002                    6.16842222E-011     185.61  <-- SCF
      6  -1.22027396E+002                    6.02401503E-012     187.21  <-- SCF
      7  -1.22027396E+002                    1.93348527E-013     188.78  <-- SCF
------------------------------------------------------------------------ <-- SCF
 
Final energy =  -122.0273961460     eV
(energy not corrected for finite basis set)
 

 ******************************** Symmetrised Forces ********************************
 *                                                                                  *
 *                           Cartesian components (eV/A)                            *
 * -------------------------------------------------------------------------------- *
 *                         x                    y                    z              *
 *                                                                                  *
 * H               1     -0.00273             -0.00142             -0.00077         *
 * H               2      0.00253              0.00284              0.00077         *
 * H               3      0.00253             -0.00284              0.00077         *
 * H               4     -0.00273              0.00142             -0.00077         *
 * H               5     -0.00253              0.00284              0.00077         *
 * H               6      0.00273             -0.00142             -0.00077         *
 * H               7     -0.00253             -0.00284              0.00077         *
 * H               8      0.00273              0.00142             -0.00077         *
 *                                                                                  *
 ************************************************************************************

 *********** Symmetrised Stress Tensor ***********
 *                                               *
 *          Cartesian components (GPa)           *
 * --------------------------------------------- *
 *             x             y             z     *
 *                                               *
 *  x    -80.013889      0.000000      0.000000  *
 *  y      0.000000    -80.031247      0.000000  *
 *  z      0.000000      0.000000    -79.967793  *
 *                                               *
 *  Pressure:   80.0043                          *
 *                                               *
 *************************************************
  
 +------------+-------------+-------------+-----------------+ <-- min LBFGS
 |    Step    |   lambda    |   F.delta'  |    enthalpy     | <-- min LBFGS
 +------------+-------------+-------------+-----------------+ <-- min LBFGS
 |  previous  |    0.000000 |    0.001167 |     -111.963073 | <-- min LBFGS
 | trial step |    1.000000 |    0.000519 |     -111.963082 | <-- min LBFGS
 +------------+-------------+-------------+-----------------+ <-- min LBFGS
  

--------------------------------------------------------------------------------
 LBFGS: improving iteration         5 with line minimization (lambda=  1.800846)
--------------------------------------------------------------------------------

                           -------------------------------
                                      Unit Cell
                           -------------------------------
        Real Lattice(A)              Reciprocal Lattice(1/A)
     3.3507941     0.0000000     0.0000000        1.875133201   0.000000000   0.000000000
     0.0000000     1.9464634     0.0000000        0.000000000   3.228000727   0.000000000
     0.0000000     0.0000000     3.0899994        0.000000000   0.000000000   2.033393691

                       Lattice parameters(A)       Cell Angles
                    a =      3.350794          alpha =   90.000000
                    b =      1.946463          beta  =   90.000000
                    c =      3.089999          gamma =   90.000000

                Current cell volume =            20.153588 A**3

                           -------------------------------
                                     Cell Contents
                           -------------------------------

            xxxxxxxxxxxxxxxxxxxxxxxxxxxxxxxxxxxxxxxxxxxxxxxxxxxxxxxxxxxxxxxxx
            x  Element         Atom        Fractional coordinates of atoms  x
            x                 Number           u          v          w      x
            x---------------------------------------------------------------x
            x  H                 1         0.351538   0.134039   0.377717   x
            x  H                 2         0.481818   0.364800   0.501183   x
            x  H                 3         0.981818   0.635200   0.501183   x
            x  H                 4         0.851538   0.865961   0.377717   x
[...]
            x  H                 8         0.648728   0.865907   0.878126   x
            xxxxxxxxxxxxxxxxxxxxxxxxxxxxxxxxxxxxxxxxxxxxxxxxxxxxxxxxxxxxxxxxx


------------------------------------------------------------------------ <-- SCF
SCF loop      Energy                           Energy gain       Timer   <-- SCF
                                               per atom          (sec)   <-- SCF
------------------------------------------------------------------------ <-- SCF
Initial  -1.22026264E+002                                        403.78  <-- SCF
      1  -1.22026264E+002                    1.40184026E-009     405.37  <-- SCF
      2  -1.22026264E+002                    1.95463276E-012     407.00  <-- SCF
      3  -1.22026264E+002                   -1.89602399E-011     408.59  <-- SCF
      4  -1.22026264E+002                   -1.35948183E-013     410.17  <-- SCF
      5  -1.22026264E+002                    0.00000000E+000     411.74  <-- SCF
------------------------------------------------------------------------ <-- SCF
 
Final energy =  -122.0262638801     eV
(energy not corrected for finite basis set)
 

 ******************************** Symmetrised Forces ********************************
 *                                                                                  *
 *                           Cartesian components (eV/A)                            *
 * -------------------------------------------------------------------------------- *
 *                         x                    y                    z              *
 *                                                                                  *
 * H               1     -0.00000              0.00000             -0.00000         *
 * H               2      0.00000              0.00000              0.00000         *
 * H               3      0.00000             -0.00000              0.00000         *
 * H               4     -0.00000             -0.00000             -0.00000         *
 * H               5     -0.00000              0.00000              0.00000         *
 * H               6      0.00000              0.00000             -0.00000         *
 * H               7     -0.00000             -0.00000              0.00000         *
 * H               8      0.00000             -0.00000             -0.00000         *
 *                                                                                  *
 ************************************************************************************

 *********** Symmetrised Stress Tensor ***********
 *                                               *
 *          Cartesian components (GPa)           *
 * --------------------------------------------- *
 *             x             y             z     *
 *                                               *
 *  x    -80.000064      0.000000      0.000000  *
 *  y      0.000000    -79.999977      0.000000  *
 *  z      0.000000      0.000000    -79.999961  *
 *                                               *
 *  Pressure:   80.0000                          *
 *                                               *
 *************************************************
  
 +------------+-------------+-------------+-----------------+ <-- min LBFGS
 |    Step    |   lambda    |   F.delta'  |    enthalpy     | <-- min LBFGS
 +------------+-------------+-------------+-----------------+ <-- min LBFGS
 |  previous  |    0.000000 |  3.494E-006 |     -111.963092 | <-- min LBFGS
 | trial step |    1.000000 |  2.250E-006 |     -111.963092 | <-- min LBFGS
 |  line step |    2.807677 |  3.443E-007 |     -111.963092 | <-- min LBFGS
 +------------+-------------+-------------+-----------------+ <-- min LBFGS
  
 LBFGS: finished iteration    14 with enthalpy= -1.11963092E+002 eV
  
 +-----------+-----------------+-----------------+------------+-----+ <-- LBFGS
 | Parameter |      value      |    tolerance    |    units   | OK? | <-- LBFGS
 +-----------+-----------------+-----------------+------------+-----+ <-- LBFGS
 |  dE/ion   |   3.098350E-010 |   1.000000E-009 |         eV | Yes | <-- LBFGS
 |  |F|max   |   3.151042E-006 |   1.000000E-005 |       eV/A | Yes | <-- LBFGS
 |  |dR|max  |   5.957352E-006 |   1.000000E-005 |          A | Yes | <-- LBFGS
 |   Smax    |   6.410907E-005 |   1.000000E-005 |        GPa | No  | <-- LBFGS
 +-----------+-----------------+-----------------+------------+-----+ <-- LBFGS
  

================================================================================
 Starting LBFGS iteration         15 ...
================================================================================
  
 +------------+-------------+-------------+-----------------+ <-- min LBFGS
 |    Step    |   lambda    |   F.delta'  |    enthalpy     | <-- min LBFGS
 +------------+-------------+-------------+-----------------+ <-- min LBFGS
 |  previous  |    0.000000 |  5.589E-007 |     -111.963092 | <-- min LBFGS
 +------------+-------------+-------------+-----------------+ <-- min LBFGS
  

--------------------------------------------------------------------------------
 LBFGS: starting iteration        15 with trial guess (lambda=  1.000000)
--------------------------------------------------------------------------------

                           -------------------------------
                                      Unit Cell
                           -------------------------------
        Real Lattice(A)              Reciprocal Lattice(1/A)
     3.3504602     0.0000000     0.0000000        1.875320076   0.000000000   0.000000000
     0.0000000     1.9465684     0.0000000        0.000000000   3.227826598   0.000000000
     0.0000000     0.0000000     3.0901614        0.000000000   0.000000000   2.033287121

                       Lattice parameters(A)       Cell Angles
                    a =      3.350460          alpha =   90.000000
                    b =      1.946568          beta  =   90.000000
                    c =      3.090161          gamma =   90.000000

                Current cell volume =            20.153724 A**3

                           -------------------------------
                                     Cell Contents
                           -------------------------------

            xxxxxxxxxxxxxxxxxxxxxxxxxxxxxxxxxxxxxxxxxxxxxxxxxxxxxxxxxxxxxxxxx
            x  Element         Atom        Fractional coordinates of atoms  x
            x                 Number           u          v          w      x
            x---------------------------------------------------------------x
            x  H                 1         0.351271   0.134094   0.378126   x
            x  H                 2         0.482148   0.364932   0.500774   x
            x  H                 3         0.982148   0.635068   0.500774   x
            x  H                 4         0.851271   0.865906   0.378126   x
            x  H                 5         0.017852   0.364932   0.000774   x
            x  H                 6         0.148729   0.134094   0.878126   x
            x  H                 7         0.517852   0.635068   0.000774   x
            x  H                 8         0.648729   0.865906   0.878126   x
            xxxxxxxxxxxxxxxxxxxxxxxxxxxxxxxxxxxxxxxxxxxxxxxxxxxxxxxxxxxxxxxxx


------------------------------------------------------------------------ <-- SCF
SCF loop      Energy                           Energy gain       Timer   <-- SCF
                                               per atom          (sec)   <-- SCF
------------------------------------------------------------------------ <-- SCF
Initial  -1.22026264E+002                                        413.96  <-- SCF
      1  -1.22026264E+002                    2.76382656E-010     415.52  <-- SCF
      2  -1.22026264E+002                    2.38664588E-013     417.17  <-- SCF
      3  -1.22026264E+002                    5.31406341E-012     418.75  <-- SCF
      4  -1.22026264E+002                    1.05737476E-013     420.32  <-- SCF
------------------------------------------------------------------------ <-- SCF
 
Final energy =  -122.0262635633     eV
(energy not corrected for finite basis set)
 

 ******************************** Symmetrised Forces ********************************
 *                                                                                  *
 *                           Cartesian components (eV/A)                            *
 * -------------------------------------------------------------------------------- *
 *                         x                    y                    z              *
 *                                                                                  *
 * H               1     -0.00000              0.00000              0.00000         *
 * H               2      0.00000             -0.00000             -0.00000         *
 * H               3      0.00000              0.00000             -0.00000         *
 * H               4     -0.00000             -0.00000              0.00000         *
 * H               5     -0.00000             -0.00000             -0.00000         *
 * H               6      0.00000              0.00000              0.00000         *
 * H               7     -0.00000              0.00000             -0.00000         *
 * H               8      0.00000             -0.00000              0.00000         *
 *                                                                                  *
 ************************************************************************************

 *********** Symmetrised Stress Tensor ***********
 *                                               *
 *          Cartesian components (GPa)           *
 * --------------------------------------------- *
 *             x             y             z     *
 *                                               *
 *  x    -80.000009      0.000000      0.000000  *
 *  y      0.000000    -79.999996      0.000000  *
 *  z      0.000000      0.000000    -79.999993  *
 *                                               *
 *  Pressure:   80.0000                          *
 *                                               *
 *************************************************
  
 +------------+-------------+-------------+-----------------+ <-- min LBFGS
 |    Step    |   lambda    |   F.delta'  |    enthalpy     | <-- min LBFGS
 +------------+-------------+-------------+-----------------+ <-- min LBFGS
 |  previous  |    0.000000 |  5.589E-007 |     -111.963092 | <-- min LBFGS
 | trial step |    1.000000 |  1.742E-007 |     -111.963092 | <-- min LBFGS
 +------------+-------------+-------------+-----------------+ <-- min LBFGS
  
 LBFGS: finished iteration    15 with enthalpy= -1.11963092E+002 eV
  
 +-----------+-----------------+-----------------+------------+-----+ <-- LBFGS
 | Parameter |      value      |    tolerance    |    units   | OK? | <-- LBFGS
 +-----------+-----------------+-----------------+------------+-----+ <-- LBFGS
 |  dE/ion   |   2.628029E-011 |   1.000000E-009 |         eV | Yes | <-- LBFGS
 |  |F|max   |   1.104413E-006 |   1.000000E-005 |       eV/A | Yes | <-- LBFGS
 |  |dR|max  |   2.964860E-006 |   1.000000E-005 |          A | Yes | <-- LBFGS
 |   Smax    |   8.933793E-006 |   1.000000E-005 |        GPa | Yes | <-- LBFGS
 +-----------+-----------------+-----------------+------------+-----+ <-- LBFGS
  
 LBFGS: Geometry optimization completed successfully.

================================================================================
 LBFGS: Final Configuration:
================================================================================

                           -------------------------------
                                      Unit Cell
                           -------------------------------
        Real Lattice(A)              Reciprocal Lattice(1/A)
     3.3504602     0.0000000     0.0000000        1.875320076   0.000000000   0.000000000
     0.0000000     1.9465684     0.0000000        0.000000000   3.227826598   0.000000000
     0.0000000     0.0000000     3.0901614        0.000000000   0.000000000   2.033287121

                       Lattice parameters(A)       Cell Angles
                    a =      3.350460          alpha =   90.000000
                    b =      1.946568          beta  =   90.000000
                    c =      3.090161          gamma =   90.000000

                Current cell volume =            20.153724 A**3

                           -------------------------------
                                     Cell Contents
                           -------------------------------

            xxxxxxxxxxxxxxxxxxxxxxxxxxxxxxxxxxxxxxxxxxxxxxxxxxxxxxxxxxxxxxxxx
            x  Element         Atom        Fractional coordinates of atoms  x
            x                 Number           u          v          w      x
            x---------------------------------------------------------------x
            x  H                 1         0.351271   0.134094   0.378126   x
            x  H                 2         0.482148   0.364932   0.500774   x
            x  H                 3         0.982148   0.635068   0.500774   x
            x  H                 4         0.851271   0.865906   0.378126   x
            x  H                 5         0.017852   0.364932   0.000774   x
            x  H                 6         0.148729   0.134094   0.878126   x
            x  H                 7         0.517852   0.635068   0.000774   x
            x  H                 8         0.648729   0.865906   0.878126   x
            xxxxxxxxxxxxxxxxxxxxxxxxxxxxxxxxxxxxxxxxxxxxxxxxxxxxxxxxxxxxxxxxx


 LBFGS: Final Enthalpy     = -1.11963092E+002 eV
 LBFGS: Final <frequency>  =    1335.56395 cm-1
 LBFGS: Final bulk modulus =     209.37428 GPa

 ******************************** Symmetrised Forces ********************************
 *                                                                                  *
 *                           Cartesian components (eV/A)                            *
 * -------------------------------------------------------------------------------- *
 *                         x                    y                    z              *
 *                                                                                  *
 * H               1     -0.00000              0.00000              0.00000         *
 * H               2      0.00000             -0.00000             -0.00000         *
 * H               3      0.00000              0.00000             -0.00000         *
 * H               4     -0.00000             -0.00000              0.00000         *
 * H               5     -0.00000             -0.00000             -0.00000         *
 * H               6      0.00000              0.00000              0.00000         *
 * H               7     -0.00000              0.00000             -0.00000         *
 * H               8      0.00000             -0.00000              0.00000         *
 *                                                                                  *
 ************************************************************************************

 *********** Symmetrised Stress Tensor ***********
 *                                               *
 *          Cartesian components (GPa)           *
 * --------------------------------------------- *
 *             x             y             z     *
 *                                               *
 *  x    -80.000009      0.000000      0.000000  *
 *  y      0.000000    -79.999996      0.000000  *
 *  z      0.000000      0.000000    -79.999993  *
 *                                               *
 *  Pressure:   80.0000                          *
 *                                               *
 *************************************************

 Pseudo atomic calculation performed for H 1s1

 Converged in 24 iterations to a total energy of -12.4855 eV

Charge spilling parameter for spin component 1 = 0.57%

            Orbital Populations       
     Ion    Atom   Orbital             Charge
  -------------------------------------------
      H     1      S                    0.998
      H     2      S                    1.001
      H     3      S                    1.000
      H     4      S                    1.000
      H     5      S                    0.999
      H     6      S                    1.001
      H     7      S                    1.003
      H     8      S                    0.998
  -------------------------------------------
                           Total:       8.000
  -------------------------------------------

     Atomic Populations (Mulliken)
     -----------------------------
Species          Ion     s      p      d      f     Total  Charge (e)
=====================================================================
  H               1     1.00   0.00   0.00   0.00   1.00     0.00
  H               2     1.00   0.00   0.00   0.00   1.00    -0.00
  H               3     1.00   0.00   0.00   0.00   1.00    -0.00
  H               4     1.00   0.00   0.00   0.00   1.00     0.00
  H               5     1.00   0.00   0.00   0.00   1.00    -0.00
  H               6     1.00   0.00   0.00   0.00   1.00     0.00
  H               7     1.00   0.00   0.00   0.00   1.00    -0.00
  H               8     1.00   0.00   0.00   0.00   1.00     0.00
=====================================================================

                 Bond                   Population      Length (A)
======================================================================
               H 5 -- H 6                    1.40        0.73337
               H 7 -- H 8                    1.40        0.73337
               H 3 -- H 4                    1.40        0.73337
               H 1 -- H 2                    1.40        0.73337
               H 4 -- H 5                   -0.28        1.61704
               H 1 -- H 7                   -0.28        1.61704
               H 2 -- H 8                   -0.28        1.61704
               H 3 -- H 6                   -0.28        1.61704
               H 1 -- H 3                   -0.25        1.61764
               H 5 -- H 8                   -0.25        1.61764
               H 2 -- H 4                   -0.25        1.61764
               H 6 -- H 7                   -0.25        1.61764
               H 3 -- H 5                   -0.24        1.63649
               H 2 -- H 7                   -0.24        1.63649
               H 1 -- H 5                   -0.13        1.67618
               H 4 -- H 7                   -0.13        1.67618
               H 3 -- H 8                   -0.13        1.67618
               H 2 -- H 6                   -0.13        1.67618
               H 1 -- H 6                   -0.07        1.68754
               H 4 -- H 8                   -0.07        1.68754
               H 1 -- H 4                   -0.36        1.75469
               H 6 -- H 8                   -0.36        1.75469
               H 5 -- H 7                   -0.24        1.75582
               H 2 -- H 3                   -0.24        1.75582
               H 4 -- H 6                   -0.34        1.91130
               H 1 -- H 8                   -0.34        1.91130
======================================================================


Writing analysis data to Pca21.castep_bin

Writing model to Pca21.check
 
 A BibTeX formatted list of references used in this run has been written to 
 Pca21.bib
 
Initialisation time =      3.44 s
Calculation time    =    420.01 s
Finalisation time   =      2.42 s
Total time          =    425.87 s
Peak Memory Use     = 544308 kB
  
Overall parallel efficiency rating: Very good (80%)                             
  
Data was distributed by:-
k-point (32-way); efficiency rating: Very good (80%)                            
  
Parallel notes:
1) Calculation only took 423.5 s, so efficiency estimates may be inaccurate.    
