 +-------------------------------------------------+
 |                                                 |
 |      CCC   AA    SSS  TTTTT  EEEEE  PPPP        |
 |     C     A  A  S       T    E      P   P       |
 |     C     AAAA   SS     T    EEE    PPPP        |
 |     C     A  A     S    T    E      P           |
 |      CCC  A  A  SSS     T    EEEEE  P           |
 |                                                 |
 +-------------------------------------------------+
 |                                                 |
 | Welcome to Academic Release CASTEP version 18.1 |          
 | Ab Initio Total Energy Program                  |
 |                                                 |
 | Authors:                                        |
 | M. Segall, M. Probert, C. Pickard, P. Hasnip,   |
 | S. Clark, K. Refson, J. R. Yates, M. Payne      |
 |                                                 |
 | Contributors:                                   |
 | P. Lindan, P. Haynes, J. White, V. Milman,      |
 | N. Govind, M. Gibson, P. Tulip, V. Cocula,      |
 | B. Montanari, D. Quigley, M. Glover,            |
 | L. Bernasconi, A. Perlov, M. Plummer,           |
 | E. McNellis, J. Meyer, J. Gale, D. Jochym       |
 | J. Aarons, B. Walker, R. Gillen, D. Jones       |
 | T. Green, I. J. Bush, C. J. Armstrong,          |
 | E. J. Higgins, E. L. Brown, M. S. McFly,        |
 | J. Wilkins, B-C. Shih, P. J. P. Byrne           |
 |                                                 |
 | Copyright (c) 2000 - 2017                       |
 |                                                 |
 |     Distributed under the terms of an           |
 |     Agreement between the United Kingdom        |
 |     Car-Parrinello (UKCP) Consortium,           |
 |     Daresbury Laboratory and Accelrys, Inc.     |
 |                                                 |
 | Please cite                                     |
 |                                                 |
 |     "First principles methods using CASTEP"     |
 |                                                 |
 |         Zeitschrift fuer Kristallographie       |
 |           220(5-6) pp. 567-570 (2005)           |
 |                                                 |
 | S. J. Clark, M. D. Segall, C. J. Pickard,       |
 | P. J. Hasnip, M. J. Probert, K. Refson,         |
 | M. C. Payne                                     |
 |                                                 |
 |       in all publications arising from          |
 |              your use of CASTEP                 |
 |                                                 |
 +-------------------------------------------------+


 Compiled for linux_x86_64_gfortran4.8 on Thu, 19 Jul 2018 15:42:32 +0100
 from code version 70483bd0ad64+  Sun, 10 Dec 2017 12:18:29 +0000
 Compiler: GNU Fortran 4.8.5; Optimisation: fast
 MATHLIBS: Intel MKL(2018.0.0) (LAPACK version 3.7.0)
 FFT Lib : mkl
 Fundamental constants values: CODATA 2014

 Run started: Sun, 30 Aug 2020 22:35:05 +0100

 Atomic calculation performed for H: 1s1

 Converged in 41 iterations to an ae energy of -12.488 eV

   ============================================================                
   | Pseudopotential Report - Date of generation 30-08-2020   |                
   ------------------------------------------------------------                
   | Element: H Ionic charge:  1.00 Level of theory: PBE      |                
   | Atomic Solver: Koelling-Harmon                           |                
   |                                                          |                
   |               Reference Electronic Structure             |                
   |         Orbital         Occupation         Energy        |                
   |            1s              1.000           -0.239        |                
   |                                                          |                
   |                 Pseudopotential Definition               |                
   |        Beta     l      e      Rc     scheme   norm       |                
   |         loc     0   -0.239   0.702     qc      1         |                
   |                                                          |                
   | No charge augmentation                                   |                
   | No partial core correction                               |                
   ------------------------------------------------------------                
   | "0|0.7|2|6|8|10L(qc=10)"                                 |                
   ------------------------------------------------------------                
   |      Author: Chris J. Pickard, Cambridge University      |                
   ============================================================                

 Pseudo atomic calculation performed for H 1s1

 Converged in 24 iterations to a total energy of -12.4855 eV

 Calculation parallelised over 32 processes.
 Data is distributed by k-point(32-way)

 ************************************ Title ************************************
 

 ***************************** General Parameters ******************************
  
 output verbosity                               : normal  (1)
 write checkpoint data to                       : Pca21.check
 type of calculation                            : geometry optimization
 stress calculation                             : on
 density difference calculation                 : off
 electron localisation func (ELF) calculation   : off
 Hirshfeld analysis                             : off
 unlimited duration calculation
 timing information                             : on
 memory usage estimate                          : on
 write extra output files                       : on
 write final potential to formatted file        : off
 write final density to formatted file          : off
 write structure in CELL formatted file         : on
 write BibTeX reference list                    : on
 write OTFG pseudopotential files               : on
 write electrostatic potential file             : on
 write bands file                               : on
 checkpoint writing                             : both castep_bin and check files
  
 output         length unit                     : A
 output           mass unit                     : amu
 output           time unit                     : ps
 output         charge unit                     : e
 output           spin unit                     : hbar/2
 output         energy unit                     : eV
 output          force unit                     : eV/A
 output       velocity unit                     : A/ps
 output       pressure unit                     : GPa
 output     inv_length unit                     : 1/A
 output      frequency unit                     : cm-1
 output force constant unit                     : eV/A**2
 output         volume unit                     : A**3
 output   IR intensity unit                     : (D/A)**2/amu
 output         dipole unit                     : D
 output         efield unit                     : eV/A/e
 output        entropy unit                     : J/mol/K
  
 wavefunctions paging                           : none
 random number generator seed                   : randomised (223506393)
 data distribution                              : optimal for this architecture
 optimization strategy                          : maximize speed(+++)

 *********************** Exchange-Correlation Parameters ***********************
  
 using functional                               : Perdew Burke Ernzerhof
 relativistic treatment                         : Koelling-Harmon
 DFT+D: Semi-empirical dispersion correction    : off

 ************************* Pseudopotential Parameters **************************
  
 pseudopotential representation                 : reciprocal space
 <beta|phi> representation                      : reciprocal space
 spin-orbit coupling                            : off

 **************************** Basis Set Parameters *****************************
  
 plane wave basis set cut-off                   :  1600.0000   eV
 size of standard grid                          :     2.0000
 size of   fine   gmax                          :    40.9853   1/A
 finite basis set correction                    : automatic
 number of sample energies                      :          3
           sample  spacing                      :     5.0000   eV

 **************************** Electronic Parameters ****************************
  
 number of  electrons                           :  8.000    
 net charge of system                           :  0.000    
 treating system as non-spin-polarized
 number of bands                                :          4

 ********************* Electronic Minimization Parameters **********************
  
 Method: Treating system as non-metallic,
         and number of  SD  steps               :          1
         and number of  CG  steps               :          4
  
 total energy / atom convergence tol.           : 0.1000E-10   eV
 eigen-energy convergence tolerance             : 0.2000E-10   eV
 max force / atom convergence tol.              : ignored
 convergence tolerance window                   :          3   cycles
 max. number of SCF cycles                      :        200
 periodic dipole correction                     : NONE

 ************************** Density Mixing Parameters **************************
  
 density-mixing scheme                          : Broyden
 max. length of mixing history                  :         20
 charge density mixing amplitude                : 0.8000    
 cut-off energy for mixing                      :  1600.       eV

 *********************** Population Analysis Parameters ************************
  
 Population analysis with cutoff                :  3.000       A
 Population analysis output                     : summary and pdos components

 ********************** Geometry Optimization Parameters ***********************
  
 optimization method                            : LBFGS
 max. no. of LBFGS updates                      : unbounded
 variable cell method                           : fixed basis quality
 max. number of steps                           :        200
 estimated bulk modulus                         :  500.0       GPa
 estimated <frequency>                          :  1668.       cm-1
 geom line minimiser                            : on
 with line minimiser tolerance                  :     0.4000
 total energy convergence tolerance             : 0.1000E-08   eV/atom
        max ionic |force| tolerance             : 0.1000E-04   eV/A
 max ionic |displacement| tolerance             : 0.1000E-04   A
   max |stress component| tolerance             : 0.1000E-04   GPa
 convergence tolerance window                   :          2   steps
 backup results every                           : 2147483647   steps
 write geom trajectory file                     : on

 *******************************************************************************
  

                           -------------------------------
                                      Unit Cell
                           -------------------------------
        Real Lattice(A)                      Reciprocal Lattice(1/A)
     3.7624536     0.0000000     0.0000000        1.669970172   0.000000000   0.000000000
     0.0000000     2.1851181     0.0000000        0.000000000   2.875444303   0.000000000
     0.0000000     0.0000000     3.5065437        0.000000000   0.000000000   1.791845727

                       Lattice parameters(A)       Cell Angles
                    a =      3.762454          alpha =   90.000000
                    b =      2.185118          beta  =   90.000000
                    c =      3.506544          gamma =   90.000000

                       Current cell volume =            28.828717       A**3
                                   density =             0.279704   AMU/A**3
                                           =             0.464460     g/cm^3

                           -------------------------------
                                     Cell Contents
                           -------------------------------
                         Total number of ions in cell =    8
                      Total number of species in cell =    1
                        Max number of any one species =    8

            xxxxxxxxxxxxxxxxxxxxxxxxxxxxxxxxxxxxxxxxxxxxxxxxxxxxxxxxxxxx
            x  Element    Atom        Fractional coordinates of atoms  x
            x            Number           u          v          w      x
            x----------------------------------------------------------x
            x  H            1         0.359991   0.148972   0.381590   x 
            x  H            2         0.472738   0.354748   0.497310   x 
            x  H            3         0.972738   0.645252   0.497310   x 
            x  H            4         0.859991   0.851028   0.381590   x 
            x  H            5         0.027262   0.354748  -0.002690   x 
            x  H            6         0.140009   0.148972   0.881590   x 
            x  H            7         0.527262   0.645252  -0.002690   x 
            x  H            8         0.640009   0.851028   0.881590   x 
            xxxxxxxxxxxxxxxxxxxxxxxxxxxxxxxxxxxxxxxxxxxxxxxxxxxxxxxxxxxx


                         No user defined ionic velocities

                           -------------------------------
                                   Details of Species
                           -------------------------------

                               Mass of species in AMU
                                    H    1.0078250

                          Electric Quadrupole Moment (Barn)
                                    H    0.0028600 Isotope  2

                          Files used for pseudopotentials:
                                    H 0|0.7|2|6|8|10L(qc=10)

                           -------------------------------
                              k-Points For BZ Sampling
                           -------------------------------
                       MP grid size for SCF calculation is 15 15 15
                            with an offset of   0.000  0.000  0.000
                       Number of kpoints used =           512

                           -------------------------------
                               Symmetry and Constraints
                           -------------------------------

                      Maximum deviation from symmetry = 0.375945E-14     ANG

                      Number of symmetry operations   =           4
                      Number of ionic constraints     =           3
                      Point group of crystal =     6: C2v, mm2, 2 mm
                      Space group of crystal =    29: Pca2_1, P 2c -2ac

             Set iprint > 1 for details on symmetry rotations/translations

                         Centre of mass is constrained
             Set iprint > 1 for details of linear ionic constraints

                         Number of cell constraints= 3
                         Cell constraints are:  1 2 3 0 0 0

                         External pressure/stress (GPa)
                         40.00000   0.00000   0.00000
                                   40.00000   0.00000
                                             40.00000
  
+---------------- MEMORY AND SCRATCH DISK ESTIMATES PER PROCESS --------------+
|                                                     Memory          Disk    |
| Baseline code, static data and system overhead      476.0 MB         0.0 MB |
| BLAS internal memory storage                          0.0 MB         0.0 MB |
| Model and support data                               34.3 MB         0.0 MB |
| Electronic energy minimisation requirements          24.2 MB         0.0 MB |
| Force calculation requirements                        8.2 MB         0.0 MB |
| Stress calculation requirements                      10.4 MB         0.0 MB |
|                                               ----------------------------- |
| Approx. total storage required per process          534.4 MB         0.0 MB |
|                                                                             |
| Requirements will fluctuate during execution and may exceed these estimates |
+-----------------------------------------------------------------------------+
Calculating finite basis set correction with  3 cut-off energies.
Calculating total energy with cut-off of 1590.000 eV.
------------------------------------------------------------------------ <-- SCF
SCF loop      Energy                           Energy gain       Timer   <-- SCF
                                               per atom          (sec)   <-- SCF
------------------------------------------------------------------------ <-- SCF
Initial   2.13123217E+002                                          4.47  <-- SCF
      1  -9.85728832E+001                    3.89620125E+001       7.01  <-- SCF
      2  -1.25582522E+002                    3.37620484E+000       8.74  <-- SCF
      3  -1.25740669E+002                    1.97683790E-002      10.13  <-- SCF
      4  -1.24752029E+002                   -1.23579975E-001      12.80  <-- SCF
      5  -1.24725401E+002                   -3.32847877E-003      15.35  <-- SCF
      6  -1.24727370E+002                    2.46048589E-004      18.07  <-- SCF
      7  -1.24727612E+002                    3.03013716E-005      20.83  <-- SCF
      8  -1.24727613E+002                    1.24386696E-007      23.51  <-- SCF
      9  -1.24727613E+002                    1.40259402E-008      26.24  <-- SCF
     10  -1.24727613E+002                   -4.73401783E-012      28.41  <-- SCF
     11  -1.24727613E+002                    8.76110512E-012      30.43  <-- SCF
------------------------------------------------------------------------ <-- SCF
 
Final energy =  -124.7276131770     eV
(energy not corrected for finite basis set)
 
Calculating total energy with cut-off of 1595.000 eV.
------------------------------------------------------------------------ <-- SCF
SCF loop      Energy                           Energy gain       Timer   <-- SCF
                                               per atom          (sec)   <-- SCF
------------------------------------------------------------------------ <-- SCF
Initial  -1.24727613E+002                                         31.83  <-- SCF
      1  -1.24727628E+002                    1.81611377E-006      33.86  <-- SCF
      2  -1.24727628E+002                    1.61325177E-012      35.87  <-- SCF
      3  -1.24727628E+002                    7.57729855E-010      37.88  <-- SCF
      4  -1.24727628E+002                    5.53701843E-011      39.88  <-- SCF
      5  -1.24727628E+002                    7.00888409E-013      41.93  <-- SCF
      6  -1.24727628E+002                    0.00000000E+000      43.96  <-- SCF
------------------------------------------------------------------------ <-- SCF
 
Final energy =  -124.7276277124     eV
(energy not corrected for finite basis set)
 
Calculating total energy with cut-off of 1600.000 eV.
------------------------------------------------------------------------ <-- SCF
SCF loop      Energy                           Energy gain       Timer   <-- SCF
                                               per atom          (sec)   <-- SCF
------------------------------------------------------------------------ <-- SCF
Initial  -1.24727628E+002                                         45.47  <-- SCF
      1  -1.24727641E+002                    1.69084249E-006      47.50  <-- SCF
      2  -1.24727641E+002                    1.90629563E-012      49.51  <-- SCF
      3  -1.24727641E+002                    7.08132937E-010      51.53  <-- SCF
      4  -1.24727641E+002                    5.11588117E-011      53.53  <-- SCF
      5  -1.24727641E+002                    7.06930551E-013      55.50  <-- SCF
      6  -1.24727641E+002                    2.17517093E-013      57.65  <-- SCF
------------------------------------------------------------------------ <-- SCF
 
Final energy =  -124.7276412452     eV
(energy not corrected for finite basis set)
 
 For future reference: finite basis dEtot/dlog(Ecut) =      -0.004485eV
 Total energy corrected for finite basis set =    -124.727641 eV
 
+---------------- MEMORY AND SCRATCH DISK ESTIMATES PER PROCESS --------------+
|                                                     Memory          Disk    |
| Model and support data                               42.0 MB         0.0 MB |
| Electronic energy minimisation requirements          24.2 MB         0.0 MB |
| Geometry minimisation requirements                   30.1 MB         0.0 MB |
|                                               ----------------------------- |
| Approx. total storage required per process           96.3 MB         0.0 MB |
|                                                                             |
| Requirements will fluctuate during execution and may exceed these estimates |
+-----------------------------------------------------------------------------+
 

 ******************************** Symmetrised Forces ********************************
 *                                                                                  *
 *                           Cartesian components (eV/A)                            *
 * -------------------------------------------------------------------------------- *
 *                         x                    y                    z              *
 *                                                                                  *
 * H               1      0.00000             -0.00000              0.00000         *
 * H               2      0.00000              0.00000             -0.00000         *
 * H               3      0.00000             -0.00000             -0.00000         *
 * H               4      0.00000              0.00000              0.00000         *
 * H               5     -0.00000              0.00000             -0.00000         *
 * H               6     -0.00000             -0.00000              0.00000         *
 * H               7     -0.00000             -0.00000             -0.00000         *
 * H               8     -0.00000              0.00000              0.00000         *
 *                                                                                  *
 ************************************************************************************

 *********** Symmetrised Stress Tensor ***********
 *                                               *
 *          Cartesian components (GPa)           *
 * --------------------------------------------- *
 *             x             y             z     *
 *                                               *
 *  x    -29.998281      0.000000      0.000000  *
 *  y      0.000000    -29.998294      0.000000  *
 *  z      0.000000      0.000000    -29.998287  *
 *                                               *
 *  Pressure:   29.9983                          *
 *                                               *
 *************************************************
 LBFGS: finished iteration     0 with enthalpy= -1.17530253E+002 eV
  
 +-----------+-----------------+-----------------+------------+-----+ <-- LBFGS
 | Parameter |      value      |    tolerance    |    units   | OK? | <-- LBFGS
 +-----------+-----------------+-----------------+------------+-----+ <-- LBFGS
 |  dE/ion   |   0.000000E+000 |   1.000000E-009 |         eV | No  | <-- LBFGS
 |  |F|max   |   6.028387E-007 |   1.000000E-005 |       eV/A | Yes | <-- LBFGS
 |  |dR|max  |   0.000000E+000 |   1.000000E-005 |          A | No  | <-- LBFGS
 |   Smax    |   1.000172E+001 |   1.000000E-005 |        GPa | No  | <-- LBFGS
 +-----------+-----------------+-----------------+------------+-----+ <-- LBFGS
  

================================================================================
 Starting LBFGS iteration          1 ...
================================================================================
  
 +------------+-------------+-------------+-----------------+ <-- min LBFGS
 |    Step    |   lambda    |   F.delta'  |    enthalpy     | <-- min LBFGS
 +------------+-------------+-------------+-----------------+ <-- min LBFGS
 |  previous  |    0.000000 |    0.114551 |     -117.530253 | <-- min LBFGS
 +------------+-------------+-------------+-----------------+ <-- min LBFGS
  

--------------------------------------------------------------------------------
 LBFGS: starting iteration         1 with trial guess (lambda=  1.000000)
--------------------------------------------------------------------------------

                           -------------------------------
                                      Unit Cell
                           -------------------------------
        Real Lattice(A)              Reciprocal Lattice(1/A)
     3.7373663     0.0000000     0.0000000        1.681179965   0.000000000   0.000000000
     0.0000000     2.1705481     0.0000000        0.000000000   2.894745901   0.000000000
     0.0000000     0.0000000     3.4831627        0.000000000   0.000000000   1.803873611

                       Lattice parameters(A)       Cell Angles
                    a =      3.737366          alpha =   90.000000
                    b =      2.170548          beta  =   90.000000
                    c =      3.483163          gamma =   90.000000

                Current cell volume =            28.255881 A**3

                           -------------------------------
                                     Cell Contents
                           -------------------------------

            xxxxxxxxxxxxxxxxxxxxxxxxxxxxxxxxxxxxxxxxxxxxxxxxxxxxxxxxxxxxxxxxx
            x  Element         Atom        Fractional coordinates of atoms  x
            x                 Number           u          v          w      x
            x---------------------------------------------------------------x
            x  H                 1         0.359991   0.148972   0.381590   x
            x  H                 2         0.472738   0.354748   0.497310   x
            x  H                 3         0.972738   0.645252   0.497310   x
            x  H                 4         0.859991   0.851028   0.381590   x
            x  H                 5         0.027262   0.354748  -0.002690   x
            x  H                 6         0.140009   0.148972   0.881590   x
            x  H                 7         0.527262   0.645252  -0.002690   x
            x  H                 8         0.640009   0.851028   0.881590   x
            xxxxxxxxxxxxxxxxxxxxxxxxxxxxxxxxxxxxxxxxxxxxxxxxxxxxxxxxxxxxxxxxx


------------------------------------------------------------------------ <-- SCF
SCF loop      Energy                           Energy gain       Timer   <-- SCF
                                               per atom          (sec)   <-- SCF
------------------------------------------------------------------------ <-- SCF
Initial  -1.24612492E+002                                         60.36  <-- SCF
      1  -1.24616065E+002                    4.46660973E-004      62.41  <-- SCF
      2  -1.24616074E+002                    1.15952175E-006      65.24  <-- SCF
      3  -1.24615795E+002                   -3.48884628E-005      67.91  <-- SCF
      4  -1.24615788E+002                   -8.59241689E-007      70.60  <-- SCF
      5  -1.24615789E+002                    5.50242415E-008      73.31  <-- SCF
      6  -1.24615789E+002                    6.45606742E-009      75.96  <-- SCF
      7  -1.24615789E+002                    2.76458182E-011      77.97  <-- SCF
      8  -1.24615789E+002                    3.76123306E-012      79.97  <-- SCF
      9  -1.24615789E+002                    2.44706729E-013      81.98  <-- SCF
------------------------------------------------------------------------ <-- SCF
 
Final energy =  -124.6157888801     eV
(energy not corrected for finite basis set)
 

 ******************************** Symmetrised Forces ********************************
 *                                                                                  *
 *                           Cartesian components (eV/A)                            *
 * -------------------------------------------------------------------------------- *
 *                         x                    y                    z              *
 *                                                                                  *
 * H               1     -0.09171             -0.09781             -0.08761         *
 * H               2      0.09179              0.09671              0.08761         *
 * H               3      0.09179             -0.09671              0.08761         *
 * H               4     -0.09171              0.09781             -0.08761         *
 * H               5     -0.09179              0.09671              0.08761         *
 * H               6      0.09171             -0.09781             -0.08761         *
 * H               7     -0.09179             -0.09671              0.08761         *
 * H               8      0.09171              0.09781             -0.08761         *
 *                                                                                  *
 ************************************************************************************

 *********** Symmetrised Stress Tensor ***********
 *                                               *
 *          Cartesian components (GPa)           *
 * --------------------------------------------- *
 *             x             y             z     *
 *                                               *
 *  x    -32.605833      0.000000      0.000000  *
 *  y      0.000000    -32.704855      0.000000  *
 *  z      0.000000      0.000000    -32.497654  *
 *                                               *
 *  Pressure:   32.6028                          *
 *                                               *
 *************************************************
  
 +------------+-------------+-------------+-----------------+ <-- min LBFGS
 |    Step    |   lambda    |   F.delta'  |    enthalpy     | <-- min LBFGS
 +------------+-------------+-------------+-----------------+ <-- min LBFGS
 |  previous  |    0.000000 |    0.114551 |     -117.530253 | <-- min LBFGS
 | trial step |    1.000000 |    0.083595 |     -117.561415 | <-- min LBFGS
 +------------+-------------+-------------+-----------------+ <-- min LBFGS
  

--------------------------------------------------------------------------------
 LBFGS: improving iteration         1 with line minimization (lambda=  3.700484)
--------------------------------------------------------------------------------

                           -------------------------------
                                      Unit Cell
                           -------------------------------
        Real Lattice(A)              Reciprocal Lattice(1/A)
     3.6696183     0.0000000     0.0000000        1.712217655   0.000000000   0.000000000
     0.0000000     2.1312023     0.0000000        0.000000000   2.948188187   0.000000000
     0.0000000     0.0000000     3.4200228        0.000000000   0.000000000   1.837176430

                       Lattice parameters(A)       Cell Angles
                    a =      3.669618          alpha =   90.000000
                    b =      2.131202          beta  =   90.000000
                    c =      3.420023          gamma =   90.000000

                Current cell volume =            26.746969 A**3

                           -------------------------------
                                     Cell Contents
                           -------------------------------

            xxxxxxxxxxxxxxxxxxxxxxxxxxxxxxxxxxxxxxxxxxxxxxxxxxxxxxxxxxxxxxxxx
            x  Element         Atom        Fractional coordinates of atoms  x
            x                 Number           u          v          w      x
            x---------------------------------------------------------------x
            x  H                 1         0.359991   0.148972   0.381590   x
            x  H                 2         0.472738   0.354748   0.497310   x
            x  H                 3         0.972738   0.645252   0.497310   x
            x  H                 4         0.859991   0.851028   0.381590   x
            x  H                 5         0.027262   0.354748  -0.002690   x
            x  H                 6         0.140009   0.148972   0.881590   x
            x  H                 7         0.527262   0.645252  -0.002690   x
            x  H                 8         0.640009   0.851028   0.881590   x
            xxxxxxxxxxxxxxxxxxxxxxxxxxxxxxxxxxxxxxxxxxxxxxxxxxxxxxxxxxxxxxxxx


------------------------------------------------------------------------ <-- SCF
SCF loop      Energy                           Energy gain       Timer   <-- SCF
                                               per atom          (sec)   <-- SCF
------------------------------------------------------------------------ <-- SCF
Initial  -1.24248159E+002                                         84.58  <-- SCF
      1  -1.24275150E+002                    3.37380396E-003      86.44  <-- SCF
      2  -1.24275217E+002                    8.42643076E-006      88.88  <-- SCF
      3  -1.24273149E+002                   -2.58487987E-004      91.40  <-- SCF
      4  -1.24273098E+002                   -6.42112760E-006      93.88  <-- SCF
      5  -1.24273101E+002                    3.65039160E-007      96.42  <-- SCF
      6  -1.24273101E+002                    4.16062103E-008      99.03  <-- SCF
      7  -1.24273101E+002                    1.70778107E-010     101.09  <-- SCF
      8  -1.24273101E+002                    2.36670681E-011     102.90  <-- SCF
      9  -1.24273101E+002                    3.65549558E-013     104.73  <-- SCF
     10  -1.24273101E+002                    4.22949902E-014     106.56  <-- SCF
------------------------------------------------------------------------ <-- SCF
 
Final energy =  -124.2731008962     eV
(energy not corrected for finite basis set)
 

 ******************************** Symmetrised Forces ********************************
 *                                                                                  *
 *                           Cartesian components (eV/A)                            *
 * -------------------------------------------------------------------------------- *
 *                         x                    y                    z              *
 *                                                                                  *
 * H               1     -0.35331             -0.37689             -0.33747         *
 * H               2      0.35361              0.37248              0.33747         *
 * H               3      0.35361             -0.37248              0.33747         *
 * H               4     -0.35331              0.37689             -0.33747         *
 * H               5     -0.35361              0.37248              0.33747         *
 * H               6      0.35331             -0.37689             -0.33747         *
 * H               7     -0.35361             -0.37248              0.33747         *
 * H               8      0.35331              0.37689             -0.33747         *
 *                                                                                  *
 ************************************************************************************

 *********** Symmetrised Stress Tensor ***********
 *                                               *
 *          Cartesian components (GPa)           *
 * --------------------------------------------- *
 *             x             y             z     *
 *                                               *
 *  x    -40.436018      0.000000      0.000000  *
 *  y      0.000000    -40.830186      0.000000  *
 *  z      0.000000      0.000000    -39.993747  *
 *                                               *
 *  Pressure:   40.4200                          *
 *                                               *
 *************************************************
  
 +------------+-------------+-------------+-----------------+ <-- min LBFGS
 |    Step    |   lambda    |   F.delta'  |    enthalpy     | <-- min LBFGS
 +------------+-------------+-------------+-----------------+ <-- min LBFGS
 |  previous  |    0.000000 |    0.114551 |     -117.530253 | <-- min LBFGS
 | trial step |    1.000000 |    0.083595 |     -117.561415 | <-- min LBFGS
 |  line step |    3.700484 |   -0.004576 |     -117.595443 | <-- min LBFGS
 +------------+-------------+-------------+-----------------+ <-- min LBFGS
  
 LBFGS: finished iteration     1 with enthalpy= -1.17595443E+002 eV
  
 +-----------+-----------------+-----------------+------------+-----+ <-- LBFGS
 | Parameter |      value      |    tolerance    |    units   | OK? | <-- LBFGS
 +-----------+-----------------+-----------------+------------+-----+ <-- LBFGS
 |  dE/ion   |   8.148709E-003 |   1.000000E-009 |         eV | No  | <-- LBFGS
 |  |F|max   |   6.170583E-001 |   1.000000E-005 |       eV/A | No  | <-- LBFGS
 |  |dR|max  |   2.110502E-007 |   1.000000E-005 |          A | Yes | <-- LBFGS
 |   Smax    |   8.301856E-001 |   1.000000E-005 |        GPa | No  | <-- LBFGS
 +-----------+-----------------+-----------------+------------+-----+ <-- LBFGS
  

================================================================================
 Starting LBFGS iteration          2 ...
================================================================================
  
 +------------+-------------+-------------+-----------------+ <-- min LBFGS
 |    Step    |   lambda    |   F.delta'  |    enthalpy     | <-- min LBFGS
 +------------+-------------+-------------+-----------------+ <-- min LBFGS
 |  previous  |    0.000000 |    0.096315 |     -117.595443 | <-- min LBFGS
 +------------+-------------+-------------+-----------------+ <-- min LBFGS
  

--------------------------------------------------------------------------------
 LBFGS: starting iteration         2 with trial guess (lambda=  1.000000)
--------------------------------------------------------------------------------

                           -------------------------------
                                      Unit Cell
                           -------------------------------
        Real Lattice(A)              Reciprocal Lattice(1/A)
     3.4928148     0.0000000     0.0000000        1.798888776   0.000000000   0.000000000
     0.0000000     2.0290455     0.0000000        0.000000000   3.096621162   0.000000000
     0.0000000     0.0000000     3.2542992        0.000000000   0.000000000   1.930733727

                       Lattice parameters(A)       Cell Angles
                    a =      3.492815          alpha =   90.000000
                    b =      2.029046          beta  =   90.000000
                    c =      3.254299          gamma =   90.000000

                Current cell volume =            23.063480 A**3

                           -------------------------------
                                     Cell Contents
                           -------------------------------

            xxxxxxxxxxxxxxxxxxxxxxxxxxxxxxxxxxxxxxxxxxxxxxxxxxxxxxxxxxxxxxxxx
            x  Element         Atom        Fractional coordinates of atoms  x
            x                 Number           u          v          w      x
            x---------------------------------------------------------------x
            x  H                 1         0.351449   0.133281   0.372835   x
            x  H                 2         0.481288   0.370256   0.506065   x
            x  H                 3         0.981288   0.629744   0.506065   x
            x  H                 4         0.851449   0.866719   0.372835   x
            x  H                 5         0.018712   0.370256   0.006065   x
            x  H                 6         0.148551   0.133281   0.872835   x
            x  H                 7         0.518712   0.629744   0.006065   x
            x  H                 8         0.648551   0.866719   0.872835   x
            xxxxxxxxxxxxxxxxxxxxxxxxxxxxxxxxxxxxxxxxxxxxxxxxxxxxxxxxxxxxxxxxx


------------------------------------------------------------------------ <-- SCF
SCF loop      Energy                           Energy gain       Timer   <-- SCF
                                               per atom          (sec)   <-- SCF
------------------------------------------------------------------------ <-- SCF
Initial  -1.20432046E+002                                        108.97  <-- SCF
      1  -1.23294703E+002                    3.57832051E-001     110.60  <-- SCF
      2  -1.23304436E+002                    1.21669829E-003     112.88  <-- SCF
      3  -1.23074027E+002                   -2.88011901E-002     115.10  <-- SCF
      4  -1.23065636E+002                   -1.04889057E-003     117.33  <-- SCF
      5  -1.23065713E+002                    9.63835547E-006     119.54  <-- SCF
      6  -1.23065720E+002                    8.31036000E-007     121.75  <-- SCF
      7  -1.23065720E+002                    2.16040997E-009     123.91  <-- SCF
      8  -1.23065720E+002                    3.43595437E-010     125.99  <-- SCF
      9  -1.23065720E+002                    1.66219312E-011     127.71  <-- SCF
     10  -1.23065720E+002                    4.19928831E-013     129.41  <-- SCF
     11  -1.23065720E+002                   -1.20842829E-014     131.14  <-- SCF
------------------------------------------------------------------------ <-- SCF
 
Final energy =  -123.0657195853     eV
(energy not corrected for finite basis set)
 

 ******************************** Symmetrised Forces ********************************
 *                                                                                  *
 *                           Cartesian components (eV/A)                            *
 * -------------------------------------------------------------------------------- *
 *                         x                    y                    z              *
 *                                                                                  *
 * H               1      0.86143              0.90917              0.83052         *
 * H               2     -0.85636             -0.92236             -0.83052         *
 * H               3     -0.85636              0.92236             -0.83052         *
 * H               4      0.86143             -0.90917              0.83052         *
 * H               5      0.85636             -0.92236             -0.83052         *
 * H               6     -0.86143              0.90917              0.83052         *
 * H               7      0.85636              0.92236             -0.83052         *
 * H               8     -0.86143             -0.90917              0.83052         *
 *                                                                                  *
 ************************************************************************************

 *********** Symmetrised Stress Tensor ***********
 *                                               *
 *          Cartesian components (GPa)           *
 * --------------------------------------------- *
 *             x             y             z     *
 *                                               *
 *  x    -46.449492      0.000000      0.000000  *
 *  y      0.000000    -45.030164      0.000000  *
 *  z      0.000000      0.000000    -44.962652  *
 *                                               *
 *  Pressure:   45.4808                          *
 *                                               *
 *************************************************
  
 +------------+-------------+-------------+-----------------+ <-- min LBFGS
 |    Step    |   lambda    |   F.delta'  |    enthalpy     | <-- min LBFGS
 +------------+-------------+-------------+-----------------+ <-- min LBFGS
 |  previous  |    0.000000 |    0.096315 |     -117.595443 | <-- min LBFGS
 | trial step |    1.000000 |   -0.277379 |     -117.307683 | <-- min LBFGS
 +------------+-------------+-------------+-----------------+ <-- min LBFGS
  

--------------------------------------------------------------------------------
 LBFGS: improving iteration         2 with line minimization (lambda=  0.257737)
--------------------------------------------------------------------------------

                           -------------------------------
                                      Unit Cell
                           -------------------------------
        Real Lattice(A)              Reciprocal Lattice(1/A)
     3.6240495     0.0000000     0.0000000        1.733747113   0.000000000   0.000000000
     0.0000000     2.1048727     0.0000000        0.000000000   2.985066716   0.000000000
     0.0000000     0.0000000     3.3773097        0.000000000   0.000000000   1.860411367

                       Lattice parameters(A)       Cell Angles
                    a =      3.624049          alpha =   90.000000
                    b =      2.104873          beta  =   90.000000
                    c =      3.377310          gamma =   90.000000

                Current cell volume =            25.762667 A**3

                           -------------------------------
                                     Cell Contents
                           -------------------------------

            xxxxxxxxxxxxxxxxxxxxxxxxxxxxxxxxxxxxxxxxxxxxxxxxxxxxxxxxxxxxxxxxx
            x  Element         Atom        Fractional coordinates of atoms  x
            x                 Number           u          v          w      x
            x---------------------------------------------------------------x
            x  H                 1         0.357790   0.144928   0.379334   x
            x  H                 2         0.474942   0.358745   0.499567   x
            x  H                 3         0.974942   0.641255   0.499567   x
            x  H                 4         0.857790   0.855072   0.379334   x
            x  H                 5         0.025058   0.358745  -0.000433   x
            x  H                 6         0.142210   0.144928   0.879334   x
            x  H                 7         0.525058   0.641255  -0.000433   x
            x  H                 8         0.642210   0.855072   0.879334   x
            xxxxxxxxxxxxxxxxxxxxxxxxxxxxxxxxxxxxxxxxxxxxxxxxxxxxxxxxxxxxxxxxx


------------------------------------------------------------------------ <-- SCF
SCF loop      Energy                           Energy gain       Timer   <-- SCF
                                               per atom          (sec)   <-- SCF
------------------------------------------------------------------------ <-- SCF
Initial  -1.22796741E+002                                        133.47  <-- SCF
      1  -1.24164292E+002                    1.70943900E-001     135.28  <-- SCF
      2  -1.24169292E+002                    6.24941648E-004     137.77  <-- SCF
      3  -1.24057151E+002                   -1.40176032E-002     140.25  <-- SCF
      4  -1.24052645E+002                   -5.63333045E-004     142.72  <-- SCF
      5  -1.24052729E+002                    1.05162419E-005     145.19  <-- SCF
      6  -1.24052738E+002                    1.15897134E-006     147.64  <-- SCF
      7  -1.24052738E+002                    8.34827882E-009     150.16  <-- SCF
      8  -1.24052738E+002                    4.27584225E-010     152.48  <-- SCF
      9  -1.24052738E+002                    2.02200264E-011     154.32  <-- SCF
     10  -1.24052738E+002                    4.83371317E-014     156.10  <-- SCF
     11  -1.24052738E+002                    6.04214146E-014     157.92  <-- SCF
------------------------------------------------------------------------ <-- SCF
 
Final energy =  -124.0527379779     eV
(energy not corrected for finite basis set)
 

 ******************************** Symmetrised Forces ********************************
 *                                                                                  *
 *                           Cartesian components (eV/A)                            *
 * -------------------------------------------------------------------------------- *
 *                         x                    y                    z              *
 *                                                                                  *
 * H               1      0.04773              0.04836              0.04733         *
 * H               2     -0.04703             -0.05355             -0.04733         *
 * H               3     -0.04703              0.05355             -0.04733         *
 * H               4      0.04773             -0.04836              0.04733         *
 * H               5      0.04703             -0.05355             -0.04733         *
 * H               6     -0.04773              0.04836              0.04733         *
 * H               7      0.04703              0.05355             -0.04733         *
 * H               8     -0.04773             -0.04836              0.04733         *
 *                                                                                  *
 ************************************************************************************

 *********** Symmetrised Stress Tensor ***********
 *                                               *
 *          Cartesian components (GPa)           *
 * --------------------------------------------- *
 *             x             y             z     *
 *                                               *
 *  x    -40.953578      0.000000      0.000000  *
 *  y      0.000000    -40.859312      0.000000  *
 *  z      0.000000      0.000000    -40.478869  *
 *                                               *
 *  Pressure:   40.7639                          *
 *                                               *
 *************************************************
  
 +------------+-------------+-------------+-----------------+ <-- min LBFGS
 |    Step    |   lambda    |   F.delta'  |    enthalpy     | <-- min LBFGS
 +------------+-------------+-------------+-----------------+ <-- min LBFGS
 |  previous  |    0.000000 |    0.096315 |     -117.595443 | <-- min LBFGS
 | trial step |    1.000000 |   -0.277379 |     -117.307683 | <-- min LBFGS
 |  line step |    0.257737 |   -0.020180 |     -117.620821 | <-- min LBFGS
 +------------+-------------+-------------+-----------------+ <-- min LBFGS
  
 LBFGS: finished iteration     2 with enthalpy= -1.17620821E+002 eV
  
 +-----------+-----------------+-----------------+------------+-----+ <-- LBFGS
 | Parameter |      value      |    tolerance    |    units   | OK? | <-- LBFGS
 +-----------+-----------------+-----------------+------------+-----+ <-- LBFGS
 |  dE/ion   |   3.172273E-003 |   1.000000E-009 |         eV | No  | <-- LBFGS
 |  |F|max   |   8.555406E-002 |   1.000000E-005 |       eV/A | No  | <-- LBFGS
 |  |dR|max  |   1.393611E-002 |   1.000000E-005 |          A | No  | <-- LBFGS
 |   Smax    |   9.535776E-001 |   1.000000E-005 |        GPa | No  | <-- LBFGS
 +-----------+-----------------+-----------------+------------+-----+ <-- LBFGS
  

================================================================================
 Starting LBFGS iteration          3 ...
================================================================================
  
 +------------+-------------+-------------+-----------------+ <-- min LBFGS
 |    Step    |   lambda    |   F.delta'  |    enthalpy     | <-- min LBFGS
 +------------+-------------+-------------+-----------------+ <-- min LBFGS
 |  previous  |    0.000000 |    0.016341 |     -117.620821 | <-- min LBFGS
 +------------+-------------+-------------+-----------------+ <-- min LBFGS
  

--------------------------------------------------------------------------------
 LBFGS: starting iteration         3 with trial guess (lambda=  1.000000)
--------------------------------------------------------------------------------

                           -------------------------------
                                      Unit Cell
                           -------------------------------
        Real Lattice(A)              Reciprocal Lattice(1/A)
     3.6380059     0.0000000     0.0000000        1.727095949   0.000000000   0.000000000
     0.0000000     2.1129107     0.0000000        0.000000000   2.973710839   0.000000000
     0.0000000     0.0000000     3.3893974        0.000000000   0.000000000   1.853776505

                       Lattice parameters(A)       Cell Angles
                    a =      3.638006          alpha =   90.000000
                    b =      2.112911          beta  =   90.000000
                    c =      3.389397          gamma =   90.000000

                Current cell volume =            26.053557 A**3

                           -------------------------------
                                     Cell Contents
                           -------------------------------

            xxxxxxxxxxxxxxxxxxxxxxxxxxxxxxxxxxxxxxxxxxxxxxxxxxxxxxxxxxxxxxxxx
            x  Element         Atom        Fractional coordinates of atoms  x
            x                 Number           u          v          w      x
            x---------------------------------------------------------------x
            x  H                 1         0.358153   0.145505   0.379744   x
            x  H                 2         0.474593   0.357971   0.499156   x
            x  H                 3         0.974593   0.642029   0.499156   x
            x  H                 4         0.858153   0.854495   0.379744   x
            x  H                 5         0.025407   0.357971  -0.000844   x
            x  H                 6         0.141847   0.145505   0.879744   x
            x  H                 7         0.525407   0.642029  -0.000844   x
            x  H                 8         0.641847   0.854495   0.879744   x
            xxxxxxxxxxxxxxxxxxxxxxxxxxxxxxxxxxxxxxxxxxxxxxxxxxxxxxxxxxxxxxxxx


------------------------------------------------------------------------ <-- SCF
SCF loop      Energy                           Energy gain       Timer   <-- SCF
                                               per atom          (sec)   <-- SCF
------------------------------------------------------------------------ <-- SCF
Initial  -1.24120557E+002                                        160.63  <-- SCF
      1  -1.24127546E+002                    8.73700079E-004     162.50  <-- SCF
      2  -1.24127568E+002                    2.74983559E-006     164.95  <-- SCF
      3  -1.24126909E+002                   -8.24475278E-005     167.41  <-- SCF
      4  -1.24126885E+002                   -2.96569039E-006     169.89  <-- SCF
      5  -1.24126885E+002                    5.41698948E-008     172.31  <-- SCF
      6  -1.24126885E+002                    5.86953560E-009     174.82  <-- SCF
      7  -1.24126885E+002                    2.26821990E-011     176.64  <-- SCF
      8  -1.24126885E+002                    2.08151773E-012     178.42  <-- SCF
      9  -1.24126885E+002                    1.41990324E-013     180.25  <-- SCF
------------------------------------------------------------------------ <-- SCF
 
Final energy =  -124.1268854452     eV
(energy not corrected for finite basis set)
 

 ******************************** Symmetrised Forces ********************************
 *                                                                                  *
 *                           Cartesian components (eV/A)                            *
 * -------------------------------------------------------------------------------- *
 *                         x                    y                    z              *
 *                                                                                  *
 * H               1      0.00607              0.00497              0.00719         *
 * H               2     -0.00562             -0.00855             -0.00719         *
 * H               3     -0.00562              0.00855             -0.00719         *
 * H               4      0.00607             -0.00497              0.00719         *
 * H               5      0.00562             -0.00855             -0.00719         *
 * H               6     -0.00607              0.00497              0.00719         *
 * H               7      0.00562              0.00855             -0.00719         *
 * H               8     -0.00607             -0.00497              0.00719         *
 *                                                                                  *
 ************************************************************************************

 *********** Symmetrised Stress Tensor ***********
 *                                               *
 *          Cartesian components (GPa)           *
 * --------------------------------------------- *
 *             x             y             z     *
 *                                               *
 *  x    -40.041667      0.000000      0.000000  *
 *  y      0.000000    -40.010432      0.000000  *
 *  z      0.000000      0.000000    -39.663717  *
 *                                               *
 *  Pressure:   39.9053                          *
 *                                               *
 *************************************************
  
 +------------+-------------+-------------+-----------------+ <-- min LBFGS
 |    Step    |   lambda    |   F.delta'  |    enthalpy     | <-- min LBFGS
 +------------+-------------+-------------+-----------------+ <-- min LBFGS
 |  previous  |    0.000000 |    0.016341 |     -117.620821 | <-- min LBFGS
 | trial step |    1.000000 |    0.000318 |     -117.622345 | <-- min LBFGS
 +------------+-------------+-------------+-----------------+ <-- min LBFGS
  
 LBFGS: finished iteration     3 with enthalpy= -1.17622345E+002 eV
  
 +-----------+-----------------+-----------------+------------+-----+ <-- LBFGS
 | Parameter |      value      |    tolerance    |    units   | OK? | <-- LBFGS
 +-----------+-----------------+-----------------+------------+-----+ <-- LBFGS
 |  dE/ion   |   1.904560E-004 |   1.000000E-009 |         eV | No  | <-- LBFGS
 |  |F|max   |   1.250873E-002 |   1.000000E-005 |       eV/A | No  | <-- LBFGS
 |  |dR|max  |   2.493208E-003 |   1.000000E-005 |          A | No  | <-- LBFGS
 |   Smax    |   3.362828E-001 |   1.000000E-005 |        GPa | No  | <-- LBFGS
 +-----------+-----------------+-----------------+------------+-----+ <-- LBFGS
  

================================================================================
 Starting LBFGS iteration          4 ...
================================================================================
  
 +------------+-------------+-------------+-----------------+ <-- min LBFGS
 |    Step    |   lambda    |   F.delta'  |    enthalpy     | <-- min LBFGS
 +------------+-------------+-------------+-----------------+ <-- min LBFGS
 |  previous  |    0.000000 |    0.003048 |     -117.622345 | <-- min LBFGS
 +------------+-------------+-------------+-----------------+ <-- min LBFGS
  

--------------------------------------------------------------------------------
 LBFGS: starting iteration         4 with trial guess (lambda=  1.000000)
--------------------------------------------------------------------------------

                           -------------------------------
                                      Unit Cell
                           -------------------------------
        Real Lattice(A)              Reciprocal Lattice(1/A)
     3.6380435     0.0000000     0.0000000        1.727078097   0.000000000   0.000000000
     0.0000000     2.1128979     0.0000000        0.000000000   2.973728781   0.000000000
     0.0000000     0.0000000     3.3885749        0.000000000   0.000000000   1.854226491

                       Lattice parameters(A)       Cell Angles
                    a =      3.638044          alpha =   90.000000
                    b =      2.112898          beta  =   90.000000
                    c =      3.388575          gamma =   90.000000

                Current cell volume =            26.047347 A**3

                           -------------------------------
                                     Cell Contents
                           -------------------------------

            xxxxxxxxxxxxxxxxxxxxxxxxxxxxxxxxxxxxxxxxxxxxxxxxxxxxxxxxxxxxxxxxx
            x  Element         Atom        Fractional coordinates of atoms  x
            x                 Number           u          v          w      x
            x---------------------------------------------------------------x
            x  H                 1         0.358165   0.145461   0.379794   x
            x  H                 2         0.474593   0.357856   0.499106   x
            x  H                 3         0.974593   0.642144   0.499106   x
            x  H                 4         0.858165   0.854539   0.379794   x
            x  H                 5         0.025407   0.357856  -0.000894   x
            x  H                 6         0.141835   0.145461   0.879794   x
            x  H                 7         0.525407   0.642144  -0.000894   x
            x  H                 8         0.641835   0.854539   0.879794   x
            xxxxxxxxxxxxxxxxxxxxxxxxxxxxxxxxxxxxxxxxxxxxxxxxxxxxxxxxxxxxxxxxx


------------------------------------------------------------------------ <-- SCF
SCF loop      Energy                           Energy gain       Timer   <-- SCF
                                               per atom          (sec)   <-- SCF
------------------------------------------------------------------------ <-- SCF
Initial  -1.24125322E+002                                        182.90  <-- SCF
      1  -1.24125357E+002                    4.34125095E-006     184.68  <-- SCF
      2  -1.24125357E+002                    1.13342538E-008     187.14  <-- SCF
      3  -1.24125356E+002                   -1.87956523E-007     189.66  <-- SCF
      4  -1.24125356E+002                   -5.41712120E-009     192.03  <-- SCF
      5  -1.24125356E+002                    1.36298627E-010     193.89  <-- SCF
      6  -1.24125356E+002                    1.54799664E-011     195.67  <-- SCF
      7  -1.24125356E+002                    1.81264244E-014     197.50  <-- SCF
      8  -1.24125356E+002                   -2.41685658E-014     199.30  <-- SCF
------------------------------------------------------------------------ <-- SCF
 
Final energy =  -124.1253557589     eV
(energy not corrected for finite basis set)
 

 ******************************** Symmetrised Forces ********************************
 *                                                                                  *
 *                           Cartesian components (eV/A)                            *
 * -------------------------------------------------------------------------------- *
 *                         x                    y                    z              *
 *                                                                                  *
 * H               1     -0.00087             -0.00196              0.00053         *
 * H               2      0.00123             -0.00082             -0.00053         *
 * H               3      0.00123              0.00082             -0.00053         *
 * H               4     -0.00087              0.00196              0.00053         *
 * H               5     -0.00123             -0.00082             -0.00053         *
 * H               6      0.00087             -0.00196              0.00053         *
 * H               7     -0.00123              0.00082             -0.00053         *
 * H               8      0.00087              0.00196              0.00053         *
 *                                                                                  *
 ************************************************************************************

 *********** Symmetrised Stress Tensor ***********
 *                                               *
 *          Cartesian components (GPa)           *
 * --------------------------------------------- *
 *             x             y             z     *
 *                                               *
 *  x    -40.118109      0.000000      0.000000  *
 *  y      0.000000    -40.100131      0.000000  *
 *  z      0.000000      0.000000    -39.777996  *
 *                                               *
 *  Pressure:   39.9987                          *
 *                                               *
 *************************************************
  
 +------------+-------------+-------------+-----------------+ <-- min LBFGS
 |    Step    |   lambda    |   F.delta'  |    enthalpy     | <-- min LBFGS
 +------------+-------------+-------------+-----------------+ <-- min LBFGS
 |  previous  |    0.000000 |    0.003048 |     -117.622345 | <-- min LBFGS
 | trial step |    1.000000 |    0.001086 |     -117.622366 | <-- min LBFGS
 +------------+-------------+-------------+-----------------+ <-- min LBFGS
  

--------------------------------------------------------------------------------
 LBFGS: improving iteration         4 with line minimization (lambda=  1.553798)
--------------------------------------------------------------------------------

                           -------------------------------
                                      Unit Cell
                           -------------------------------
        Real Lattice(A)              Reciprocal Lattice(1/A)
     3.6380644     0.0000000     0.0000000        1.727068211   0.000000000   0.000000000
     0.0000000     2.1128908     0.0000000        0.000000000   2.973738717   0.000000000
     0.0000000     0.0000000     3.3881194        0.000000000   0.000000000   1.854475787

                       Lattice parameters(A)       Cell Angles
                    a =      3.638064          alpha =   90.000000
                    b =      2.112891          beta  =   90.000000
                    c =      3.388119          gamma =   90.000000

                Current cell volume =            26.043907 A**3

                           -------------------------------
                                     Cell Contents
                           -------------------------------

            xxxxxxxxxxxxxxxxxxxxxxxxxxxxxxxxxxxxxxxxxxxxxxxxxxxxxxxxxxxxxxxxx
            x  Element         Atom        Fractional coordinates of atoms  x
            x                 Number           u          v          w      x
            x---------------------------------------------------------------x
            x  H                 1         0.358172   0.145436   0.379822   x
            x  H                 2         0.474593   0.357791   0.499078   x
            x  H                 3         0.974593   0.642209   0.499078   x
            x  H                 4         0.858172   0.854564   0.379822   x
            x  H                 5         0.025407   0.357791  -0.000922   x
            x  H                 6         0.141828   0.145436   0.879822   x
            x  H                 7         0.525407   0.642209  -0.000922   x
            x  H                 8         0.641828   0.854564   0.879822   x
            xxxxxxxxxxxxxxxxxxxxxxxxxxxxxxxxxxxxxxxxxxxxxxxxxxxxxxxxxxxxxxxxx


------------------------------------------------------------------------ <-- SCF
SCF loop      Energy                           Energy gain       Timer   <-- SCF
                                               per atom          (sec)   <-- SCF
------------------------------------------------------------------------ <-- SCF
Initial  -1.24124490E+002                                        201.85  <-- SCF
      1  -1.24124501E+002                    1.33166747E-006     203.73  <-- SCF
      2  -1.24124501E+002                    3.47613159E-009     206.25  <-- SCF
      3  -1.24124500E+002                   -5.76729018E-008     208.74  <-- SCF
      4  -1.24124500E+002                   -1.66207529E-009     211.18  <-- SCF
      5  -1.24124500E+002                    4.18569350E-011     213.01  <-- SCF
      6  -1.24124500E+002                    4.99685099E-012     214.83  <-- SCF
      7  -1.24124500E+002                    9.96953341E-014     216.69  <-- SCF
------------------------------------------------------------------------ <-- SCF
 
Final energy =  -124.1245000712     eV
(energy not corrected for finite basis set)
 

 ******************************** Symmetrised Forces ********************************
 *                                                                                  *
 *                           Cartesian components (eV/A)                            *
 * -------------------------------------------------------------------------------- *
 *                         x                    y                    z              *
 *                                                                                  *
 * H               1     -0.00472             -0.00580             -0.00317         *
 * H               2      0.00503              0.00347              0.00317         *
 * H               3      0.00503             -0.00347              0.00317         *
 * H               4     -0.00472              0.00580             -0.00317         *
 * H               5     -0.00503              0.00347              0.00317         *
 * H               6      0.00472             -0.00580             -0.00317         *
 * H               7     -0.00503             -0.00347              0.00317         *
 * H               8      0.00472              0.00580             -0.00317         *
 *                                                                                  *
 ************************************************************************************

 *********** Symmetrised Stress Tensor ***********
 *                                               *
 *          Cartesian components (GPa)           *
 * --------------------------------------------- *
 *             x             y             z     *
 *                                               *
 *  x    -40.160539      0.000000      0.000000  *
 *  y      0.000000    -40.149869      0.000000  *
 *  z      0.000000      0.000000    -39.841262  *
 *                                               *
 *  Pressure:   40.0506                          *
 *                                               *
 *************************************************
  
 +------------+-------------+-------------+-----------------+ <-- min LBFGS
 |    Step    |   lambda    |   F.delta'  |    enthalpy     | <-- min LBFGS
 +------------+-------------+-------------+-----------------+ <-- min LBFGS
 |  previous  |    0.000000 |    0.003048 |     -117.622345 | <-- min LBFGS
 | trial step |    1.000000 |    0.001086 |     -117.622366 | <-- min LBFGS
 |  line step |    1.553798 | -6.521E-007 |     -117.622369 | <-- min LBFGS
 +------------+-------------+-------------+-----------------+ <-- min LBFGS
  
 LBFGS: finished iteration     4 with enthalpy= -1.17622369E+002 eV
  
 +-----------+-----------------+-----------------+------------+-----+ <-- LBFGS
 | Parameter |      value      |    tolerance    |    units   | OK? | <-- LBFGS
 +-----------+-----------------+-----------------+------------+-----+ <-- LBFGS
 |  dE/ion   |   2.993695E-006 |   1.000000E-009 |         eV | No  | <-- LBFGS
 |  |F|max   |   8.122305E-003 |   1.000000E-005 |       eV/A | No  | <-- LBFGS
 |  |dR|max  |   4.631114E-004 |   1.000000E-005 |          A | No  | <-- LBFGS
 |   Smax    |   1.605393E-001 |   1.000000E-005 |        GPa | No  | <-- LBFGS
 +-----------+-----------------+-----------------+------------+-----+ <-- LBFGS
  

================================================================================
 Starting LBFGS iteration          5 ...
================================================================================
  
 +------------+-------------+-------------+-----------------+ <-- min LBFGS
 |    Step    |   lambda    |   F.delta'  |    enthalpy     | <-- min LBFGS
 +------------+-------------+-------------+-----------------+ <-- min LBFGS
 |  previous  |    0.000000 |    0.001462 |     -117.622369 | <-- min LBFGS
 +------------+-------------+-------------+-----------------+ <-- min LBFGS
  

--------------------------------------------------------------------------------
 LBFGS: starting iteration         5 with trial guess (lambda=  1.000000)
--------------------------------------------------------------------------------

                           -------------------------------
                                      Unit Cell
                           -------------------------------
        Real Lattice(A)              Reciprocal Lattice(1/A)
     3.6384758     0.0000000     0.0000000        1.726872892   0.000000000   0.000000000
     0.0000000     2.1130929     0.0000000        0.000000000   2.973454302   0.000000000
     0.0000000     0.0000000     3.3874006        0.000000000   0.000000000   1.854869270

                       Lattice parameters(A)       Cell Angles
                    a =      3.638476          alpha =   90.000000
                    b =      2.113093          beta  =   90.000000
                    c =      3.387401          gamma =   90.000000

                Current cell volume =            26.043818 A**3

                           -------------------------------
                                     Cell Contents
                           -------------------------------

            xxxxxxxxxxxxxxxxxxxxxxxxxxxxxxxxxxxxxxxxxxxxxxxxxxxxxxxxxxxxxxxxx
            x  Element         Atom        Fractional coordinates of atoms  x
            x                 Number           u          v          w      x
            x---------------------------------------------------------------x
            x  H                 1         0.358150   0.145332   0.379854   x
            x  H                 2         0.474627   0.357720   0.499046   x
            x  H                 3         0.974627   0.642280   0.499046   x
            x  H                 4         0.858150   0.854668   0.379854   x
            x  H                 5         0.025373   0.357720  -0.000954   x
            x  H                 6         0.141850   0.145332   0.879854   x
            x  H                 7         0.525373   0.642280  -0.000954   x
            x  H                 8         0.641850   0.854668   0.879854   x
            xxxxxxxxxxxxxxxxxxxxxxxxxxxxxxxxxxxxxxxxxxxxxxxxxxxxxxxxxxxxxxxxx


------------------------------------------------------------------------ <-- SCF
SCF loop      Energy                           Energy gain       Timer   <-- SCF
                                               per atom          (sec)   <-- SCF
------------------------------------------------------------------------ <-- SCF
Initial  -1.24124464E+002                                        219.20  <-- SCF
      1  -1.24124492E+002                    3.61923642E-006     221.04  <-- SCF
      2  -1.24124493E+002                    1.08874102E-008     223.46  <-- SCF
      3  -1.24124492E+002                   -1.29892649E-007     225.97  <-- SCF
      4  -1.24124492E+002                   -3.30755282E-009     228.42  <-- SCF
      5  -1.24124492E+002                    1.39380119E-010     230.25  <-- SCF
      6  -1.24124492E+002                    1.58968742E-011     232.07  <-- SCF
      7  -1.24124492E+002                   -5.43792731E-014     233.90  <-- SCF
      8  -1.24124492E+002                    3.41380992E-013     235.72  <-- SCF
------------------------------------------------------------------------ <-- SCF
 
Final energy =  -124.1244915095     eV
(energy not corrected for finite basis set)
 

 ******************************** Symmetrised Forces ********************************
 *                                                                                  *
 *                           Cartesian components (eV/A)                            *
 * -------------------------------------------------------------------------------- *
 *                         x                    y                    z              *
 *                                                                                  *
 * H               1     -0.00391             -0.00445             -0.00245         *
 * H               2      0.00411              0.00303              0.00245         *
 * H               3      0.00411             -0.00303              0.00245         *
 * H               4     -0.00391              0.00445             -0.00245         *
 * H               5     -0.00411              0.00303              0.00245         *
 * H               6      0.00391             -0.00445             -0.00245         *
 * H               7     -0.00411             -0.00303              0.00245         *
 * H               8      0.00391              0.00445             -0.00245         *
 *                                                                                  *
 ************************************************************************************

 *********** Symmetrised Stress Tensor ***********
 *                                               *
 *          Cartesian components (GPa)           *
 * --------------------------------------------- *
 *             x             y             z     *
 *                                               *
 *  x    -40.132089      0.000000      0.000000  *
 *  y      0.000000    -40.125943      0.000000  *
 *  z      0.000000      0.000000    -39.866448  *
 *                                               *
 *  Pressure:   40.0415                          *
 *                                               *
 *************************************************
  
 +------------+-------------+-------------+-----------------+ <-- min LBFGS
 |    Step    |   lambda    |   F.delta'  |    enthalpy     | <-- min LBFGS
 +------------+-------------+-------------+-----------------+ <-- min LBFGS
 |  previous  |    0.000000 |    0.001462 |     -117.622369 | <-- min LBFGS
 | trial step |    1.000000 |    0.001192 |     -117.622382 | <-- min LBFGS
 +------------+-------------+-------------+-----------------+ <-- min LBFGS
  

--------------------------------------------------------------------------------
 LBFGS: improving iteration         5 with line minimization (lambda=  5.411358)
--------------------------------------------------------------------------------

                           -------------------------------
                                      Unit Cell
                           -------------------------------
        Real Lattice(A)              Reciprocal Lattice(1/A)
     3.6402911     0.0000000     0.0000000        1.726011798   0.000000000   0.000000000
     0.0000000     2.1139845     0.0000000        0.000000000   2.972200295   0.000000000
     0.0000000     0.0000000     3.3842300        0.000000000   0.000000000   1.856607060

                       Lattice parameters(A)       Cell Angles
                    a =      3.640291          alpha =   90.000000
                    b =      2.113984          beta  =   90.000000
                    c =      3.384230          gamma =   90.000000

                Current cell volume =            26.043406 A**3

                           -------------------------------
                                     Cell Contents
                           -------------------------------

            xxxxxxxxxxxxxxxxxxxxxxxxxxxxxxxxxxxxxxxxxxxxxxxxxxxxxxxxxxxxxxxxx
            x  Element         Atom        Fractional coordinates of atoms  x
[...]
            x  H                 6         0.142191   0.145117   0.880294   x
            x  H                 7         0.524947   0.642375  -0.001393   x
            x  H                 8         0.642191   0.854883   0.880294   x
            xxxxxxxxxxxxxxxxxxxxxxxxxxxxxxxxxxxxxxxxxxxxxxxxxxxxxxxxxxxxxxxxx


------------------------------------------------------------------------ <-- SCF
SCF loop      Energy                           Energy gain       Timer   <-- SCF
                                               per atom          (sec)   <-- SCF
------------------------------------------------------------------------ <-- SCF
Initial  -1.24124604E+002                                        519.60  <-- SCF
      1  -1.24124604E+002                    4.24430227E-011     521.37  <-- SCF
      2  -1.24124604E+002                    1.38969254E-013     523.19  <-- SCF
      3  -1.24124604E+002                   -1.89119028E-012     525.03  <-- SCF
      4  -1.24124604E+002                    6.04214146E-014     526.89  <-- SCF
------------------------------------------------------------------------ <-- SCF
 
Final energy =  -124.1246041481     eV
(energy not corrected for finite basis set)
 

 ******************************** Symmetrised Forces ********************************
 *                                                                                  *
 *                           Cartesian components (eV/A)                            *
 * -------------------------------------------------------------------------------- *
 *                         x                    y                    z              *
 *                                                                                  *
 * H               1     -0.00000             -0.00000             -0.00000         *
 * H               2      0.00000              0.00000              0.00000         *
 * H               3      0.00000             -0.00000              0.00000         *
 * H               4     -0.00000              0.00000             -0.00000         *
 * H               5     -0.00000              0.00000              0.00000         *
 * H               6      0.00000             -0.00000             -0.00000         *
 * H               7     -0.00000             -0.00000              0.00000         *
 * H               8      0.00000              0.00000             -0.00000         *
 *                                                                                  *
 ************************************************************************************

 *********** Symmetrised Stress Tensor ***********
 *                                               *
 *          Cartesian components (GPa)           *
 * --------------------------------------------- *
 *             x             y             z     *
 *                                               *
 *  x    -39.999978      0.000000      0.000000  *
 *  y      0.000000    -40.000014      0.000000  *
 *  z      0.000000      0.000000    -40.000006  *
 *                                               *
 *  Pressure:   40.0000                          *
 *                                               *
 *************************************************
  
 +------------+-------------+-------------+-----------------+ <-- min LBFGS
 |    Step    |   lambda    |   F.delta'  |    enthalpy     | <-- min LBFGS
 +------------+-------------+-------------+-----------------+ <-- min LBFGS
 |  previous  |    0.000000 |  7.249E-007 |     -117.622416 | <-- min LBFGS
 | trial step |    1.000000 |  1.764E-007 |     -117.622416 | <-- min LBFGS
 +------------+-------------+-------------+-----------------+ <-- min LBFGS
  
 LBFGS: finished iteration    17 with enthalpy= -1.17622416E+002 eV
  
 +-----------+-----------------+-----------------+------------+-----+ <-- LBFGS
 | Parameter |      value      |    tolerance    |    units   | OK? | <-- LBFGS
 +-----------+-----------------+-----------------+------------+-----+ <-- LBFGS
 |  dE/ion   |   1.196344E-012 |   1.000000E-009 |         eV | Yes | <-- LBFGS
 |  |F|max   |   1.366215E-006 |   1.000000E-005 |       eV/A | Yes | <-- LBFGS
 |  |dR|max  |   8.836055E-007 |   1.000000E-005 |          A | Yes | <-- LBFGS
 |   Smax    |   2.204189E-005 |   1.000000E-005 |        GPa | No  | <-- LBFGS
 +-----------+-----------------+-----------------+------------+-----+ <-- LBFGS
  

================================================================================
 Starting LBFGS iteration         18 ...
================================================================================
  
 +------------+-------------+-------------+-----------------+ <-- min LBFGS
 |    Step    |   lambda    |   F.delta'  |    enthalpy     | <-- min LBFGS
 +------------+-------------+-------------+-----------------+ <-- min LBFGS
 |  previous  |    0.000000 |  2.059E-007 |     -117.622416 | <-- min LBFGS
 +------------+-------------+-------------+-----------------+ <-- min LBFGS
  

--------------------------------------------------------------------------------
 LBFGS: starting iteration        18 with trial guess (lambda=  1.000000)
--------------------------------------------------------------------------------

                           -------------------------------
                                      Unit Cell
                           -------------------------------
        Real Lattice(A)              Reciprocal Lattice(1/A)
     3.6402865     0.0000000     0.0000000        1.726013957   0.000000000   0.000000000
     0.0000000     2.1142943     0.0000000        0.000000000   2.971764790   0.000000000
     0.0000000     0.0000000     3.3838329        0.000000000   0.000000000   1.856824922

                       Lattice parameters(A)       Cell Angles
                    a =      3.640287          alpha =   90.000000
                    b =      2.114294          beta  =   90.000000
                    c =      3.383833          gamma =   90.000000

                Current cell volume =            26.044133 A**3

                           -------------------------------
                                     Cell Contents
                           -------------------------------

            xxxxxxxxxxxxxxxxxxxxxxxxxxxxxxxxxxxxxxxxxxxxxxxxxxxxxxxxxxxxxxxxx
            x  Element         Atom        Fractional coordinates of atoms  x
            x                 Number           u          v          w      x
            x---------------------------------------------------------------x
            x  H                 1         0.357809   0.145117   0.380294   x
            x  H                 2         0.475053   0.357625   0.498606   x
            x  H                 3         0.975053   0.642375   0.498606   x
            x  H                 4         0.857809   0.854883   0.380294   x
            x  H                 5         0.024947   0.357625  -0.001394   x
            x  H                 6         0.142191   0.145117   0.880294   x
            x  H                 7         0.524947   0.642375  -0.001394   x
            x  H                 8         0.642191   0.854883   0.880294   x
            xxxxxxxxxxxxxxxxxxxxxxxxxxxxxxxxxxxxxxxxxxxxxxxxxxxxxxxxxxxxxxxxx


------------------------------------------------------------------------ <-- SCF
SCF loop      Energy                           Energy gain       Timer   <-- SCF
                                               per atom          (sec)   <-- SCF
------------------------------------------------------------------------ <-- SCF
Initial  -1.24124604E+002                                        529.49  <-- SCF
      1  -1.24124604E+002                    9.93328056E-012     530.67  <-- SCF
      2  -1.24124604E+002                    3.56486346E-013     532.71  <-- SCF
      3  -1.24124604E+002                    2.50748871E-013     534.55  <-- SCF
      4  -1.24124604E+002                   -2.41685658E-014     536.39  <-- SCF
------------------------------------------------------------------------ <-- SCF
 
Final energy =  -124.1246036761     eV
(energy not corrected for finite basis set)
 

 ******************************** Symmetrised Forces ********************************
 *                                                                                  *
 *                           Cartesian components (eV/A)                            *
 * -------------------------------------------------------------------------------- *
 *                         x                    y                    z              *
 *                                                                                  *
 * H               1     -0.00000              0.00000              0.00000         *
 * H               2     -0.00000              0.00000             -0.00000         *
 * H               3     -0.00000             -0.00000             -0.00000         *
 * H               4     -0.00000             -0.00000              0.00000         *
 * H               5      0.00000              0.00000             -0.00000         *
 * H               6      0.00000              0.00000              0.00000         *
 * H               7      0.00000             -0.00000             -0.00000         *
 * H               8      0.00000             -0.00000              0.00000         *
 *                                                                                  *
 ************************************************************************************

 *********** Symmetrised Stress Tensor ***********
 *                                               *
 *          Cartesian components (GPa)           *
 * --------------------------------------------- *
 *             x             y             z     *
 *                                               *
 *  x    -40.000005      0.000000      0.000000  *
 *  y      0.000000    -39.999999      0.000000  *
 *  z      0.000000      0.000000    -39.999998  *
 *                                               *
 *  Pressure:   40.0000                          *
 *                                               *
 *************************************************
  
 +------------+-------------+-------------+-----------------+ <-- min LBFGS
 |    Step    |   lambda    |   F.delta'  |    enthalpy     | <-- min LBFGS
 +------------+-------------+-------------+-----------------+ <-- min LBFGS
 |  previous  |    0.000000 |  2.059E-007 |     -117.622416 | <-- min LBFGS
 | trial step |    1.000000 |  4.426E-009 |     -117.622416 | <-- min LBFGS
 +------------+-------------+-------------+-----------------+ <-- min LBFGS
  
 LBFGS: finished iteration    18 with enthalpy= -1.17622416E+002 eV
  
 +-----------+-----------------+-----------------+------------+-----+ <-- LBFGS
 | Parameter |      value      |    tolerance    |    units   | OK? | <-- LBFGS
 +-----------+-----------------+-----------------+------------+-----+ <-- LBFGS
 |  dE/ion   |   2.084539E-013 |   1.000000E-009 |         eV | Yes | <-- LBFGS
 |  |F|max   |   6.025324E-007 |   1.000000E-005 |       eV/A | Yes | <-- LBFGS
 |  |dR|max  |   5.853469E-007 |   1.000000E-005 |          A | Yes | <-- LBFGS
 |   Smax    |   4.525037E-006 |   1.000000E-005 |        GPa | Yes | <-- LBFGS
 +-----------+-----------------+-----------------+------------+-----+ <-- LBFGS
  
 LBFGS: Geometry optimization completed successfully.

================================================================================
 LBFGS: Final Configuration:
================================================================================

                           -------------------------------
                                      Unit Cell
                           -------------------------------
        Real Lattice(A)              Reciprocal Lattice(1/A)
     3.6402865     0.0000000     0.0000000        1.726013957   0.000000000   0.000000000
     0.0000000     2.1142943     0.0000000        0.000000000   2.971764790   0.000000000
     0.0000000     0.0000000     3.3838329        0.000000000   0.000000000   1.856824922

                       Lattice parameters(A)       Cell Angles
                    a =      3.640287          alpha =   90.000000
                    b =      2.114294          beta  =   90.000000
                    c =      3.383833          gamma =   90.000000

                Current cell volume =            26.044133 A**3

                           -------------------------------
                                     Cell Contents
                           -------------------------------

            xxxxxxxxxxxxxxxxxxxxxxxxxxxxxxxxxxxxxxxxxxxxxxxxxxxxxxxxxxxxxxxxx
            x  Element         Atom        Fractional coordinates of atoms  x
            x                 Number           u          v          w      x
            x---------------------------------------------------------------x
            x  H                 1         0.357809   0.145117   0.380294   x
            x  H                 2         0.475053   0.357625   0.498606   x
            x  H                 3         0.975053   0.642375   0.498606   x
            x  H                 4         0.857809   0.854883   0.380294   x
            x  H                 5         0.024947   0.357625  -0.001394   x
            x  H                 6         0.142191   0.145117   0.880294   x
            x  H                 7         0.524947   0.642375  -0.001394   x
            x  H                 8         0.642191   0.854883   0.880294   x
            xxxxxxxxxxxxxxxxxxxxxxxxxxxxxxxxxxxxxxxxxxxxxxxxxxxxxxxxxxxxxxxxx


 LBFGS: Final Enthalpy     = -1.17622416E+002 eV
 LBFGS: Final <frequency>  =    1288.46150 cm-1
 LBFGS: Final bulk modulus =     113.71745 GPa

 ******************************** Symmetrised Forces ********************************
 *                                                                                  *
 *                           Cartesian components (eV/A)                            *
 * -------------------------------------------------------------------------------- *
 *                         x                    y                    z              *
 *                                                                                  *
 * H               1     -0.00000              0.00000              0.00000         *
 * H               2     -0.00000              0.00000             -0.00000         *
 * H               3     -0.00000             -0.00000             -0.00000         *
 * H               4     -0.00000             -0.00000              0.00000         *
 * H               5      0.00000              0.00000             -0.00000         *
 * H               6      0.00000              0.00000              0.00000         *
 * H               7      0.00000             -0.00000             -0.00000         *
 * H               8      0.00000             -0.00000              0.00000         *
 *                                                                                  *
 ************************************************************************************

 *********** Symmetrised Stress Tensor ***********
 *                                               *
 *          Cartesian components (GPa)           *
 * --------------------------------------------- *
 *             x             y             z     *
 *                                               *
 *  x    -40.000005      0.000000      0.000000  *
 *  y      0.000000    -39.999999      0.000000  *
 *  z      0.000000      0.000000    -39.999998  *
 *                                               *
 *  Pressure:   40.0000                          *
 *                                               *
 *************************************************

 Pseudo atomic calculation performed for H 1s1

 Converged in 24 iterations to a total energy of -12.4855 eV

Charge spilling parameter for spin component 1 = 0.69%

            Orbital Populations       
     Ion    Atom   Orbital             Charge
  -------------------------------------------
      H     1      S                    0.998
      H     2      S                    1.001
      H     3      S                    1.000
      H     4      S                    1.000
      H     5      S                    0.999
      H     6      S                    1.001
      H     7      S                    1.003
      H     8      S                    0.999
  -------------------------------------------
                           Total:       8.000
  -------------------------------------------

     Atomic Populations (Mulliken)
     -----------------------------
Species          Ion     s      p      d      f     Total  Charge (e)
=====================================================================
  H               1     1.00   0.00   0.00   0.00   1.00     0.00
  H               2     1.00   0.00   0.00   0.00   1.00    -0.00
  H               3     1.00   0.00   0.00   0.00   1.00    -0.00
  H               4     1.00   0.00   0.00   0.00   1.00     0.00
  H               5     1.00   0.00   0.00   0.00   1.00    -0.00
  H               6     1.00   0.00   0.00   0.00   1.00     0.00
  H               7     1.00   0.00   0.00   0.00   1.00    -0.00
  H               8     1.00   0.00   0.00   0.00   1.00     0.00
=====================================================================

                 Bond                   Population      Length (A)
======================================================================
               H 5 -- H 6                    1.28        0.73778
               H 1 -- H 2                    1.28        0.73778
               H 3 -- H 4                    1.28        0.73778
               H 7 -- H 8                    1.28        0.73778
               H 1 -- H 7                   -0.21        1.77304
               H 3 -- H 6                   -0.21        1.77304
               H 4 -- H 5                   -0.21        1.77304
               H 2 -- H 8                   -0.21        1.77304
               H 1 -- H 3                   -0.19        1.79081
               H 2 -- H 4                   -0.19        1.79081
               H 6 -- H 7                   -0.19        1.79081
               H 5 -- H 8                   -0.19        1.79081
               H 3 -- H 5                   -0.19        1.80500
               H 2 -- H 7                   -0.19        1.80500
               H 1 -- H 5                   -0.09        1.82709
               H 4 -- H 7                   -0.09        1.82709
               H 3 -- H 8                   -0.09        1.82709
               H 2 -- H 6                   -0.09        1.82709
               H 4 -- H 8                   -0.08        1.86512
               H 1 -- H 6                   -0.08        1.86512
               H 5 -- H 7                   -0.18        1.91713
               H 2 -- H 3                   -0.18        1.91713
               H 6 -- H 8                   -0.23        1.92080
               H 1 -- H 4                   -0.23        1.92080
               H 4 -- H 6                   -0.22        2.07626
               H 1 -- H 8                   -0.22        2.07626
======================================================================


Writing analysis data to Pca21.castep_bin

Writing model to Pca21.check
 
 A BibTeX formatted list of references used in this run has been written to 
 Pca21.bib
 
Initialisation time =      3.43 s
Calculation time    =    536.25 s
Finalisation time   =      4.61 s
Total time          =    544.28 s
Peak Memory Use     = 558692 kB
  
Overall parallel efficiency rating: Very good (86%)                             
  
Data was distributed by:-
k-point (32-way); efficiency rating: Very good (86%)                            
  
Parallel notes:
1) Calculation only took 539.7 s, so efficiency estimates may be inaccurate.    
