 +-------------------------------------------------+
 |                                                 |
 |      CCC   AA    SSS  TTTTT  EEEEE  PPPP        |
 |     C     A  A  S       T    E      P   P       |
 |     C     AAAA   SS     T    EEE    PPPP        |
 |     C     A  A     S    T    E      P           |
 |      CCC  A  A  SSS     T    EEEEE  P           |
 |                                                 |
 +-------------------------------------------------+
 |                                                 |
 | Welcome to Academic Release CASTEP version 18.1 |          
 | Ab Initio Total Energy Program                  |
 |                                                 |
 | Authors:                                        |
 | M. Segall, M. Probert, C. Pickard, P. Hasnip,   |
 | S. Clark, K. Refson, J. R. Yates, M. Payne      |
 |                                                 |
 | Contributors:                                   |
 | P. Lindan, P. Haynes, J. White, V. Milman,      |
 | N. Govind, M. Gibson, P. Tulip, V. Cocula,      |
 | B. Montanari, D. Quigley, M. Glover,            |
 | L. Bernasconi, A. Perlov, M. Plummer,           |
 | E. McNellis, J. Meyer, J. Gale, D. Jochym       |
 | J. Aarons, B. Walker, R. Gillen, D. Jones       |
 | T. Green, I. J. Bush, C. J. Armstrong,          |
 | E. J. Higgins, E. L. Brown, M. S. McFly,        |
 | J. Wilkins, B-C. Shih, P. J. P. Byrne           |
 |                                                 |
 | Copyright (c) 2000 - 2017                       |
 |                                                 |
 |     Distributed under the terms of an           |
 |     Agreement between the United Kingdom        |
 |     Car-Parrinello (UKCP) Consortium,           |
 |     Daresbury Laboratory and Accelrys, Inc.     |
 |                                                 |
 | Please cite                                     |
 |                                                 |
 |     "First principles methods using CASTEP"     |
 |                                                 |
 |         Zeitschrift fuer Kristallographie       |
 |           220(5-6) pp. 567-570 (2005)           |
 |                                                 |
 | S. J. Clark, M. D. Segall, C. J. Pickard,       |
 | P. J. Hasnip, M. J. Probert, K. Refson,         |
 | M. C. Payne                                     |
 |                                                 |
 |       in all publications arising from          |
 |              your use of CASTEP                 |
 |                                                 |
 +-------------------------------------------------+


 Compiled for linux_x86_64_gfortran4.8 on Thu, 19 Jul 2018 15:42:32 +0100
 from code version 70483bd0ad64+  Sun, 10 Dec 2017 12:18:29 +0000
 Compiler: GNU Fortran 4.8.5; Optimisation: fast
 MATHLIBS: Intel MKL(2018.0.0) (LAPACK version 3.7.0)
 FFT Lib : mkl
 Fundamental constants values: CODATA 2014

 Run started: Sun, 30 Aug 2020 23:26:40 +0100

 Atomic calculation performed for H: 1s1

 Converged in 41 iterations to an ae energy of -12.488 eV

   ============================================================                
   | Pseudopotential Report - Date of generation 30-08-2020   |                
   ------------------------------------------------------------                
   | Element: H Ionic charge:  1.00 Level of theory: PBE      |                
   | Atomic Solver: Koelling-Harmon                           |                
   |                                                          |                
   |               Reference Electronic Structure             |                
   |         Orbital         Occupation         Energy        |                
   |            1s              1.000           -0.239        |                
   |                                                          |                
   |                 Pseudopotential Definition               |                
   |        Beta     l      e      Rc     scheme   norm       |                
   |         loc     0   -0.239   0.702     qc      1         |                
   |                                                          |                
   | No charge augmentation                                   |                
   | No partial core correction                               |                
   ------------------------------------------------------------                
   | "0|0.7|2|6|8|10L(qc=10)"                                 |                
   ------------------------------------------------------------                
   |      Author: Chris J. Pickard, Cambridge University      |                
   ============================================================                

 Pseudo atomic calculation performed for H 1s1

 Converged in 24 iterations to a total energy of -12.4855 eV

 Calculation parallelised over 32 processes.
 Data is distributed by k-point(32-way)

 ************************************ Title ************************************
 

 ***************************** General Parameters ******************************
  
 output verbosity                               : normal  (1)
 write checkpoint data to                       : Pca21.check
 type of calculation                            : geometry optimization
 stress calculation                             : on
 density difference calculation                 : off
 electron localisation func (ELF) calculation   : off
 Hirshfeld analysis                             : off
 unlimited duration calculation
 timing information                             : on
 memory usage estimate                          : on
 write extra output files                       : on
 write final potential to formatted file        : off
 write final density to formatted file          : off
 write structure in CELL formatted file         : on
 write BibTeX reference list                    : on
 write OTFG pseudopotential files               : on
 write electrostatic potential file             : on
 write bands file                               : on
 checkpoint writing                             : both castep_bin and check files
  
 output         length unit                     : A
 output           mass unit                     : amu
 output           time unit                     : ps
 output         charge unit                     : e
 output           spin unit                     : hbar/2
 output         energy unit                     : eV
 output          force unit                     : eV/A
 output       velocity unit                     : A/ps
 output       pressure unit                     : GPa
 output     inv_length unit                     : 1/A
 output      frequency unit                     : cm-1
 output force constant unit                     : eV/A**2
 output         volume unit                     : A**3
 output   IR intensity unit                     : (D/A)**2/amu
 output         dipole unit                     : D
 output         efield unit                     : eV/A/e
 output        entropy unit                     : J/mol/K
  
 wavefunctions paging                           : none
 random number generator seed                   : randomised (232640714)
 data distribution                              : optimal for this architecture
 optimization strategy                          : maximize speed(+++)

 *********************** Exchange-Correlation Parameters ***********************
  
 using functional                               : Perdew Burke Ernzerhof
 relativistic treatment                         : Koelling-Harmon
 DFT+D: Semi-empirical dispersion correction    : off

 ************************* Pseudopotential Parameters **************************
  
 pseudopotential representation                 : reciprocal space
 <beta|phi> representation                      : reciprocal space
 spin-orbit coupling                            : off

 **************************** Basis Set Parameters *****************************
  
 plane wave basis set cut-off                   :  1600.0000   eV
 size of standard grid                          :     2.0000
 size of   fine   gmax                          :    40.9853   1/A
 finite basis set correction                    : automatic
 number of sample energies                      :          3
           sample  spacing                      :     5.0000   eV

 **************************** Electronic Parameters ****************************
  
 number of  electrons                           :  8.000    
 net charge of system                           :  0.000    
 treating system as non-spin-polarized
 number of bands                                :          4

 ********************* Electronic Minimization Parameters **********************
  
 Method: Treating system as non-metallic,
         and number of  SD  steps               :          1
         and number of  CG  steps               :          4
  
 total energy / atom convergence tol.           : 0.1000E-10   eV
 eigen-energy convergence tolerance             : 0.2000E-10   eV
 max force / atom convergence tol.              : ignored
 convergence tolerance window                   :          3   cycles
 max. number of SCF cycles                      :        200
 periodic dipole correction                     : NONE

 ************************** Density Mixing Parameters **************************
  
 density-mixing scheme                          : Broyden
 max. length of mixing history                  :         20
 charge density mixing amplitude                : 0.8000    
 cut-off energy for mixing                      :  1600.       eV

 *********************** Population Analysis Parameters ************************
  
 Population analysis with cutoff                :  3.000       A
 Population analysis output                     : summary and pdos components

 ********************** Geometry Optimization Parameters ***********************
  
 optimization method                            : LBFGS
 max. no. of LBFGS updates                      : unbounded
 variable cell method                           : fixed basis quality
 max. number of steps                           :        200
 estimated bulk modulus                         :  500.0       GPa
 estimated <frequency>                          :  1668.       cm-1
 geom line minimiser                            : on
 with line minimiser tolerance                  :     0.4000
 total energy convergence tolerance             : 0.1000E-08   eV/atom
        max ionic |force| tolerance             : 0.1000E-04   eV/A
 max ionic |displacement| tolerance             : 0.1000E-04   A
   max |stress component| tolerance             : 0.1000E-04   GPa
 convergence tolerance window                   :          2   steps
 backup results every                           : 2147483647   steps
 write geom trajectory file                     : on

 *******************************************************************************
  

                           -------------------------------
                                      Unit Cell
                           -------------------------------
        Real Lattice(A)                      Reciprocal Lattice(1/A)
     3.2586531     0.0000000     0.0000000        1.928154080   0.000000000   0.000000000
     0.0000000     1.8936132     0.0000000        0.000000000   3.318093353   0.000000000
     0.0000000     0.0000000     2.9968018        0.000000000   0.000000000   2.096630247

                       Lattice parameters(A)       Cell Angles
                    a =      3.258653          alpha =   90.000000
                    b =      1.893613          beta  =   90.000000
                    c =      2.996802          gamma =   90.000000

                       Current cell volume =            18.492151       A**3
                                   density =             0.436051   AMU/A**3
                                           =             0.724080     g/cm^3

                           -------------------------------
                                     Cell Contents
                           -------------------------------
                         Total number of ions in cell =    8
                      Total number of species in cell =    1
                        Max number of any one species =    8

            xxxxxxxxxxxxxxxxxxxxxxxxxxxxxxxxxxxxxxxxxxxxxxxxxxxxxxxxxxxx
            x  Element    Atom        Fractional coordinates of atoms  x
            x            Number           u          v          w      x
            x----------------------------------------------------------x
            x  H            1         0.348720   0.129860   0.377872   x 
            x  H            2         0.485027   0.367334   0.501029   x 
            x  H            3         0.985027   0.632666   0.501029   x 
            x  H            4         0.848720   0.870140   0.377872   x 
            x  H            5         0.014973   0.367334   0.001029   x 
            x  H            6         0.151280   0.129860   0.877872   x 
            x  H            7         0.514973   0.632666   0.001029   x 
            x  H            8         0.651280   0.870140   0.877872   x 
            xxxxxxxxxxxxxxxxxxxxxxxxxxxxxxxxxxxxxxxxxxxxxxxxxxxxxxxxxxxx


                         No user defined ionic velocities

                           -------------------------------
                                   Details of Species
                           -------------------------------

                               Mass of species in AMU
                                    H    1.0078250

                          Electric Quadrupole Moment (Barn)
                                    H    0.0028600 Isotope  2

                          Files used for pseudopotentials:
                                    H 0|0.7|2|6|8|10L(qc=10)

                           -------------------------------
                              k-Points For BZ Sampling
                           -------------------------------
                       MP grid size for SCF calculation is 15 15 15
                            with an offset of   0.000  0.000  0.000
                       Number of kpoints used =           512

                           -------------------------------
                               Symmetry and Constraints
                           -------------------------------

                      Maximum deviation from symmetry = 0.565610E-14     ANG

                      Number of symmetry operations   =           4
                      Number of ionic constraints     =           3
                      Point group of crystal =     6: C2v, mm2, 2 mm
                      Space group of crystal =    29: Pca2_1, P 2c -2ac

             Set iprint > 1 for details on symmetry rotations/translations

                         Centre of mass is constrained
             Set iprint > 1 for details of linear ionic constraints

                         Number of cell constraints= 3
                         Cell constraints are:  1 2 3 0 0 0

                         External pressure/stress (GPa)
                        110.00000   0.00000   0.00000
                                  110.00000   0.00000
                                            110.00000
  
+---------------- MEMORY AND SCRATCH DISK ESTIMATES PER PROCESS --------------+
|                                                     Memory          Disk    |
| Baseline code, static data and system overhead      476.0 MB         0.0 MB |
| BLAS internal memory storage                          0.0 MB         0.0 MB |
| Model and support data                               24.0 MB         0.0 MB |
| Electronic energy minimisation requirements          15.5 MB         0.0 MB |
| Force calculation requirements                        5.1 MB         0.0 MB |
| Stress calculation requirements                       6.5 MB         0.0 MB |
|                                               ----------------------------- |
| Approx. total storage required per process          515.4 MB         0.0 MB |
|                                                                             |
| Requirements will fluctuate during execution and may exceed these estimates |
+-----------------------------------------------------------------------------+
Calculating finite basis set correction with  3 cut-off energies.
Calculating total energy with cut-off of 1590.000 eV.
------------------------------------------------------------------------ <-- SCF
SCF loop      Energy                           Energy gain       Timer   <-- SCF
                                               per atom          (sec)   <-- SCF
------------------------------------------------------------------------ <-- SCF
Initial   1.97735543E+002                                          3.69  <-- SCF
      1  -1.01263017E+002                    3.73748200E+001       5.15  <-- SCF
      2  -1.21625138E+002                    2.54526515E+000       6.21  <-- SCF
      3  -1.21119950E+002                   -6.31485055E-002       7.89  <-- SCF
      4  -1.21097303E+002                   -2.83090468E-003       9.59  <-- SCF
      5  -1.21097847E+002                    6.80190647E-005      11.31  <-- SCF
      6  -1.21097896E+002                    6.06744559E-006      13.08  <-- SCF
      7  -1.21097896E+002                    9.12250977E-009      14.77  <-- SCF
      8  -1.21097896E+002                    8.64841918E-010      16.50  <-- SCF
      9  -1.21097896E+002                    1.28455927E-011      17.81  <-- SCF
     10  -1.21097896E+002                    6.37445924E-013      19.10  <-- SCF
     11  -1.21097896E+002                   -3.32317780E-014      20.34  <-- SCF
------------------------------------------------------------------------ <-- SCF
 
Final energy =  -121.0978959404     eV
(energy not corrected for finite basis set)
 
Calculating total energy with cut-off of 1595.000 eV.
------------------------------------------------------------------------ <-- SCF
SCF loop      Energy                           Energy gain       Timer   <-- SCF
                                               per atom          (sec)   <-- SCF
------------------------------------------------------------------------ <-- SCF
Initial  -1.21097896E+002                                         21.25  <-- SCF
      1  -1.21097912E+002                    1.95043613E-006      22.54  <-- SCF
      2  -1.21097912E+002                    1.87004278E-012      23.81  <-- SCF
      3  -1.21097912E+002                    5.78229917E-010      25.12  <-- SCF
      4  -1.21097912E+002                    3.61289849E-011      26.53  <-- SCF
      5  -1.21097912E+002                    4.32013114E-013      27.78  <-- SCF
      6  -1.21097912E+002                    1.69179961E-013      29.04  <-- SCF
------------------------------------------------------------------------ <-- SCF
 
Final energy =  -121.0979115489     eV
(energy not corrected for finite basis set)
 
Calculating total energy with cut-off of 1600.000 eV.
------------------------------------------------------------------------ <-- SCF
SCF loop      Energy                           Energy gain       Timer   <-- SCF
                                               per atom          (sec)   <-- SCF
------------------------------------------------------------------------ <-- SCF
Initial  -1.21097912E+002                                         29.93  <-- SCF
      1  -1.21097926E+002                    1.79984929E-006      31.19  <-- SCF
      2  -1.21097926E+002                    1.87910599E-012      32.45  <-- SCF
      3  -1.21097926E+002                    5.25690476E-010      33.70  <-- SCF
      4  -1.21097926E+002                    3.26456903E-011      34.97  <-- SCF
      5  -1.21097926E+002                    2.47727800E-013      36.24  <-- SCF
      6  -1.21097926E+002                   -3.02107073E-014      37.48  <-- SCF
------------------------------------------------------------------------ <-- SCF
 
Final energy =  -121.0979259521     eV
(energy not corrected for finite basis set)
 
 For future reference: finite basis dEtot/dlog(Ecut) =      -0.004772eV
 Total energy corrected for finite basis set =    -121.097926 eV
 
+---------------- MEMORY AND SCRATCH DISK ESTIMATES PER PROCESS --------------+
|                                                     Memory          Disk    |
| Model and support data                               32.9 MB         0.0 MB |
| Electronic energy minimisation requirements          15.5 MB         0.0 MB |
| Geometry minimisation requirements                   19.6 MB         0.0 MB |
|                                               ----------------------------- |
| Approx. total storage required per process           67.9 MB         0.0 MB |
|                                                                             |
| Requirements will fluctuate during execution and may exceed these estimates |
+-----------------------------------------------------------------------------+
 

 ******************************** Symmetrised Forces ********************************
 *                                                                                  *
 *                           Cartesian components (eV/A)                            *
 * -------------------------------------------------------------------------------- *
 *                         x                    y                    z              *
 *                                                                                  *
 * H               1     -0.00000             -0.00000              0.00000         *
 * H               2      0.00000              0.00000             -0.00000         *
 * H               3      0.00000             -0.00000             -0.00000         *
 * H               4     -0.00000              0.00000              0.00000         *
 * H               5     -0.00000              0.00000             -0.00000         *
 * H               6      0.00000             -0.00000              0.00000         *
 * H               7     -0.00000             -0.00000             -0.00000         *
 * H               8      0.00000              0.00000              0.00000         *
 *                                                                                  *
 ************************************************************************************

 *********** Symmetrised Stress Tensor ***********
 *                                               *
 *          Cartesian components (GPa)           *
 * --------------------------------------------- *
 *             x             y             z     *
 *                                               *
 *  x   -100.000401      0.000000      0.000000  *
 *  y      0.000000   -100.000403      0.000000  *
 *  z      0.000000      0.000000   -100.000407  *
 *                                               *
 *  Pressure:  100.0004                          *
 *                                               *
 *************************************************
 LBFGS: finished iteration     0 with enthalpy= -1.08401844E+002 eV
  
 +-----------+-----------------+-----------------+------------+-----+ <-- LBFGS
 | Parameter |      value      |    tolerance    |    units   | OK? | <-- LBFGS
 +-----------+-----------------+-----------------+------------+-----+ <-- LBFGS
 |  dE/ion   |   0.000000E+000 |   1.000000E-009 |         eV | No  | <-- LBFGS
 |  |F|max   |   2.057948E-007 |   1.000000E-005 |       eV/A | Yes | <-- LBFGS
 |  |dR|max  |   0.000000E+000 |   1.000000E-005 |          A | No  | <-- LBFGS
 |   Smax    |   9.999599E+000 |   1.000000E-005 |        GPa | No  | <-- LBFGS
 +-----------+-----------------+-----------------+------------+-----+ <-- LBFGS
  

================================================================================
 Starting LBFGS iteration          1 ...
================================================================================
  
 +------------+-------------+-------------+-----------------+ <-- min LBFGS
 |    Step    |   lambda    |   F.delta'  |    enthalpy     | <-- min LBFGS
 +------------+-------------+-------------+-----------------+ <-- min LBFGS
 |  previous  |    0.000000 |    0.073463 |     -108.401844 | <-- min LBFGS
 +------------+-------------+-------------+-----------------+ <-- min LBFGS
  

--------------------------------------------------------------------------------
 LBFGS: starting iteration         1 with trial guess (lambda=  1.000000)
--------------------------------------------------------------------------------

                           -------------------------------
                                      Unit Cell
                           -------------------------------
        Real Lattice(A)              Reciprocal Lattice(1/A)
     3.2369296     0.0000000     0.0000000        1.941094189   0.000000000   0.000000000
     0.0000000     1.8809896     0.0000000        0.000000000   3.340361533   0.000000000
     0.0000000     0.0000000     2.9768239        0.000000000   0.000000000   2.110701014

                       Lattice parameters(A)       Cell Angles
                    a =      3.236930          alpha =   90.000000
                    b =      1.880990          beta  =   90.000000
                    c =      2.976824          gamma =   90.000000

                Current cell volume =            18.124782 A**3

                           -------------------------------
                                     Cell Contents
                           -------------------------------

            xxxxxxxxxxxxxxxxxxxxxxxxxxxxxxxxxxxxxxxxxxxxxxxxxxxxxxxxxxxxxxxxx
            x  Element         Atom        Fractional coordinates of atoms  x
            x                 Number           u          v          w      x
            x---------------------------------------------------------------x
            x  H                 1         0.348720   0.129860   0.377872   x
            x  H                 2         0.485027   0.367334   0.501029   x
            x  H                 3         0.985027   0.632666   0.501029   x
            x  H                 4         0.848720   0.870140   0.377872   x
            x  H                 5         0.014973   0.367334   0.001029   x
            x  H                 6         0.151280   0.129860   0.877872   x
            x  H                 7         0.514973   0.632666   0.001029   x
            x  H                 8         0.651280   0.870140   0.877872   x
            xxxxxxxxxxxxxxxxxxxxxxxxxxxxxxxxxxxxxxxxxxxxxxxxxxxxxxxxxxxxxxxxx


------------------------------------------------------------------------ <-- SCF
SCF loop      Energy                           Energy gain       Timer   <-- SCF
                                               per atom          (sec)   <-- SCF
------------------------------------------------------------------------ <-- SCF
Initial  -1.20858438E+002                                         39.34  <-- SCF
      1  -1.20861412E+002                    3.71802162E-004      40.62  <-- SCF
      2  -1.20861420E+002                    1.06339871E-006      42.34  <-- SCF
      3  -1.20861300E+002                   -1.50998561E-005      44.04  <-- SCF
      4  -1.20861296E+002                   -4.61144281E-007      45.74  <-- SCF
      5  -1.20861296E+002                    1.34349342E-008      47.42  <-- SCF
      6  -1.20861296E+002                    1.24329749E-009      49.13  <-- SCF
      7  -1.20861296E+002                    3.60413738E-012      50.41  <-- SCF
      8  -1.20861296E+002                    2.74917436E-013      51.66  <-- SCF
------------------------------------------------------------------------ <-- SCF
 
Final energy =  -120.8612960682     eV
(energy not corrected for finite basis set)
 

 ******************************** Symmetrised Forces ********************************
 *                                                                                  *
 *                           Cartesian components (eV/A)                            *
 * -------------------------------------------------------------------------------- *
 *                         x                    y                    z              *
 *                                                                                  *
 * H               1     -0.09052             -0.09297             -0.07483         *
 * H               2      0.09067              0.09067              0.07483         *
 * H               3      0.09067             -0.09067              0.07483         *
 * H               4     -0.09052              0.09297             -0.07483         *
 * H               5     -0.09067              0.09067              0.07483         *
 * H               6      0.09052             -0.09297             -0.07483         *
 * H               7     -0.09067             -0.09067              0.07483         *
 * H               8      0.09052              0.09297             -0.07483         *
 *                                                                                  *
 ************************************************************************************

 *********** Symmetrised Stress Tensor ***********
 *                                               *
 *          Cartesian components (GPa)           *
 * --------------------------------------------- *
 *             x             y             z     *
 *                                               *
 *  x   -106.660513      0.000000      0.000000  *
 *  y      0.000000   -106.666594      0.000000  *
 *  z      0.000000      0.000000   -106.095957  *
 *                                               *
 *  Pressure:  106.4744                          *
 *                                               *
 *************************************************
  
 +------------+-------------+-------------+-----------------+ <-- min LBFGS
 |    Step    |   lambda    |   F.delta'  |    enthalpy     | <-- min LBFGS
 +------------+-------------+-------------+-----------------+ <-- min LBFGS
 |  previous  |    0.000000 |    0.073463 |     -108.401844 | <-- min LBFGS
 | trial step |    1.000000 |    0.025557 |     -108.417437 | <-- min LBFGS
 +------------+-------------+-------------+-----------------+ <-- min LBFGS
  

--------------------------------------------------------------------------------
 LBFGS: improving iteration         1 with line minimization (lambda=  1.533492)
--------------------------------------------------------------------------------

                           -------------------------------
                                      Unit Cell
                           -------------------------------
        Real Lattice(A)              Reciprocal Lattice(1/A)
     3.2253403     0.0000000     0.0000000        1.948068936   0.000000000   0.000000000
     0.0000000     1.8742550     0.0000000        0.000000000   3.352364132   0.000000000
     0.0000000     0.0000000     2.9661659        0.000000000   0.000000000   2.118285189

                       Lattice parameters(A)       Cell Angles
                    a =      3.225340          alpha =   90.000000
                    b =      1.874255          beta  =   90.000000
                    c =      2.966166          gamma =   90.000000

                Current cell volume =            17.930800 A**3

                           -------------------------------
                                     Cell Contents
                           -------------------------------

            xxxxxxxxxxxxxxxxxxxxxxxxxxxxxxxxxxxxxxxxxxxxxxxxxxxxxxxxxxxxxxxxx
            x  Element         Atom        Fractional coordinates of atoms  x
            x                 Number           u          v          w      x
            x---------------------------------------------------------------x
            x  H                 1         0.348720   0.129860   0.377872   x
            x  H                 2         0.485027   0.367334   0.501029   x
            x  H                 3         0.985027   0.632666   0.501029   x
            x  H                 4         0.848720   0.870140   0.377872   x
            x  H                 5         0.014973   0.367334   0.001029   x
            x  H                 6         0.151280   0.129860   0.877872   x
            x  H                 7         0.514973   0.632666   0.001029   x
            x  H                 8         0.651280   0.870140   0.877872   x
            xxxxxxxxxxxxxxxxxxxxxxxxxxxxxxxxxxxxxxxxxxxxxxxxxxxxxxxxxxxxxxxxx


------------------------------------------------------------------------ <-- SCF
SCF loop      Energy                           Energy gain       Timer   <-- SCF
                                               per atom          (sec)   <-- SCF
------------------------------------------------------------------------ <-- SCF
Initial  -1.20729402E+002                                         53.73  <-- SCF
      1  -1.20730253E+002                    1.06409545E-004      55.02  <-- SCF
      2  -1.20730255E+002                    3.02827967E-007      56.67  <-- SCF
      3  -1.20730221E+002                   -4.28926179E-006      58.53  <-- SCF
      4  -1.20730220E+002                   -1.31890722E-007      60.34  <-- SCF
      5  -1.20730220E+002                    3.75276500E-009      62.03  <-- SCF
      6  -1.20730220E+002                    3.46344612E-010      63.67  <-- SCF
      7  -1.20730220E+002                    1.10571189E-012      64.93  <-- SCF
      8  -1.20730220E+002                   -1.51053536E-014      66.22  <-- SCF
------------------------------------------------------------------------ <-- SCF
 
Final energy =  -120.7302200122     eV
(energy not corrected for finite basis set)
 

 ******************************** Symmetrised Forces ********************************
 *                                                                                  *
 *                           Cartesian components (eV/A)                            *
 * -------------------------------------------------------------------------------- *
 *                         x                    y                    z              *
 *                                                                                  *
 * H               1     -0.13988             -0.14367             -0.11563         *
 * H               2      0.14010              0.14010              0.11563         *
 * H               3      0.14010             -0.14010              0.11563         *
 * H               4     -0.13988              0.14367             -0.11563         *
 * H               5     -0.14010              0.14010              0.11563         *
 * H               6      0.13988             -0.14367             -0.11563         *
 * H               7     -0.14010             -0.14010              0.11563         *
 * H               8      0.13988              0.14367             -0.11563         *
 *                                                                                  *
 ************************************************************************************

 *********** Symmetrised Stress Tensor ***********
 *                                               *
 *          Cartesian components (GPa)           *
 * --------------------------------------------- *
 *             x             y             z     *
 *                                               *
 *  x   -110.362525      0.000000      0.000000  *
 *  y      0.000000   -110.371722      0.000000  *
 *  z      0.000000      0.000000   -109.482367  *
 *                                               *
 *  Pressure:  110.0722                          *
 *                                               *
 *************************************************
  
 +------------+-------------+-------------+-----------------+ <-- min LBFGS
 |    Step    |   lambda    |   F.delta'  |    enthalpy     | <-- min LBFGS
 +------------+-------------+-------------+-----------------+ <-- min LBFGS
 |  previous  |    0.000000 |    0.073463 |     -108.401844 | <-- min LBFGS
 | trial step |    1.000000 |    0.025557 |     -108.417437 | <-- min LBFGS
 |  line step |    1.533492 |   -0.000520 |     -108.419542 | <-- min LBFGS
 +------------+-------------+-------------+-----------------+ <-- min LBFGS
  
 LBFGS: finished iteration     1 with enthalpy= -1.08419542E+002 eV
  
 +-----------+-----------------+-----------------+------------+-----+ <-- LBFGS
 | Parameter |      value      |    tolerance    |    units   | OK? | <-- LBFGS
 +-----------+-----------------+-----------------+------------+-----+ <-- LBFGS
 |  dE/ion   |   2.212286E-003 |   1.000000E-009 |         eV | No  | <-- LBFGS
 |  |F|max   |   2.314710E-001 |   1.000000E-005 |       eV/A | No  | <-- LBFGS
 |  |dR|max  |   3.029911E-008 |   1.000000E-005 |          A | Yes | <-- LBFGS
 |   Smax    |   5.176335E-001 |   1.000000E-005 |        GPa | No  | <-- LBFGS
 +-----------+-----------------+-----------------+------------+-----+ <-- LBFGS
  

================================================================================
 Starting LBFGS iteration          2 ...
================================================================================
  
 +------------+-------------+-------------+-----------------+ <-- min LBFGS
 |    Step    |   lambda    |   F.delta'  |    enthalpy     | <-- min LBFGS
 +------------+-------------+-------------+-----------------+ <-- min LBFGS
 |  previous  |    0.000000 |    0.045335 |     -108.419542 | <-- min LBFGS
 +------------+-------------+-------------+-----------------+ <-- min LBFGS
  

--------------------------------------------------------------------------------
 LBFGS: starting iteration         2 with trial guess (lambda=  1.000000)
--------------------------------------------------------------------------------

                           -------------------------------
                                      Unit Cell
                           -------------------------------
        Real Lattice(A)              Reciprocal Lattice(1/A)
     3.1886892     0.0000000     0.0000000        1.970460269   0.000000000   0.000000000
     0.0000000     1.8529682     0.0000000        0.000000000   3.390875925   0.000000000
     0.0000000     0.0000000     2.9307493        0.000000000   0.000000000   2.143883568

                       Lattice parameters(A)       Cell Angles
                    a =      3.188689          alpha =   90.000000
                    b =      1.852968          beta  =   90.000000
                    c =      2.930749          gamma =   90.000000

                Current cell volume =            17.316449 A**3

                           -------------------------------
                                     Cell Contents
                           -------------------------------

            xxxxxxxxxxxxxxxxxxxxxxxxxxxxxxxxxxxxxxxxxxxxxxxxxxxxxxxxxxxxxxxxx
            x  Element         Atom        Fractional coordinates of atoms  x
            x                 Number           u          v          w      x
            x---------------------------------------------------------------x
            x  H                 1         0.344627   0.122627   0.374193   x
            x  H                 2         0.489126   0.374387   0.504707   x
            x  H                 3         0.989126   0.625613   0.504707   x
            x  H                 4         0.844627   0.877373   0.374193   x
            x  H                 5         0.010874   0.374387   0.004707   x
            x  H                 6         0.155373   0.122627   0.874193   x
            x  H                 7         0.510874   0.625613   0.004707   x
            x  H                 8         0.655373   0.877373   0.874193   x
            xxxxxxxxxxxxxxxxxxxxxxxxxxxxxxxxxxxxxxxxxxxxxxxxxxxxxxxxxxxxxxxxx


------------------------------------------------------------------------ <-- SCF
SCF loop      Energy                           Energy gain       Timer   <-- SCF
                                               per atom          (sec)   <-- SCF
------------------------------------------------------------------------ <-- SCF
Initial  -1.19878626E+002                                         68.05  <-- SCF
      1  -1.20274795E+002                    4.95211835E-002      69.27  <-- SCF
      2  -1.20276243E+002                    1.80997799E-004      70.92  <-- SCF
      3  -1.20253030E+002                   -2.90160232E-003      72.65  <-- SCF
      4  -1.20252041E+002                   -1.23608262E-004      74.37  <-- SCF
      5  -1.20252047E+002                    6.58931954E-007      76.02  <-- SCF
      6  -1.20252047E+002                    4.91574339E-008      77.83  <-- SCF
      7  -1.20252047E+002                    1.11616479E-010      79.36  <-- SCF
      8  -1.20252047E+002                    6.32914318E-012      80.59  <-- SCF
      9  -1.20252047E+002                    1.41990324E-013      81.86  <-- SCF
------------------------------------------------------------------------ <-- SCF
 
Final energy =  -120.2520469703     eV
(energy not corrected for finite basis set)
 

 ******************************** Symmetrised Forces ********************************
 *                                                                                  *
 *                           Cartesian components (eV/A)                            *
 * -------------------------------------------------------------------------------- *
 *                         x                    y                    z              *
 *                                                                                  *
 * H               1      0.48772              0.48616              0.41159         *
 * H               2     -0.48081             -0.50615             -0.41159         *
 * H               3     -0.48081              0.50615             -0.41159         *
 * H               4      0.48772             -0.48616              0.41159         *
 * H               5      0.48081             -0.50615             -0.41159         *
 * H               6     -0.48772              0.48616              0.41159         *
 * H               7      0.48081              0.50615             -0.41159         *
 * H               8     -0.48772             -0.48616              0.41159         *
 *                                                                                  *
 ************************************************************************************

 *********** Symmetrised Stress Tensor ***********
 *                                               *
 *          Cartesian components (GPa)           *
 * --------------------------------------------- *
 *             x             y             z     *
 *                                               *
 *  x   -110.985454      0.000000      0.000000  *
 *  y      0.000000   -110.730787      0.000000  *
 *  z      0.000000      0.000000   -111.707116  *
 *                                               *
 *  Pressure:  111.1411                          *
 *                                               *
 *************************************************
  
 +------------+-------------+-------------+-----------------+ <-- min LBFGS
 |    Step    |   lambda    |   F.delta'  |    enthalpy     | <-- min LBFGS
 +------------+-------------+-------------+-----------------+ <-- min LBFGS
 |  previous  |    0.000000 |    0.045335 |     -108.419542 | <-- min LBFGS
 | trial step |    1.000000 |   -0.162677 |     -108.363162 | <-- min LBFGS
 +------------+-------------+-------------+-----------------+ <-- min LBFGS
  

--------------------------------------------------------------------------------
 LBFGS: improving iteration         2 with line minimization (lambda=  0.217943)
--------------------------------------------------------------------------------

                           -------------------------------
                                      Unit Cell
                           -------------------------------
        Real Lattice(A)              Reciprocal Lattice(1/A)
     3.2173525     0.0000000     0.0000000        1.952905489   0.000000000   0.000000000
     0.0000000     1.8696157     0.0000000        0.000000000   3.360682761   0.000000000
     0.0000000     0.0000000     2.9584471        0.000000000   0.000000000   2.123811938

                       Lattice parameters(A)       Cell Angles
                    a =      3.217352          alpha =   90.000000
                    b =      1.869616          beta  =   90.000000
                    c =      2.958447          gamma =   90.000000

                Current cell volume =            17.795689 A**3

                           -------------------------------
                                     Cell Contents
                           -------------------------------

            xxxxxxxxxxxxxxxxxxxxxxxxxxxxxxxxxxxxxxxxxxxxxxxxxxxxxxxxxxxxxxxxx
            x  Element         Atom        Fractional coordinates of atoms  x
            x                 Number           u          v          w      x
            x---------------------------------------------------------------x
            x  H                 1         0.347828   0.128284   0.377070   x
            x  H                 2         0.485920   0.368871   0.501830   x
            x  H                 3         0.985920   0.631129   0.501830   x
            x  H                 4         0.847828   0.871716   0.377070   x
            x  H                 5         0.014080   0.368871   0.001830   x
            x  H                 6         0.152172   0.128284   0.877070   x
            x  H                 7         0.514080   0.631129   0.001830   x
            x  H                 8         0.652172   0.871716   0.877070   x
            xxxxxxxxxxxxxxxxxxxxxxxxxxxxxxxxxxxxxxxxxxxxxxxxxxxxxxxxxxxxxxxxx


------------------------------------------------------------------------ <-- SCF
SCF loop      Energy                           Energy gain       Timer   <-- SCF
                                               per atom          (sec)   <-- SCF
------------------------------------------------------------------------ <-- SCF
Initial  -1.20422092E+002                                         83.61  <-- SCF
      1  -1.20654570E+002                    2.90597111E-002      84.84  <-- SCF
      2  -1.20655397E+002                    1.03382992E-004      86.53  <-- SCF
      3  -1.20641794E+002                   -1.70036048E-003      88.22  <-- SCF
      4  -1.20641189E+002                   -7.55863619E-005      89.89  <-- SCF
      5  -1.20641194E+002                    5.23800149E-007      91.59  <-- SCF
      6  -1.20641194E+002                    4.32827444E-008      93.28  <-- SCF
      7  -1.20641194E+002                    1.95417960E-010      94.67  <-- SCF
      8  -1.20641194E+002                    5.45001160E-012      95.91  <-- SCF
      9  -1.20641194E+002                    4.04823478E-013      97.15  <-- SCF
------------------------------------------------------------------------ <-- SCF
 
Final energy =  -120.6411938604     eV
(energy not corrected for finite basis set)
 

 ******************************** Symmetrised Forces ********************************
 *                                                                                  *
 *                           Cartesian components (eV/A)                            *
 * -------------------------------------------------------------------------------- *
 *                         x                    y                    z              *
 *                                                                                  *
 * H               1      0.01561              0.01282              0.01478         *
 * H               2     -0.01434             -0.01936             -0.01478         *
 * H               3     -0.01434              0.01936             -0.01478         *
 * H               4      0.01561             -0.01282              0.01478         *
 * H               5      0.01434             -0.01936             -0.01478         *
 * H               6     -0.01561              0.01282              0.01478         *
 * H               7      0.01434              0.01936             -0.01478         *
 * H               8     -0.01561             -0.01282              0.01478         *
 *                                                                                  *
 ************************************************************************************

 *********** Symmetrised Stress Tensor ***********
 *                                               *
 *          Cartesian components (GPa)           *
 * --------------------------------------------- *
 *             x             y             z     *
 *                                               *
 *  x   -110.291247      0.000000      0.000000  *
 *  y      0.000000   -110.246885      0.000000  *
 *  z      0.000000      0.000000   -109.847093  *
 *                                               *
 *  Pressure:  110.1284                          *
 *                                               *
 *************************************************
  
 +------------+-------------+-------------+-----------------+ <-- min LBFGS
 |    Step    |   lambda    |   F.delta'  |    enthalpy     | <-- min LBFGS
 +------------+-------------+-------------+-----------------+ <-- min LBFGS
 |  previous  |    0.000000 |    0.045335 |     -108.419542 | <-- min LBFGS
 | trial step |    1.000000 |   -0.162677 |     -108.363162 | <-- min LBFGS
 |  line step |    0.217943 |   -0.005755 |     -108.423279 | <-- min LBFGS
 +------------+-------------+-------------+-----------------+ <-- min LBFGS
  
 LBFGS: finished iteration     2 with enthalpy= -1.08423279E+002 eV
  
 +-----------+-----------------+-----------------+------------+-----+ <-- LBFGS
 | Parameter |      value      |    tolerance    |    units   | OK? | <-- LBFGS
 +-----------+-----------------+-----------------+------------+-----+ <-- LBFGS
 |  dE/ion   |   4.670853E-004 |   1.000000E-009 |         eV | No  | <-- LBFGS
 |  |F|max   |   2.826758E-002 |   1.000000E-005 |       eV/A | No  | <-- LBFGS
 |  |dR|max  |   4.748302E-003 |   1.000000E-005 |          A | No  | <-- LBFGS
 |   Smax    |   2.912473E-001 |   1.000000E-005 |        GPa | No  | <-- LBFGS
 +-----------+-----------------+-----------------+------------+-----+ <-- LBFGS
  

================================================================================
 Starting LBFGS iteration          3 ...
================================================================================
  
 +------------+-------------+-------------+-----------------+ <-- min LBFGS
 |    Step    |   lambda    |   F.delta'  |    enthalpy     | <-- min LBFGS
 +------------+-------------+-------------+-----------------+ <-- min LBFGS
 |  previous  |    0.000000 |    0.005168 |     -108.423279 | <-- min LBFGS
 +------------+-------------+-------------+-----------------+ <-- min LBFGS
  

--------------------------------------------------------------------------------
 LBFGS: starting iteration         3 with trial guess (lambda=  1.000000)
--------------------------------------------------------------------------------

                           -------------------------------
                                      Unit Cell
                           -------------------------------
        Real Lattice(A)              Reciprocal Lattice(1/A)
     3.2189939     0.0000000     0.0000000        1.951909639   0.000000000   0.000000000
     0.0000000     1.8705220     0.0000000        0.000000000   3.359054449   0.000000000
     0.0000000     0.0000000     2.9590564        0.000000000   0.000000000   2.123374631

                       Lattice parameters(A)       Cell Angles
                    a =      3.218994          alpha =   90.000000
                    b =      1.870522          beta  =   90.000000
                    c =      2.959056          gamma =   90.000000

                Current cell volume =            17.817068 A**3

                           -------------------------------
                                     Cell Contents
                           -------------------------------

            xxxxxxxxxxxxxxxxxxxxxxxxxxxxxxxxxxxxxxxxxxxxxxxxxxxxxxxxxxxxxxxxx
            x  Element         Atom        Fractional coordinates of atoms  x
            x                 Number           u          v          w      x
            x---------------------------------------------------------------x
            x  H                 1         0.347917   0.128298   0.377203   x
            x  H                 2         0.485865   0.368550   0.501697   x
            x  H                 3         0.985865   0.631450   0.501697   x
            x  H                 4         0.847917   0.871702   0.377203   x
            x  H                 5         0.014135   0.368550   0.001697   x
            x  H                 6         0.152083   0.128298   0.877203   x
            x  H                 7         0.514135   0.631450   0.001697   x
            x  H                 8         0.652083   0.871702   0.877203   x
            xxxxxxxxxxxxxxxxxxxxxxxxxxxxxxxxxxxxxxxxxxxxxxxxxxxxxxxxxxxxxxxxx


------------------------------------------------------------------------ <-- SCF
SCF loop      Energy                           Energy gain       Timer   <-- SCF
                                               per atom          (sec)   <-- SCF
------------------------------------------------------------------------ <-- SCF
Initial  -1.20655661E+002                                         98.94  <-- SCF
      1  -1.20655973E+002                    3.89021750E-005     100.17  <-- SCF
      2  -1.20655974E+002                    1.24773475E-007     101.86  <-- SCF
      3  -1.20655956E+002                   -2.23717147E-006     103.54  <-- SCF
      4  -1.20655955E+002                   -9.32417681E-008     105.21  <-- SCF
      5  -1.20655955E+002                    5.45949776E-010     106.90  <-- SCF
      6  -1.20655955E+002                    4.50199960E-011     108.13  <-- SCF
      7  -1.20655955E+002                    3.44402063E-013     109.39  <-- SCF
      8  -1.20655955E+002                    8.45899804E-014     110.67  <-- SCF
------------------------------------------------------------------------ <-- SCF
 
Final energy =  -120.6559549843     eV
(energy not corrected for finite basis set)
 

 ******************************** Symmetrised Forces ********************************
 *                                                                                  *
 *                           Cartesian components (eV/A)                            *
 * -------------------------------------------------------------------------------- *
 *                         x                    y                    z              *
 *                                                                                  *
 * H               1      0.00004             -0.00126              0.00187         *
 * H               2      0.00056             -0.00231             -0.00187         *
 * H               3      0.00056              0.00231             -0.00187         *
 * H               4      0.00004              0.00126              0.00187         *
 * H               5     -0.00056             -0.00231             -0.00187         *
 * H               6     -0.00004             -0.00126              0.00187         *
 * H               7     -0.00056              0.00231             -0.00187         *
 * H               8     -0.00004              0.00126              0.00187         *
 *                                                                                  *
 ************************************************************************************

 *********** Symmetrised Stress Tensor ***********
 *                                               *
 *          Cartesian components (GPa)           *
 * --------------------------------------------- *
 *             x             y             z     *
 *                                               *
 *  x   -110.115148      0.000000      0.000000  *
 *  y      0.000000   -110.098630      0.000000  *
 *  z      0.000000      0.000000   -109.762249  *
 *                                               *
 *  Pressure:  109.9920                          *
 *                                               *
 *************************************************
  
 +------------+-------------+-------------+-----------------+ <-- min LBFGS
 |    Step    |   lambda    |   F.delta'  |    enthalpy     | <-- min LBFGS
 +------------+-------------+-------------+-----------------+ <-- min LBFGS
 |  previous  |    0.000000 |    0.005168 |     -108.423279 | <-- min LBFGS
 | trial step |    1.000000 |    0.000602 |     -108.423362 | <-- min LBFGS
 +------------+-------------+-------------+-----------------+ <-- min LBFGS
  
 LBFGS: finished iteration     3 with enthalpy= -1.08423362E+002 eV
  
 +-----------+-----------------+-----------------+------------+-----+ <-- LBFGS
 | Parameter |      value      |    tolerance    |    units   | OK? | <-- LBFGS
 +-----------+-----------------+-----------------+------------+-----+ <-- LBFGS
 |  dE/ion   |   1.039188E-005 |   1.000000E-009 |         eV | No  | <-- LBFGS
 |  |F|max   |   3.023716E-003 |   1.000000E-005 |       eV/A | No  | <-- LBFGS
 |  |dR|max  |   7.418879E-004 |   1.000000E-005 |          A | No  | <-- LBFGS
 |   Smax    |   2.377508E-001 |   1.000000E-005 |        GPa | No  | <-- LBFGS
 +-----------+-----------------+-----------------+------------+-----+ <-- LBFGS
  

================================================================================
 Starting LBFGS iteration          4 ...
================================================================================
  
 +------------+-------------+-------------+-----------------+ <-- min LBFGS
 |    Step    |   lambda    |   F.delta'  |    enthalpy     | <-- min LBFGS
 +------------+-------------+-------------+-----------------+ <-- min LBFGS
 |  previous  |    0.000000 |    0.001105 |     -108.423362 | <-- min LBFGS
 +------------+-------------+-------------+-----------------+ <-- min LBFGS
  

--------------------------------------------------------------------------------
 LBFGS: starting iteration         4 with trial guess (lambda=  1.000000)
--------------------------------------------------------------------------------

                           -------------------------------
                                      Unit Cell
                           -------------------------------
        Real Lattice(A)              Reciprocal Lattice(1/A)
     3.2193939     0.0000000     0.0000000        1.951667172   0.000000000   0.000000000
     0.0000000     1.8707282     0.0000000        0.000000000   3.358684237   0.000000000
     0.0000000     0.0000000     2.9585766        0.000000000   0.000000000   2.123719008

                       Lattice parameters(A)       Cell Angles
                    a =      3.219394          alpha =   90.000000
                    b =      1.870728          beta  =   90.000000
                    c =      2.958577          gamma =   90.000000

                Current cell volume =            17.818355 A**3

                           -------------------------------
                                     Cell Contents
                           -------------------------------

            xxxxxxxxxxxxxxxxxxxxxxxxxxxxxxxxxxxxxxxxxxxxxxxxxxxxxxxxxxxxxxxxx
            x  Element         Atom        Fractional coordinates of atoms  x
            x                 Number           u          v          w      x
            x---------------------------------------------------------------x
            x  H                 1         0.347906   0.128195   0.377264   x
            x  H                 2         0.485898   0.368427   0.501636   x
            x  H                 3         0.985898   0.631573   0.501636   x
            x  H                 4         0.847906   0.871805   0.377264   x
            x  H                 5         0.014102   0.368427   0.001636   x
            x  H                 6         0.152094   0.128195   0.877264   x
            x  H                 7         0.514102   0.631573   0.001636   x
            x  H                 8         0.652094   0.871805   0.877264   x
            xxxxxxxxxxxxxxxxxxxxxxxxxxxxxxxxxxxxxxxxxxxxxxxxxxxxxxxxxxxxxxxxx


------------------------------------------------------------------------ <-- SCF
SCF loop      Energy                           Energy gain       Timer   <-- SCF
                                               per atom          (sec)   <-- SCF
------------------------------------------------------------------------ <-- SCF
Initial  -1.20656811E+002                                        112.48  <-- SCF
      1  -1.20656851E+002                    4.95049455E-006     113.73  <-- SCF
      2  -1.20656851E+002                    1.23091956E-008     115.40  <-- SCF
      3  -1.20656850E+002                   -1.49228505E-007     117.08  <-- SCF
      4  -1.20656850E+002                   -4.36390948E-009     118.77  <-- SCF
      5  -1.20656850E+002                    3.78509952E-011     120.00  <-- SCF
      6  -1.20656850E+002                    4.22647795E-012     121.24  <-- SCF
      7  -1.20656850E+002                    1.35948183E-013     122.51  <-- SCF
------------------------------------------------------------------------ <-- SCF
 
Final energy =  -120.6568496420     eV
(energy not corrected for finite basis set)
 

 ******************************** Symmetrised Forces ********************************
 *                                                                                  *
 *                           Cartesian components (eV/A)                            *
 * -------------------------------------------------------------------------------- *
 *                         x                    y                    z              *
 *                                                                                  *
 * H               1     -0.00189             -0.00214              0.00030         *
 * H               2      0.00214              0.00045             -0.00030         *
 * H               3      0.00214             -0.00045             -0.00030         *
 * H               4     -0.00189              0.00214              0.00030         *
 * H               5     -0.00214              0.00045             -0.00030         *
 * H               6      0.00189             -0.00214              0.00030         *
 * H               7     -0.00214             -0.00045             -0.00030         *
 * H               8      0.00189              0.00214              0.00030         *
 *                                                                                  *
 ************************************************************************************

 *********** Symmetrised Stress Tensor ***********
 *                                               *
 *          Cartesian components (GPa)           *
 * --------------------------------------------- *
 *             x             y             z     *
 *                                               *
 *  x   -110.073040      0.000000      0.000000  *
 *  y      0.000000   -110.071641      0.000000  *
 *  z      0.000000      0.000000   -109.828953  *
 *                                               *
 *  Pressure:  109.9912                          *
 *                                               *
 *************************************************
  
 +------------+-------------+-------------+-----------------+ <-- min LBFGS
 |    Step    |   lambda    |   F.delta'  |    enthalpy     | <-- min LBFGS
 +------------+-------------+-------------+-----------------+ <-- min LBFGS
 |  previous  |    0.000000 |    0.001105 |     -108.423362 | <-- min LBFGS
 | trial step |    1.000000 |    0.000661 |     -108.423373 | <-- min LBFGS
 +------------+-------------+-------------+-----------------+ <-- min LBFGS
  

--------------------------------------------------------------------------------
 LBFGS: improving iteration         4 with line minimization (lambda=  2.487234)
--------------------------------------------------------------------------------

                           -------------------------------
                                      Unit Cell
                           -------------------------------
        Real Lattice(A)              Reciprocal Lattice(1/A)
     3.2199886     0.0000000     0.0000000        1.951306677   0.000000000   0.000000000
     0.0000000     1.8710348     0.0000000        0.000000000   3.358133795   0.000000000
     0.0000000     0.0000000     2.9578629        0.000000000   0.000000000   2.124231386

                       Lattice parameters(A)       Cell Angles
                    a =      3.219989          alpha =   90.000000
                    b =      1.871035          beta  =   90.000000
                    c =      2.957863          gamma =   90.000000

                Current cell volume =            17.820269 A**3

                           -------------------------------
                                     Cell Contents
                           -------------------------------

            xxxxxxxxxxxxxxxxxxxxxxxxxxxxxxxxxxxxxxxxxxxxxxxxxxxxxxxxxxxxxxxxx
            x  Element         Atom        Fractional coordinates of atoms  x
            x                 Number           u          v          w      x
            x---------------------------------------------------------------x
            x  H                 1         0.347890   0.128041   0.377354   x
            x  H                 2         0.485947   0.368245   0.501547   x
            x  H                 3         0.985947   0.631755   0.501547   x
            x  H                 4         0.847890   0.871959   0.377354   x
            x  H                 5         0.014053   0.368245   0.001547   x
            x  H                 6         0.152110   0.128041   0.877354   x
            x  H                 7         0.514053   0.631755   0.001547   x
            x  H                 8         0.652110   0.871959   0.877354   x
            xxxxxxxxxxxxxxxxxxxxxxxxxxxxxxxxxxxxxxxxxxxxxxxxxxxxxxxxxxxxxxxxx


------------------------------------------------------------------------ <-- SCF
SCF loop      Energy                           Energy gain       Timer   <-- SCF
                                               per atom          (sec)   <-- SCF
------------------------------------------------------------------------ <-- SCF
Initial  -1.20658085E+002                                        124.40  <-- SCF
      1  -1.20658172E+002                    1.09076592E-005     125.62  <-- SCF
      2  -1.20658172E+002                    2.72151404E-008     127.34  <-- SCF
      3  -1.20658169E+002                   -3.30567650E-007     129.02  <-- SCF
      4  -1.20658169E+002                   -9.65947186E-009     130.75  <-- SCF
      5  -1.20658169E+002                    8.41700516E-011     132.07  <-- SCF
      6  -1.20658169E+002                    8.77621047E-012     133.36  <-- SCF
      7  -1.20658169E+002                    3.62528488E-013     134.79  <-- SCF
------------------------------------------------------------------------ <-- SCF
 
Final energy =  -120.6581693987     eV
(energy not corrected for finite basis set)
 

 ******************************** Symmetrised Forces ********************************
 *                                                                                  *
 *                           Cartesian components (eV/A)                            *
 * -------------------------------------------------------------------------------- *
 *                         x                    y                    z              *
 *                                                                                  *
 * H               1     -0.00474             -0.00344             -0.00202         *
 * H               2      0.00447              0.00453              0.00202         *
 * H               3      0.00447             -0.00453              0.00202         *
 * H               4     -0.00474              0.00344             -0.00202         *
 * H               5     -0.00447              0.00453              0.00202         *
 * H               6      0.00474             -0.00344             -0.00202         *
 * H               7     -0.00447             -0.00453              0.00202         *
 * H               8      0.00474              0.00344             -0.00202         *
 *                                                                                  *
 ************************************************************************************

 *********** Symmetrised Stress Tensor ***********
 *                                               *
 *          Cartesian components (GPa)           *
 * --------------------------------------------- *
 *             x             y             z     *
 *                                               *
 *  x   -110.010545      0.000000      0.000000  *
 *  y      0.000000   -110.031475      0.000000  *
 *  z      0.000000      0.000000   -109.927862  *
 *                                               *
 *  Pressure:  109.9900                          *
 *                                               *
 *************************************************
  
 +------------+-------------+-------------+-----------------+ <-- min LBFGS
 |    Step    |   lambda    |   F.delta'  |    enthalpy     | <-- min LBFGS
 +------------+-------------+-------------+-----------------+ <-- min LBFGS
 |  previous  |    0.000000 |    0.001105 |     -108.423362 | <-- min LBFGS
 | trial step |    1.000000 |    0.000661 |     -108.423373 | <-- min LBFGS
 |  line step |    2.487234 |  2.092E-006 |     -108.423378 | <-- min LBFGS
 +------------+-------------+-------------+-----------------+ <-- min LBFGS
  
 LBFGS: finished iteration     4 with enthalpy= -1.08423378E+002 eV
  
 +-----------+-----------------+-----------------+------------+-----+ <-- LBFGS
 | Parameter |      value      |    tolerance    |    units   | OK? | <-- LBFGS
 +-----------+-----------------+-----------------+------------+-----+ <-- LBFGS
 |  dE/ion   |   2.052892E-006 |   1.000000E-009 |         eV | No  | <-- LBFGS
 |  |F|max   |   6.673110E-003 |   1.000000E-005 |       eV/A | No  | <-- LBFGS
 |  |dR|max  |   7.706246E-004 |   1.000000E-005 |          A | No  | <-- LBFGS
 |   Smax    |   7.213839E-002 |   1.000000E-005 |        GPa | No  | <-- LBFGS
 +-----------+-----------------+-----------------+------------+-----+ <-- LBFGS
  

================================================================================
 Starting LBFGS iteration          5 ...
================================================================================
  
 +------------+-------------+-------------+-----------------+ <-- min LBFGS
 |    Step    |   lambda    |   F.delta'  |    enthalpy     | <-- min LBFGS
 +------------+-------------+-------------+-----------------+ <-- min LBFGS
 |  previous  |    0.000000 |    0.000949 |     -108.423378 | <-- min LBFGS
 +------------+-------------+-------------+-----------------+ <-- min LBFGS
  

--------------------------------------------------------------------------------
 LBFGS: starting iteration         5 with trial guess (lambda=  1.000000)
--------------------------------------------------------------------------------

                           -------------------------------
                                      Unit Cell
                           -------------------------------
        Real Lattice(A)              Reciprocal Lattice(1/A)
     3.2200121     0.0000000     0.0000000        1.951292475   0.000000000   0.000000000
     0.0000000     1.8710606     0.0000000        0.000000000   3.358087632   0.000000000
     0.0000000     0.0000000     2.9573640        0.000000000   0.000000000   2.124589764

                       Lattice parameters(A)       Cell Angles
                    a =      3.220012          alpha =   90.000000
                    b =      1.871061          beta  =   90.000000
                    c =      2.957364          gamma =   90.000000

                Current cell volume =            17.817638 A**3

                           -------------------------------
                                     Cell Contents
                           -------------------------------

            xxxxxxxxxxxxxxxxxxxxxxxxxxxxxxxxxxxxxxxxxxxxxxxxxxxxxxxxxxxxxxxxx
            x  Element         Atom        Fractional coordinates of atoms  x
            x                 Number           u          v          w      x
            x---------------------------------------------------------------x
            x  H                 1         0.347839   0.127980   0.377400   x
            x  H                 2         0.486002   0.368255   0.501501   x
            x  H                 3         0.986002   0.631745   0.501501   x
            x  H                 4         0.847839   0.872020   0.377400   x
            x  H                 5         0.013998   0.368255   0.001501   x
            x  H                 6         0.152161   0.127980   0.877400   x
            x  H                 7         0.513998   0.631745   0.001501   x
            x  H                 8         0.652161   0.872020   0.877400   x
            xxxxxxxxxxxxxxxxxxxxxxxxxxxxxxxxxxxxxxxxxxxxxxxxxxxxxxxxxxxxxxxxx


------------------------------------------------------------------------ <-- SCF
SCF loop      Energy                           Energy gain       Timer   <-- SCF
                                               per atom          (sec)   <-- SCF
------------------------------------------------------------------------ <-- SCF
Initial  -1.20656347E+002                                        136.59  <-- SCF
      1  -1.20656368E+002                    2.66643821E-006     137.94  <-- SCF
      2  -1.20656369E+002                    6.44670815E-009     139.69  <-- SCF
      3  -1.20656368E+002                   -1.16515236E-008     141.35  <-- SCF
      4  -1.20656368E+002                    9.06275903E-010     143.28  <-- SCF
      5  -1.20656368E+002                    2.51171820E-011     144.53  <-- SCF
      6  -1.20656368E+002                    2.46821479E-012     145.78  <-- SCF
      7  -1.20656368E+002                    8.15689097E-014     147.09  <-- SCF
------------------------------------------------------------------------ <-- SCF
 
Final energy =  -120.6563684275     eV
(energy not corrected for finite basis set)
 

 ******************************** Symmetrised Forces ********************************
 *                                                                                  *
 *                           Cartesian components (eV/A)                            *
 * -------------------------------------------------------------------------------- *
 *                         x                    y                    z              *
 *                                                                                  *
 * H               1     -0.00217             -0.00080             -0.00009         *
 * H               2      0.00195              0.00214              0.00009         *
 * H               3      0.00195             -0.00214              0.00009         *
 * H               4     -0.00217              0.00080             -0.00009         *
 * H               5     -0.00195              0.00214              0.00009         *
 * H               6      0.00217             -0.00080             -0.00009         *
 * H               7     -0.00195             -0.00214              0.00009         *
 * H               8      0.00217              0.00080             -0.00009         *
 *                                                                                  *
 ************************************************************************************

 *********** Symmetrised Stress Tensor ***********
 *                                               *
 *          Cartesian components (GPa)           *
 * --------------------------------------------- *
 *             x             y             z     *
 *                                               *
 *  x   -109.991278      0.000000      0.000000  *
 *  y      0.000000   -110.012645      0.000000  *
 *  z      0.000000      0.000000   -109.983386  *
 *                                               *
 *  Pressure:  109.9958                          *
 *                                               *
 *************************************************
  
 +------------+-------------+-------------+-----------------+ <-- min LBFGS
 |    Step    |   lambda    |   F.delta'  |    enthalpy     | <-- min LBFGS
 +------------+-------------+-------------+-----------------+ <-- min LBFGS
 |  previous  |    0.000000 |    0.000949 |     -108.423378 | <-- min LBFGS
 | trial step |    1.000000 |    0.000457 |     -108.423384 | <-- min LBFGS
 +------------+-------------+-------------+-----------------+ <-- min LBFGS
  

--------------------------------------------------------------------------------
 LBFGS: improving iteration         5 with line minimization (lambda=  1.927696)
--------------------------------------------------------------------------------

                           -------------------------------
                                      Unit Cell
                           -------------------------------
        Real Lattice(A)              Reciprocal Lattice(1/A)
     3.2200338     0.0000000     0.0000000        1.951279300   0.000000000   0.000000000
     0.0000000     1.8710844     0.0000000        0.000000000   3.358044807   0.000000000
     0.0000000     0.0000000     2.9569011        0.000000000   0.000000000   2.124922339

                       Lattice parameters(A)       Cell Angles
                    a =      3.220034          alpha =   90.000000
                    b =      1.871084          beta  =   90.000000
                    c =      2.956901          gamma =   90.000000

                Current cell volume =            17.815197 A**3

                           -------------------------------
                                     Cell Contents
                           -------------------------------

            xxxxxxxxxxxxxxxxxxxxxxxxxxxxxxxxxxxxxxxxxxxxxxxxxxxxxxxxxxxxxxxxx
            x  Element         Atom        Fractional coordinates of atoms  x
            x                 Number           u          v          w      x
            x---------------------------------------------------------------x
            x  H                 1         0.347791   0.127923   0.377442   x
            x  H                 2         0.486052   0.368266   0.501458   x
            x  H                 3         0.986052   0.631734   0.501458   x
            x  H                 4         0.847791   0.872077   0.377442   x
            x  H                 5         0.013948   0.368266   0.001458   x
            x  H                 6         0.152209   0.127923   0.877442   x
            x  H                 7         0.513948   0.631734   0.001458   x
            x  H                 8         0.652209   0.872077   0.877442   x
            xxxxxxxxxxxxxxxxxxxxxxxxxxxxxxxxxxxxxxxxxxxxxxxxxxxxxxxxxxxxxxxxx


[...]
            x  H                 6         0.152438   0.127935   0.877841   x
            x  H                 7         0.513639   0.631650   0.001059   x
            x  H                 8         0.652438   0.872065   0.877841   x
            xxxxxxxxxxxxxxxxxxxxxxxxxxxxxxxxxxxxxxxxxxxxxxxxxxxxxxxxxxxxxxxxx


------------------------------------------------------------------------ <-- SCF
SCF loop      Energy                           Energy gain       Timer   <-- SCF
                                               per atom          (sec)   <-- SCF
------------------------------------------------------------------------ <-- SCF
Initial  -1.20655165E+002                                        303.68  <-- SCF
      1  -1.20655165E+002                    4.01491237E-010     304.93  <-- SCF
      2  -1.20655165E+002                    5.37750590E-013     306.20  <-- SCF
      3  -1.20655165E+002                    4.76120747E-012     307.45  <-- SCF
      4  -1.20655165E+002                    4.83371317E-013     308.76  <-- SCF
------------------------------------------------------------------------ <-- SCF
 
Final energy =  -120.6551648045     eV
(energy not corrected for finite basis set)
 

 ******************************** Symmetrised Forces ********************************
 *                                                                                  *
 *                           Cartesian components (eV/A)                            *
 * -------------------------------------------------------------------------------- *
 *                         x                    y                    z              *
 *                                                                                  *
 * H               1     -0.00000              0.00000             -0.00000         *
 * H               2     -0.00000             -0.00000              0.00000         *
 * H               3     -0.00000              0.00000              0.00000         *
 * H               4     -0.00000             -0.00000             -0.00000         *
 * H               5      0.00000             -0.00000              0.00000         *
 * H               6      0.00000              0.00000             -0.00000         *
 * H               7      0.00000              0.00000              0.00000         *
 * H               8      0.00000             -0.00000             -0.00000         *
 *                                                                                  *
 ************************************************************************************

 *********** Symmetrised Stress Tensor ***********
 *                                               *
 *          Cartesian components (GPa)           *
 * --------------------------------------------- *
 *             x             y             z     *
 *                                               *
 *  x   -110.000004      0.000000      0.000000  *
 *  y      0.000000   -109.999982      0.000000  *
 *  z      0.000000      0.000000   -110.000005  *
 *                                               *
 *  Pressure:  110.0000                          *
 *                                               *
 *************************************************
  
 +------------+-------------+-------------+-----------------+ <-- min LBFGS
 |    Step    |   lambda    |   F.delta'  |    enthalpy     | <-- min LBFGS
 +------------+-------------+-------------+-----------------+ <-- min LBFGS
 |  previous  |    0.000000 |  9.127E-007 |     -108.423393 | <-- min LBFGS
 | trial step |    1.000000 |  2.042E-007 |     -108.423393 | <-- min LBFGS
 +------------+-------------+-------------+-----------------+ <-- min LBFGS
  
 LBFGS: finished iteration    14 with enthalpy= -1.08423393E+002 eV
  
 +-----------+-----------------+-----------------+------------+-----+ <-- LBFGS
 | Parameter |      value      |    tolerance    |    units   | OK? | <-- LBFGS
 +-----------+-----------------+-----------------+------------+-----+ <-- LBFGS
 |  dE/ion   |   2.158253E-010 |   1.000000E-009 |         eV | Yes | <-- LBFGS
 |  |F|max   |   1.231714E-006 |   1.000000E-005 |       eV/A | Yes | <-- LBFGS
 |  |dR|max  |   3.161745E-006 |   1.000000E-005 |          A | Yes | <-- LBFGS
 |   Smax    |   1.817326E-005 |   1.000000E-005 |        GPa | No  | <-- LBFGS
 +-----------+-----------------+-----------------+------------+-----+ <-- LBFGS
  

================================================================================
 Starting LBFGS iteration         15 ...
================================================================================
  
 +------------+-------------+-------------+-----------------+ <-- min LBFGS
 |    Step    |   lambda    |   F.delta'  |    enthalpy     | <-- min LBFGS
 +------------+-------------+-------------+-----------------+ <-- min LBFGS
 |  previous  |    0.000000 |  2.085E-007 |     -108.423393 | <-- min LBFGS
 +------------+-------------+-------------+-----------------+ <-- min LBFGS
  

--------------------------------------------------------------------------------
 LBFGS: starting iteration        15 with trial guess (lambda=  1.000000)
--------------------------------------------------------------------------------

                           -------------------------------
                                      Unit Cell
                           -------------------------------
        Real Lattice(A)              Reciprocal Lattice(1/A)
     3.2196924     0.0000000     0.0000000        1.951486220   0.000000000   0.000000000
     0.0000000     1.8711647     0.0000000        0.000000000   3.357900702   0.000000000
     0.0000000     0.0000000     2.9571999        0.000000000   0.000000000   2.124707683

                       Lattice parameters(A)       Cell Angles
                    a =      3.219692          alpha =   90.000000
                    b =      1.871165          beta  =   90.000000
                    c =      2.957200          gamma =   90.000000

                Current cell volume =            17.815872 A**3

                           -------------------------------
                                     Cell Contents
                           -------------------------------

            xxxxxxxxxxxxxxxxxxxxxxxxxxxxxxxxxxxxxxxxxxxxxxxxxxxxxxxxxxxxxxxxx
            x  Element         Atom        Fractional coordinates of atoms  x
            x                 Number           u          v          w      x
            x---------------------------------------------------------------x
            x  H                 1         0.347561   0.127936   0.377841   x
            x  H                 2         0.486361   0.368349   0.501059   x
            x  H                 3         0.986361   0.631651   0.501059   x
            x  H                 4         0.847561   0.872064   0.377841   x
            x  H                 5         0.013639   0.368349   0.001059   x
            x  H                 6         0.152439   0.127936   0.877841   x
            x  H                 7         0.513639   0.631651   0.001059   x
            x  H                 8         0.652439   0.872064   0.877841   x
            xxxxxxxxxxxxxxxxxxxxxxxxxxxxxxxxxxxxxxxxxxxxxxxxxxxxxxxxxxxxxxxxx


------------------------------------------------------------------------ <-- SCF
SCF loop      Energy                           Energy gain       Timer   <-- SCF
                                               per atom          (sec)   <-- SCF
------------------------------------------------------------------------ <-- SCF
Initial  -1.20655165E+002                                        310.57  <-- SCF
      1  -1.20655165E+002                    3.45900514E-010     311.87  <-- SCF
      2  -1.20655165E+002                    4.53160609E-014     313.09  <-- SCF
      3  -1.20655165E+002                    1.69179961E-013     314.34  <-- SCF
      4  -1.20655165E+002                    1.51053536E-013     315.63  <-- SCF
------------------------------------------------------------------------ <-- SCF
 
Final energy =  -120.6551649334     eV
(energy not corrected for finite basis set)
 

 ******************************** Symmetrised Forces ********************************
 *                                                                                  *
 *                           Cartesian components (eV/A)                            *
 * -------------------------------------------------------------------------------- *
 *                         x                    y                    z              *
 *                                                                                  *
 * H               1      0.00000             -0.00000              0.00000         *
 * H               2      0.00000              0.00000             -0.00000         *
 * H               3      0.00000             -0.00000             -0.00000         *
 * H               4      0.00000              0.00000              0.00000         *
 * H               5     -0.00000              0.00000             -0.00000         *
 * H               6     -0.00000             -0.00000              0.00000         *
 * H               7     -0.00000             -0.00000             -0.00000         *
 * H               8     -0.00000              0.00000              0.00000         *
 *                                                                                  *
 ************************************************************************************

 *********** Symmetrised Stress Tensor ***********
 *                                               *
 *          Cartesian components (GPa)           *
 * --------------------------------------------- *
 *             x             y             z     *
 *                                               *
 *  x   -110.000000      0.000000      0.000000  *
 *  y      0.000000   -110.000003      0.000000  *
 *  z      0.000000      0.000000   -110.000000  *
 *                                               *
 *  Pressure:  110.0000                          *
 *                                               *
 *************************************************
  
 +------------+-------------+-------------+-----------------+ <-- min LBFGS
 |    Step    |   lambda    |   F.delta'  |    enthalpy     | <-- min LBFGS
 +------------+-------------+-------------+-----------------+ <-- min LBFGS
 |  previous  |    0.000000 |  2.085E-007 |     -108.423393 | <-- min LBFGS
 | trial step |    1.000000 | -8.460E-008 |     -108.423393 | <-- min LBFGS
 +------------+-------------+-------------+-----------------+ <-- min LBFGS
  
 LBFGS: finished iteration    15 with enthalpy= -1.08423393E+002 eV
  
 +-----------+-----------------+-----------------+------------+-----+ <-- LBFGS
 | Parameter |      value      |    tolerance    |    units   | OK? | <-- LBFGS
 +-----------+-----------------+-----------------+------------+-----+ <-- LBFGS
 |  dE/ion   |   5.120564E-011 |   1.000000E-009 |         eV | Yes | <-- LBFGS
 |  |F|max   |   4.258561E-007 |   1.000000E-005 |       eV/A | Yes | <-- LBFGS
 |  |dR|max  |   9.752371E-007 |   1.000000E-005 |          A | Yes | <-- LBFGS
 |   Smax    |   3.132148E-006 |   1.000000E-005 |        GPa | Yes | <-- LBFGS
 +-----------+-----------------+-----------------+------------+-----+ <-- LBFGS
  
 LBFGS: Geometry optimization completed successfully.

================================================================================
 LBFGS: Final Configuration:
================================================================================

                           -------------------------------
                                      Unit Cell
                           -------------------------------
        Real Lattice(A)              Reciprocal Lattice(1/A)
     3.2196924     0.0000000     0.0000000        1.951486220   0.000000000   0.000000000
     0.0000000     1.8711647     0.0000000        0.000000000   3.357900702   0.000000000
     0.0000000     0.0000000     2.9571999        0.000000000   0.000000000   2.124707683

                       Lattice parameters(A)       Cell Angles
                    a =      3.219692          alpha =   90.000000
                    b =      1.871165          beta  =   90.000000
                    c =      2.957200          gamma =   90.000000

                Current cell volume =            17.815872 A**3

                           -------------------------------
                                     Cell Contents
                           -------------------------------

            xxxxxxxxxxxxxxxxxxxxxxxxxxxxxxxxxxxxxxxxxxxxxxxxxxxxxxxxxxxxxxxxx
            x  Element         Atom        Fractional coordinates of atoms  x
            x                 Number           u          v          w      x
            x---------------------------------------------------------------x
            x  H                 1         0.347561   0.127936   0.377841   x
            x  H                 2         0.486361   0.368349   0.501059   x
            x  H                 3         0.986361   0.631651   0.501059   x
            x  H                 4         0.847561   0.872064   0.377841   x
            x  H                 5         0.013639   0.368349   0.001059   x
            x  H                 6         0.152439   0.127936   0.877841   x
            x  H                 7         0.513639   0.631651   0.001059   x
            x  H                 8         0.652439   0.872064   0.877841   x
            xxxxxxxxxxxxxxxxxxxxxxxxxxxxxxxxxxxxxxxxxxxxxxxxxxxxxxxxxxxxxxxxx


 LBFGS: Final Enthalpy     = -1.08423393E+002 eV
 LBFGS: Final <frequency>  =    1356.38171 cm-1
 LBFGS: Final bulk modulus =     279.81798 GPa

 ******************************** Symmetrised Forces ********************************
 *                                                                                  *
 *                           Cartesian components (eV/A)                            *
 * -------------------------------------------------------------------------------- *
 *                         x                    y                    z              *
 *                                                                                  *
 * H               1      0.00000             -0.00000              0.00000         *
 * H               2      0.00000              0.00000             -0.00000         *
 * H               3      0.00000             -0.00000             -0.00000         *
 * H               4      0.00000              0.00000              0.00000         *
 * H               5     -0.00000              0.00000             -0.00000         *
 * H               6     -0.00000             -0.00000              0.00000         *
 * H               7     -0.00000             -0.00000             -0.00000         *
 * H               8     -0.00000              0.00000              0.00000         *
 *                                                                                  *
 ************************************************************************************

 *********** Symmetrised Stress Tensor ***********
 *                                               *
 *          Cartesian components (GPa)           *
 * --------------------------------------------- *
 *             x             y             z     *
 *                                               *
 *  x   -110.000000      0.000000      0.000000  *
 *  y      0.000000   -110.000003      0.000000  *
 *  z      0.000000      0.000000   -110.000000  *
 *                                               *
 *  Pressure:  110.0000                          *
 *                                               *
 *************************************************

 Pseudo atomic calculation performed for H 1s1

 Converged in 24 iterations to a total energy of -12.4855 eV

Charge spilling parameter for spin component 1 = 0.55%

            Orbital Populations       
     Ion    Atom   Orbital             Charge
  -------------------------------------------
      H     1      S                    0.997
      H     2      S                    1.001
      H     3      S                    0.999
      H     4      S                    1.002
      H     5      S                    0.997
      H     6      S                    1.002
      H     7      S                    1.004
      H     8      S                    0.998
  -------------------------------------------
                           Total:       8.000
  -------------------------------------------

     Atomic Populations (Mulliken)
     -----------------------------
Species          Ion     s      p      d      f     Total  Charge (e)
=====================================================================
  H               1     1.00   0.00   0.00   0.00   1.00     0.00
  H               2     1.00   0.00   0.00   0.00   1.00    -0.00
  H               3     1.00   0.00   0.00   0.00   1.00    -0.00
  H               4     1.00   0.00   0.00   0.00   1.00     0.00
  H               5     1.00   0.00   0.00   0.00   1.00    -0.00
  H               6     1.00   0.00   0.00   0.00   1.00     0.00
  H               7     1.00   0.00   0.00   0.00   1.00    -0.00
  H               8     1.00   0.00   0.00   0.00   1.00     0.00
=====================================================================

                 Bond                   Population      Length (A)
======================================================================
               H 7 -- H 8                    1.46        0.73134
               H 5 -- H 6                    1.46        0.73134
               H 3 -- H 4                    1.46        0.73134
               H 1 -- H 2                    1.46        0.73134
               H 5 -- H 8                   -0.27        1.53219
               H 2 -- H 4                   -0.27        1.53219
               H 1 -- H 3                   -0.27        1.53219
               H 6 -- H 7                   -0.27        1.53219
               H 4 -- H 5                   -0.31        1.54589
               H 1 -- H 7                   -0.31        1.54589
               H 2 -- H 8                   -0.31        1.54589
               H 3 -- H 6                   -0.31        1.54589
               H 2 -- H 7                   -0.26        1.56099
               H 3 -- H 5                   -0.26        1.56099
               H 1 -- H 6                   -0.06        1.60653
               H 4 -- H 8                   -0.06        1.60653
               H 1 -- H 5                   -0.16        1.61238
               H 4 -- H 7                   -0.16        1.61238
               H 3 -- H 8                   -0.16        1.61238
               H 2 -- H 6                   -0.16        1.61238
               H 1 -- H 4                   -0.44        1.67953
               H 6 -- H 8                   -0.44        1.67953
               H 5 -- H 7                   -0.27        1.68355
               H 2 -- H 3                   -0.27        1.68355
               H 4 -- H 6                   -0.42        1.83822
               H 1 -- H 8                   -0.42        1.83822
======================================================================


Writing analysis data to Pca21.castep_bin

Writing model to Pca21.check
 
 A BibTeX formatted list of references used in this run has been written to 
 Pca21.bib
 
Initialisation time =      3.04 s
Calculation time    =    315.38 s
Finalisation time   =      2.07 s
Total time          =    320.50 s
Peak Memory Use     = 538804 kB
  
Overall parallel efficiency rating: Excellent (91%)                             
  
Data was distributed by:-
k-point (32-way); efficiency rating: Excellent (92%)                            
  
Parallel notes:
1) Calculation only took 318.4 s, so efficiency estimates may be inaccurate.    
