 +-------------------------------------------------+
 |                                                 |
 |      CCC   AA    SSS  TTTTT  EEEEE  PPPP        |
 |     C     A  A  S       T    E      P   P       |
 |     C     AAAA   SS     T    EEE    PPPP        |
 |     C     A  A     S    T    E      P           |
 |      CCC  A  A  SSS     T    EEEEE  P           |
 |                                                 |
 +-------------------------------------------------+
 |                                                 |
 | Welcome to Academic Release CASTEP version 18.1 |          
 | Ab Initio Total Energy Program                  |
 |                                                 |
 | Authors:                                        |
 | M. Segall, M. Probert, C. Pickard, P. Hasnip,   |
 | S. Clark, K. Refson, J. R. Yates, M. Payne      |
 |                                                 |
 | Contributors:                                   |
 | P. Lindan, P. Haynes, J. White, V. Milman,      |
 | N. Govind, M. Gibson, P. Tulip, V. Cocula,      |
 | B. Montanari, D. Quigley, M. Glover,            |
 | L. Bernasconi, A. Perlov, M. Plummer,           |
 | E. McNellis, J. Meyer, J. Gale, D. Jochym       |
 | J. Aarons, B. Walker, R. Gillen, D. Jones       |
 | T. Green, I. J. Bush, C. J. Armstrong,          |
 | E. J. Higgins, E. L. Brown, M. S. McFly,        |
 | J. Wilkins, B-C. Shih, P. J. P. Byrne           |
 |                                                 |
 | Copyright (c) 2000 - 2017                       |
 |                                                 |
 |     Distributed under the terms of an           |
 |     Agreement between the United Kingdom        |
 |     Car-Parrinello (UKCP) Consortium,           |
 |     Daresbury Laboratory and Accelrys, Inc.     |
 |                                                 |
 | Please cite                                     |
 |                                                 |
 |     "First principles methods using CASTEP"     |
 |                                                 |
 |         Zeitschrift fuer Kristallographie       |
 |           220(5-6) pp. 567-570 (2005)           |
 |                                                 |
 | S. J. Clark, M. D. Segall, C. J. Pickard,       |
 | P. J. Hasnip, M. J. Probert, K. Refson,         |
 | M. C. Payne                                     |
 |                                                 |
 |       in all publications arising from          |
 |              your use of CASTEP                 |
 |                                                 |
 +-------------------------------------------------+


 Compiled for linux_x86_64_gfortran4.8 on Thu, 19 Jul 2018 15:42:32 +0100
 from code version 70483bd0ad64+  Sun, 10 Dec 2017 12:18:29 +0000
 Compiler: GNU Fortran 4.8.5; Optimisation: fast
 MATHLIBS: Intel MKL(2018.0.0) (LAPACK version 3.7.0)
 FFT Lib : mkl
 Fundamental constants values: CODATA 2014

 Run started: Sun, 30 Aug 2020 22:23:41 +0100

 Atomic calculation performed for H: 1s1

 Converged in 41 iterations to an ae energy of -12.488 eV

   ============================================================                
   | Pseudopotential Report - Date of generation 30-08-2020   |                
   ------------------------------------------------------------                
   | Element: H Ionic charge:  1.00 Level of theory: PBE      |                
   | Atomic Solver: Koelling-Harmon                           |                
   |                                                          |                
   |               Reference Electronic Structure             |                
   |         Orbital         Occupation         Energy        |                
   |            1s              1.000           -0.239        |                
   |                                                          |                
   |                 Pseudopotential Definition               |                
   |        Beta     l      e      Rc     scheme   norm       |                
   |         loc     0   -0.239   0.702     qc      1         |                
   |                                                          |                
   | No charge augmentation                                   |                
   | No partial core correction                               |                
   ------------------------------------------------------------                
   | "0|0.7|2|6|8|10L(qc=10)"                                 |                
   ------------------------------------------------------------                
   |      Author: Chris J. Pickard, Cambridge University      |                
   ============================================================                

 Pseudo atomic calculation performed for H 1s1

 Converged in 24 iterations to a total energy of -12.4855 eV

 Calculation parallelised over 32 processes.
 Data is distributed by k-point(32-way)

 ************************************ Title ************************************
 

 ***************************** General Parameters ******************************
  
 output verbosity                               : normal  (1)
 write checkpoint data to                       : Pca21.check
 type of calculation                            : geometry optimization
 stress calculation                             : on
 density difference calculation                 : off
 electron localisation func (ELF) calculation   : off
 Hirshfeld analysis                             : off
 unlimited duration calculation
 timing information                             : on
 memory usage estimate                          : on
 write extra output files                       : on
 write final potential to formatted file        : off
 write final density to formatted file          : off
 write structure in CELL formatted file         : on
 write BibTeX reference list                    : on
 write OTFG pseudopotential files               : on
 write electrostatic potential file             : on
 write bands file                               : on
 checkpoint writing                             : both castep_bin and check files
  
 output         length unit                     : A
 output           mass unit                     : amu
 output           time unit                     : ps
 output         charge unit                     : e
 output           spin unit                     : hbar/2
 output         energy unit                     : eV
 output          force unit                     : eV/A
 output       velocity unit                     : A/ps
 output       pressure unit                     : GPa
 output     inv_length unit                     : 1/A
 output      frequency unit                     : cm-1
 output force constant unit                     : eV/A**2
 output         volume unit                     : A**3
 output   IR intensity unit                     : (D/A)**2/amu
 output         dipole unit                     : D
 output         efield unit                     : eV/A/e
 output        entropy unit                     : J/mol/K
  
 wavefunctions paging                           : none
 random number generator seed                   : randomised (222341850)
 data distribution                              : optimal for this architecture
 optimization strategy                          : maximize speed(+++)

 *********************** Exchange-Correlation Parameters ***********************
  
 using functional                               : Perdew Burke Ernzerhof
 relativistic treatment                         : Koelling-Harmon
 DFT+D: Semi-empirical dispersion correction    : off

 ************************* Pseudopotential Parameters **************************
  
 pseudopotential representation                 : reciprocal space
 <beta|phi> representation                      : reciprocal space
 spin-orbit coupling                            : off

 **************************** Basis Set Parameters *****************************
  
 plane wave basis set cut-off                   :  1600.0000   eV
 size of standard grid                          :     2.0000
 size of   fine   gmax                          :    40.9853   1/A
 finite basis set correction                    : automatic
 number of sample energies                      :          3
           sample  spacing                      :     5.0000   eV

 **************************** Electronic Parameters ****************************
  
 number of  electrons                           :  8.000    
 net charge of system                           :  0.000    
 treating system as non-spin-polarized
 number of bands                                :          4

 ********************* Electronic Minimization Parameters **********************
  
 Method: Treating system as non-metallic,
         and number of  SD  steps               :          1
         and number of  CG  steps               :          4
  
 total energy / atom convergence tol.           : 0.1000E-10   eV
 eigen-energy convergence tolerance             : 0.2000E-10   eV
 max force / atom convergence tol.              : ignored
 convergence tolerance window                   :          3   cycles
 max. number of SCF cycles                      :        200
 periodic dipole correction                     : NONE

 ************************** Density Mixing Parameters **************************
  
 density-mixing scheme                          : Broyden
 max. length of mixing history                  :         20
 charge density mixing amplitude                : 0.8000    
 cut-off energy for mixing                      :  1600.       eV

 *********************** Population Analysis Parameters ************************
  
 Population analysis with cutoff                :  3.000       A
 Population analysis output                     : summary and pdos components

 ********************** Geometry Optimization Parameters ***********************
  
 optimization method                            : LBFGS
 max. no. of LBFGS updates                      : unbounded
 variable cell method                           : fixed basis quality
 max. number of steps                           :        200
 estimated bulk modulus                         :  500.0       GPa
 estimated <frequency>                          :  1668.       cm-1
 geom line minimiser                            : on
 with line minimiser tolerance                  :     0.4000
 total energy convergence tolerance             : 0.1000E-08   eV/atom
        max ionic |force| tolerance             : 0.1000E-04   eV/A
 max ionic |displacement| tolerance             : 0.1000E-04   A
   max |stress component| tolerance             : 0.1000E-04   GPa
 convergence tolerance window                   :          2   steps
 backup results every                           : 2147483647   steps
 write geom trajectory file                     : on

 *******************************************************************************
  

                           -------------------------------
                                      Unit Cell
                           -------------------------------
        Real Lattice(A)                      Reciprocal Lattice(1/A)
     3.4062115     0.0000000     0.0000000        1.844625687   0.000000000   0.000000000
     0.0000000     1.9787566     0.0000000        0.000000000   3.175319972   0.000000000
     0.0000000     0.0000000     3.1467884        0.000000000   0.000000000   1.996697750

                       Lattice parameters(A)       Cell Angles
                    a =      3.406212          alpha =   90.000000
                    b =      1.978757          beta  =   90.000000
                    c =      3.146788          gamma =   90.000000

                       Current cell volume =            21.209554       A**3
                                   density =             0.380183   AMU/A**3
                                           =             0.631309     g/cm^3

                           -------------------------------
                                     Cell Contents
                           -------------------------------
                         Total number of ions in cell =    8
                      Total number of species in cell =    1
                        Max number of any one species =    8

            xxxxxxxxxxxxxxxxxxxxxxxxxxxxxxxxxxxxxxxxxxxxxxxxxxxxxxxxxxxx
            x  Element    Atom        Fractional coordinates of atoms  x
            x            Number           u          v          w      x
            x----------------------------------------------------------x
            x  H            1         0.352641   0.136480   0.378419   x 
            x  H            2         0.480560   0.363450   0.500481   x 
            x  H            3         0.980560   0.636550   0.500481   x 
            x  H            4         0.852641   0.863520   0.378419   x 
            x  H            5         0.019440   0.363450   0.000481   x 
            x  H            6         0.147359   0.136480   0.878419   x 
            x  H            7         0.519440   0.636550   0.000481   x 
            x  H            8         0.647359   0.863520   0.878419   x 
            xxxxxxxxxxxxxxxxxxxxxxxxxxxxxxxxxxxxxxxxxxxxxxxxxxxxxxxxxxxx


                         No user defined ionic velocities

                           -------------------------------
                                   Details of Species
                           -------------------------------

                               Mass of species in AMU
                                    H    1.0078250

                          Electric Quadrupole Moment (Barn)
                                    H    0.0028600 Isotope  2

                          Files used for pseudopotentials:
                                    H 0|0.7|2|6|8|10L(qc=10)

                           -------------------------------
                              k-Points For BZ Sampling
                           -------------------------------
                       MP grid size for SCF calculation is 15 15 15
                            with an offset of   0.000  0.000  0.000
                       Number of kpoints used =           512

                           -------------------------------
                               Symmetry and Constraints
                           -------------------------------

                      Maximum deviation from symmetry = 0.387620E-14     ANG

                      Number of symmetry operations   =           4
                      Number of ionic constraints     =           3
                      Point group of crystal =     6: C2v, mm2, 2 mm
                      Space group of crystal =    29: Pca2_1, P 2c -2ac

             Set iprint > 1 for details on symmetry rotations/translations

                         Centre of mass is constrained
             Set iprint > 1 for details of linear ionic constraints

                         Number of cell constraints= 3
                         Cell constraints are:  1 2 3 0 0 0

                         External pressure/stress (GPa)
                         30.00000   0.00000   0.00000
                                   30.00000   0.00000
                                             30.00000
  
+---------------- MEMORY AND SCRATCH DISK ESTIMATES PER PROCESS --------------+
|                                                     Memory          Disk    |
| Baseline code, static data and system overhead      476.0 MB         0.0 MB |
| BLAS internal memory storage                          0.0 MB         0.0 MB |
| Model and support data                               27.2 MB         0.0 MB |
| Electronic energy minimisation requirements          18.0 MB         0.0 MB |
| Force calculation requirements                        6.3 MB         0.0 MB |
| Stress calculation requirements                       7.9 MB         0.0 MB |
|                                               ----------------------------- |
| Approx. total storage required per process          521.1 MB         0.0 MB |
|                                                                             |
| Requirements will fluctuate during execution and may exceed these estimates |
+-----------------------------------------------------------------------------+
Calculating finite basis set correction with  3 cut-off energies.
Calculating total energy with cut-off of 1590.000 eV.
------------------------------------------------------------------------ <-- SCF
SCF loop      Energy                           Energy gain       Timer   <-- SCF
                                               per atom          (sec)   <-- SCF
------------------------------------------------------------------------ <-- SCF
Initial   2.03435613E+002                                          4.20  <-- SCF
      1  -1.00340772E+002                    3.79720482E+001       6.11  <-- SCF
      2  -1.23143462E+002                    2.85033621E+000       7.44  <-- SCF
      3  -1.23243394E+002                    1.24915070E-002       8.55  <-- SCF
      4  -1.22543390E+002                   -8.75005447E-002      10.67  <-- SCF
      5  -1.22518368E+002                   -3.12768349E-003      12.79  <-- SCF
      6  -1.22519187E+002                    1.02352772E-004      14.89  <-- SCF
      7  -1.22519272E+002                    1.06464030E-005      16.98  <-- SCF
      8  -1.22519273E+002                    3.27701373E-008      19.10  <-- SCF
      9  -1.22519273E+002                    1.99229645E-009      21.32  <-- SCF
     10  -1.22519273E+002                    3.64613026E-011      22.90  <-- SCF
     11  -1.22519273E+002                    4.65244892E-013      24.46  <-- SCF
     12  -1.22519273E+002                    3.20233497E-013      26.05  <-- SCF
------------------------------------------------------------------------ <-- SCF
 
Final energy =  -122.5192725723     eV
(energy not corrected for finite basis set)
 
Calculating total energy with cut-off of 1595.000 eV.
------------------------------------------------------------------------ <-- SCF
SCF loop      Energy                           Energy gain       Timer   <-- SCF
                                               per atom          (sec)   <-- SCF
------------------------------------------------------------------------ <-- SCF
Initial  -1.22519273E+002                                         27.34  <-- SCF
      1  -1.22519289E+002                    2.00414436E-006      28.91  <-- SCF
      2  -1.22519289E+002                    1.85191636E-012      30.50  <-- SCF
      3  -1.22519289E+002                    6.91142435E-010      32.05  <-- SCF
      4  -1.22519289E+002                    4.74187262E-011      33.64  <-- SCF
      5  -1.22519289E+002                    6.37445924E-013      35.22  <-- SCF
      6  -1.22519289E+002                    1.41990324E-013      36.82  <-- SCF
------------------------------------------------------------------------ <-- SCF
 
Final energy =  -122.5192886114     eV
(energy not corrected for finite basis set)
 
Calculating total energy with cut-off of 1600.000 eV.
------------------------------------------------------------------------ <-- SCF
SCF loop      Energy                           Energy gain       Timer   <-- SCF
                                               per atom          (sec)   <-- SCF
------------------------------------------------------------------------ <-- SCF
Initial  -1.22519289E+002                                         38.04  <-- SCF
      1  -1.22519304E+002                    1.86437229E-006      39.62  <-- SCF
      2  -1.22519304E+002                    1.91233777E-012      41.30  <-- SCF
      3  -1.22519304E+002                    6.37593956E-010      42.89  <-- SCF
      4  -1.22519304E+002                    4.34339339E-011      44.56  <-- SCF
      5  -1.22519304E+002                    8.36836592E-013      46.15  <-- SCF
      6  -1.22519304E+002                   -2.83980649E-013      47.78  <-- SCF
------------------------------------------------------------------------ <-- SCF
 
Final energy =  -122.5193035319     eV
(energy not corrected for finite basis set)
 
 For future reference: finite basis dEtot/dlog(Ecut) =      -0.004948eV
 Total energy corrected for finite basis set =    -122.519304 eV
 
+---------------- MEMORY AND SCRATCH DISK ESTIMATES PER PROCESS --------------+
|                                                     Memory          Disk    |
| Model and support data                               35.7 MB         0.0 MB |
| Electronic energy minimisation requirements          18.0 MB         0.0 MB |
| Geometry minimisation requirements                   22.6 MB         0.0 MB |
|                                               ----------------------------- |
| Approx. total storage required per process           76.2 MB         0.0 MB |
|                                                                             |
| Requirements will fluctuate during execution and may exceed these estimates |
+-----------------------------------------------------------------------------+
 

 ******************************** Symmetrised Forces ********************************
 *                                                                                  *
 *                           Cartesian components (eV/A)                            *
 * -------------------------------------------------------------------------------- *
 *                         x                    y                    z              *
 *                                                                                  *
 * H               1      0.00003             -0.00027             -0.00029         *
 * H               2      0.00046              0.00034              0.00029         *
 * H               3      0.00046             -0.00034              0.00029         *
 * H               4      0.00003              0.00027             -0.00029         *
 * H               5     -0.00046              0.00034              0.00029         *
 * H               6     -0.00003             -0.00027             -0.00029         *
 * H               7     -0.00046             -0.00034              0.00029         *
 * H               8     -0.00003              0.00027             -0.00029         *
 *                                                                                  *
 ************************************************************************************

 *********** Symmetrised Stress Tensor ***********
 *                                               *
 *          Cartesian components (GPa)           *
 * --------------------------------------------- *
 *             x             y             z     *
 *                                               *
 *  x    -69.935702      0.000000      0.000000  *
 *  y      0.000000    -69.926406      0.000000  *
 *  z      0.000000      0.000000    -69.933658  *
 *                                               *
 *  Pressure:   69.9319                          *
 *                                               *
 *************************************************
 LBFGS: finished iteration     0 with enthalpy= -1.18547915E+002 eV
  
 +-----------+-----------------+-----------------+------------+-----+ <-- LBFGS
 | Parameter |      value      |    tolerance    |    units   | OK? | <-- LBFGS
 +-----------+-----------------+-----------------+------------+-----+ <-- LBFGS
 |  dE/ion   |   0.000000E+000 |   1.000000E-009 |         eV | No  | <-- LBFGS
 |  |F|max   |   6.380594E-004 |   1.000000E-005 |       eV/A | No  | <-- LBFGS
 |  |dR|max  |   0.000000E+000 |   1.000000E-005 |          A | No  | <-- LBFGS
 |   Smax    |   3.993570E+001 |   1.000000E-005 |        GPa | No  | <-- LBFGS
 +-----------+-----------------+-----------------+------------+-----+ <-- LBFGS
  

================================================================================
 Starting LBFGS iteration          1 ...
================================================================================
  
 +------------+-------------+-------------+-----------------+ <-- min LBFGS
 |    Step    |   lambda    |   F.delta'  |    enthalpy     | <-- min LBFGS
 +------------+-------------+-------------+-----------------+ <-- min LBFGS
 |  previous  |    0.000000 |    0.336474 |     -118.547915 | <-- min LBFGS
 +------------+-------------+-------------+-----------------+ <-- min LBFGS
  

--------------------------------------------------------------------------------
 LBFGS: starting iteration         1 with trial guess (lambda=  1.000000)
--------------------------------------------------------------------------------
 
+---------------- MEMORY AND SCRATCH DISK ESTIMATES PER PROCESS --------------+
|                                                     Memory          Disk    |
| Model and support data                               37.0 MB         0.0 MB |
| Electronic energy minimisation requirements          19.3 MB         0.0 MB |
| Geometry minimisation requirements                   24.3 MB         0.0 MB |
|                                               ----------------------------- |
| Approx. total storage required per process           80.7 MB         0.0 MB |
|                                                                             |
| Requirements will fluctuate during execution and may exceed these estimates |
+-----------------------------------------------------------------------------+
 

                           -------------------------------
                                      Unit Cell
                           -------------------------------
        Real Lattice(A)              Reciprocal Lattice(1/A)
     3.4968978     0.0000000     0.0000000        1.796788351   0.000000000   0.000000000
     0.0000000     2.0314263     0.0000000        0.000000000   3.092991938   0.000000000
     0.0000000     0.0000000     3.2305636        0.000000000   0.000000000   1.944919256

                       Lattice parameters(A)       Cell Angles
                    a =      3.496898          alpha =   90.000000
                    b =      2.031426          beta  =   90.000000
                    c =      3.230564          gamma =   90.000000

                Current cell volume =            22.948923 A**3

                           -------------------------------
                                     Cell Contents
                           -------------------------------

            xxxxxxxxxxxxxxxxxxxxxxxxxxxxxxxxxxxxxxxxxxxxxxxxxxxxxxxxxxxxxxxxx
            x  Element         Atom        Fractional coordinates of atoms  x
            x                 Number           u          v          w      x
            x---------------------------------------------------------------x
            x  H                 1         0.352642   0.136466   0.378410   x
            x  H                 2         0.480573   0.363466   0.500490   x
            x  H                 3         0.980573   0.636534   0.500490   x
            x  H                 4         0.852642   0.863534   0.378410   x
            x  H                 5         0.019427   0.363466   0.000490   x
            x  H                 6         0.147358   0.136466   0.878410   x
            x  H                 7         0.519427   0.636534   0.000490   x
            x  H                 8         0.647358   0.863534   0.878410   x
            xxxxxxxxxxxxxxxxxxxxxxxxxxxxxxxxxxxxxxxxxxxxxxxxxxxxxxxxxxxxxxxxx


------------------------------------------------------------------------ <-- SCF
SCF loop      Energy                           Energy gain       Timer   <-- SCF
                                               per atom          (sec)   <-- SCF
------------------------------------------------------------------------ <-- SCF
Initial  -1.23136715E+002                                         50.03  <-- SCF
      1  -1.23184038E+002                    5.91539081E-003      51.67  <-- SCF
      2  -1.23184175E+002                    1.70776064E-005      53.90  <-- SCF
      3  -1.23181675E+002                   -3.12508028E-004      56.11  <-- SCF
      4  -1.23181600E+002                   -9.36081094E-006      58.42  <-- SCF
      5  -1.23181603E+002                    4.06320878E-007      60.64  <-- SCF
      6  -1.23181603E+002                    4.23336962E-008      62.84  <-- SCF
      7  -1.23181603E+002                    1.52422082E-010      64.49  <-- SCF
      8  -1.23181603E+002                    1.49331526E-011      66.15  <-- SCF
      9  -1.23181603E+002                   -3.08149214E-013      67.81  <-- SCF
     10  -1.23181603E+002                    1.63137819E-013      69.51  <-- SCF
------------------------------------------------------------------------ <-- SCF
 
Final energy =  -123.1816033255     eV
(energy not corrected for finite basis set)
 

 ******************************** Symmetrised Forces ********************************
 *                                                                                  *
 *                           Cartesian components (eV/A)                            *
 * -------------------------------------------------------------------------------- *
 *                         x                    y                    z              *
 *                                                                                  *
 * H               1      0.33940              0.35328              0.29779         *
 * H               2     -0.33940             -0.34657             -0.29779         *
 * H               3     -0.33940              0.34657             -0.29779         *
 * H               4      0.33940             -0.35328              0.29779         *
 * H               5      0.33940             -0.34657             -0.29779         *
 * H               6     -0.33940              0.35328              0.29779         *
 * H               7      0.33940              0.34657             -0.29779         *
 * H               8     -0.33940             -0.35328              0.29779         *
 *                                                                                  *
 ************************************************************************************

 *********** Symmetrised Stress Tensor ***********
 *                                               *
 *          Cartesian components (GPa)           *
 * --------------------------------------------- *
 *             x             y             z     *
 *                                               *
 *  x    -52.524182      0.000000      0.000000  *
 *  y      0.000000    -52.321451      0.000000  *
 *  z      0.000000      0.000000    -53.753089  *
 *                                               *
 *  Pressure:   52.8662                          *
 *                                               *
 *************************************************
  
 +------------+-------------+-------------+-----------------+ <-- min LBFGS
 |    Step    |   lambda    |   F.delta'  |    enthalpy     | <-- min LBFGS
 +------------+-------------+-------------+-----------------+ <-- min LBFGS
 |  previous  |    0.000000 |    0.336474 |     -118.547915 | <-- min LBFGS
 | trial step |    1.000000 |    0.202903 |     -118.884526 | <-- min LBFGS
 +------------+-------------+-------------+-----------------+ <-- min LBFGS
  

--------------------------------------------------------------------------------
 LBFGS: improving iteration         1 with line minimization (lambda=  2.519060)
--------------------------------------------------------------------------------
 
+---------------- MEMORY AND SCRATCH DISK ESTIMATES PER PROCESS --------------+
|                                                     Memory          Disk    |
| Model and support data                               39.4 MB         0.0 MB |
| Electronic energy minimisation requirements          21.6 MB         0.0 MB |
| Geometry minimisation requirements                   27.1 MB         0.0 MB |
|                                               ----------------------------- |
| Approx. total storage required per process           88.1 MB         0.0 MB |
|                                                                             |
| Requirements will fluctuate during execution and may exceed these estimates |
+-----------------------------------------------------------------------------+
 

                           -------------------------------
                                      Unit Cell
                           -------------------------------
        Real Lattice(A)              Reciprocal Lattice(1/A)
     3.6346558     0.0000000     0.0000000        1.728687844   0.000000000   0.000000000
     0.0000000     2.1114349     0.0000000        0.000000000   2.975789284   0.000000000
     0.0000000     0.0000000     3.3578231        0.000000000   0.000000000   1.871207941

                       Lattice parameters(A)       Cell Angles
                    a =      3.634656          alpha =   90.000000
                    b =      2.111435          beta  =   90.000000
                    c =      3.357823          gamma =   90.000000

                Current cell volume =            25.769073 A**3

                           -------------------------------
                                     Cell Contents
                           -------------------------------

            xxxxxxxxxxxxxxxxxxxxxxxxxxxxxxxxxxxxxxxxxxxxxxxxxxxxxxxxxxxxxxxxx
            x  Element         Atom        Fractional coordinates of atoms  x
            x                 Number           u          v          w      x
            x---------------------------------------------------------------x
            x  H                 1         0.352643   0.136446   0.378397   x
            x  H                 2         0.480593   0.363492   0.500503   x
            x  H                 3         0.980593   0.636508   0.500503   x
            x  H                 4         0.852643   0.863554   0.378397   x
            x  H                 5         0.019407   0.363492   0.000503   x
            x  H                 6         0.147357   0.136446   0.878397   x
            x  H                 7         0.519407   0.636508   0.000503   x
            x  H                 8         0.647357   0.863554   0.878397   x
            xxxxxxxxxxxxxxxxxxxxxxxxxxxxxxxxxxxxxxxxxxxxxxxxxxxxxxxxxxxxxxxxx


------------------------------------------------------------------------ <-- SCF
SCF loop      Energy                           Energy gain       Timer   <-- SCF
                                               per atom          (sec)   <-- SCF
------------------------------------------------------------------------ <-- SCF
Initial  -1.23829514E+002                                         71.89  <-- SCF
      1  -1.23931044E+002                    1.26912449E-002      73.74  <-- SCF
      2  -1.23931358E+002                    3.92662187E-005      76.18  <-- SCF
      3  -1.23925707E+002                   -7.06433399E-004      78.66  <-- SCF
      4  -1.23925540E+002                   -2.08207614E-005      81.11  <-- SCF
      5  -1.23925549E+002                    1.14907973E-006      83.54  <-- SCF
      6  -1.23925551E+002                    1.26648853E-007      86.04  <-- SCF
      7  -1.23925551E+002                    5.08183371E-010      88.77  <-- SCF
      8  -1.23925551E+002                    5.06784615E-011      90.59  <-- SCF
      9  -1.23925551E+002                    3.98781336E-013      92.40  <-- SCF
     10  -1.23925551E+002                    1.63137819E-013      94.23  <-- SCF
------------------------------------------------------------------------ <-- SCF
 
Final energy =  -123.9255505073     eV
(energy not corrected for finite basis set)
 

 ******************************** Symmetrised Forces ********************************
 *                                                                                  *
 *                           Cartesian components (eV/A)                            *
 * -------------------------------------------------------------------------------- *
 *                         x                    y                    z              *
 *                                                                                  *
 * H               1      0.78526              0.81735              0.68971         *
 * H               2     -0.78590             -0.80271             -0.68971         *
 * H               3     -0.78590              0.80271             -0.68971         *
 * H               4      0.78526             -0.81735              0.68971         *
 * H               5      0.78590             -0.80271             -0.68971         *
 * H               6     -0.78526              0.81735              0.68971         *
 * H               7      0.78590              0.80271             -0.68971         *
 * H               8     -0.78526             -0.81735              0.68971         *
 *                                                                                  *
 ************************************************************************************

 *********** Symmetrised Stress Tensor ***********
 *                                               *
 *          Cartesian components (GPa)           *
 * --------------------------------------------- *
 *             x             y             z     *
 *                                               *
 *  x    -32.349932      0.000000      0.000000  *
 *  y      0.000000    -31.918827      0.000000  *
 *  z      0.000000      0.000000    -34.921445  *
 *                                               *
 *  Pressure:   33.0634                          *
 *                                               *
 *************************************************
  
 +------------+-------------+-------------+-----------------+ <-- min LBFGS
 |    Step    |   lambda    |   F.delta'  |    enthalpy     | <-- min LBFGS
 +------------+-------------+-------------+-----------------+ <-- min LBFGS
 |  previous  |    0.000000 |    0.336474 |     -118.547915 | <-- min LBFGS
 | trial step |    1.000000 |    0.202903 |     -118.884526 | <-- min LBFGS
 |  line step |    2.519060 |    0.028988 |     -119.100413 | <-- min LBFGS
 +------------+-------------+-------------+-----------------+ <-- min LBFGS
  
 LBFGS: finished iteration     1 with enthalpy= -1.19100413E+002 eV
  
 +-----------+-----------------+-----------------+------------+-----+ <-- LBFGS
 | Parameter |      value      |    tolerance    |    units   | OK? | <-- LBFGS
 +-----------+-----------------+-----------------+------------+-----+ <-- LBFGS
 |  dE/ion   |   6.906231E-002 |   1.000000E-009 |         eV | No  | <-- LBFGS
 |  |F|max   |   1.326797E+000 |   1.000000E-005 |       eV/A | No  | <-- LBFGS
 |  |dR|max  |   1.663664E-004 |   1.000000E-005 |          A | No  | <-- LBFGS
 |   Smax    |   4.921445E+000 |   1.000000E-005 |        GPa | No  | <-- LBFGS
 +-----------+-----------------+-----------------+------------+-----+ <-- LBFGS
  

================================================================================
 Starting LBFGS iteration          2 ...
================================================================================
  
 +------------+-------------+-------------+-----------------+ <-- min LBFGS
 |    Step    |   lambda    |   F.delta'  |    enthalpy     | <-- min LBFGS
 +------------+-------------+-------------+-----------------+ <-- min LBFGS
 |  previous  |    0.000000 |    0.253030 |     -119.100413 | <-- min LBFGS
 +------------+-------------+-------------+-----------------+ <-- min LBFGS
  
 WARNING in geom_xvec_to_mdl - large cell change detected
                             - consider your initial cell

--------------------------------------------------------------------------------
 LBFGS: starting iteration         2 with trial guess (lambda=  0.634021)
--------------------------------------------------------------------------------
 
+---------------- MEMORY AND SCRATCH DISK ESTIMATES PER PROCESS --------------+
|                                                     Memory          Disk    |
| Model and support data                               44.3 MB         0.0 MB |
| Electronic energy minimisation requirements          26.6 MB         0.0 MB |
| Geometry minimisation requirements                   33.1 MB         0.0 MB |
|                                               ----------------------------- |
| Approx. total storage required per process          104.0 MB         0.0 MB |
|                                                                             |
| Requirements will fluctuate during execution and may exceed these estimates |
+-----------------------------------------------------------------------------+
 

                           -------------------------------
                                      Unit Cell
                           -------------------------------
        Real Lattice(A)              Reciprocal Lattice(1/A)
     3.8992444     0.0000000     0.0000000        1.611385347   0.000000000   0.000000000
     0.0000000     2.2646568     0.0000000        0.000000000   2.774453602   0.000000000
     0.0000000     0.0000000     3.6065095        0.000000000   0.000000000   1.742179063

                       Lattice parameters(A)       Cell Angles
                    a =      3.899244          alpha =   90.000000
                    b =      2.264657          beta  =   90.000000
                    c =      3.606509          gamma =   90.000000

                Current cell volume =            31.847103 A**3

                           -------------------------------
                                     Cell Contents
                           -------------------------------

            xxxxxxxxxxxxxxxxxxxxxxxxxxxxxxxxxxxxxxxxxxxxxxxxxxxxxxxxxxxxxxxxx
            x  Element         Atom        Fractional coordinates of atoms  x
            x                 Number           u          v          w      x
            x---------------------------------------------------------------x
            x  H                 1         0.369201   0.166070   0.394111   x
            x  H                 2         0.464061   0.334408   0.484789   x
            x  H                 3         0.964061   0.665592   0.484789   x
            x  H                 4         0.869201   0.833930   0.394111   x
            x  H                 5         0.035939   0.334408  -0.015211   x
            x  H                 6         0.130799   0.166070   0.894111   x
            x  H                 7         0.535939   0.665592  -0.015211   x
            x  H                 8         0.630799   0.833930   0.894111   x
            xxxxxxxxxxxxxxxxxxxxxxxxxxxxxxxxxxxxxxxxxxxxxxxxxxxxxxxxxxxxxxxxx


------------------------------------------------------------------------ <-- SCF
SCF loop      Energy                           Energy gain       Timer   <-- SCF
                                               per atom          (sec)   <-- SCF
------------------------------------------------------------------------ <-- SCF
Initial  -1.15730930E+002                                         97.06  <-- SCF
      1  -1.24870839E+002                    1.14248858E+000      99.41  <-- SCF
      2  -1.24904990E+002                    4.26893878E-003     102.56  <-- SCF
      3  -1.23986701E+002                   -1.14786222E-001     105.67  <-- SCF
      4  -1.23959331E+002                   -3.42124806E-003     108.82  <-- SCF
      5  -1.23960546E+002                    1.51942590E-004     111.94  <-- SCF
      6  -1.23960721E+002                    2.18820997E-005     115.07  <-- SCF
      7  -1.23960724E+002                    3.25581783E-007     118.24  <-- SCF
      8  -1.23960724E+002                    1.73227289E-008     121.36  <-- SCF
      9  -1.23960724E+002                    1.10127998E-009     124.40  <-- SCF
     10  -1.23960724E+002                    9.55564672E-012     126.75  <-- SCF
     11  -1.23960724E+002                    7.34120187E-013     129.01  <-- SCF
     12  -1.23960724E+002                    3.86697053E-013     131.34  <-- SCF
------------------------------------------------------------------------ <-- SCF
 
Final energy =  -123.9607240253     eV
(energy not corrected for finite basis set)
 

 ******************************** Symmetrised Forces ********************************
 *                                                                                  *
 *                           Cartesian components (eV/A)                            *
 * -------------------------------------------------------------------------------- *
 *                         x                    y                    z              *
 *                                                                                  *
 * H               1     -3.65024             -3.76146             -3.23264         *
 * H               2      3.65014              3.76807              3.23264         *
 * H               3      3.65014             -3.76807              3.23264         *
 * H               4     -3.65024              3.76146             -3.23264         *
 * H               5     -3.65014              3.76807              3.23264         *
 * H               6      3.65024             -3.76146             -3.23264         *
 * H               7     -3.65014             -3.76807              3.23264         *
 * H               8      3.65024              3.76146             -3.23264         *
 *                                                                                  *
 ************************************************************************************

 *********** Symmetrised Stress Tensor ***********
 *                                               *
 *          Cartesian components (GPa)           *
 * --------------------------------------------- *
 *             x             y             z     *
 *                                               *
 *  x    -47.470995      0.000000      0.000000  *
 *  y      0.000000    -49.108687      0.000000  *
 *  z      0.000000      0.000000    -42.713757  *
 *                                               *
 *  Pressure:   46.4311                          *
 *                                               *
 *************************************************
  
 +------------+-------------+-------------+-----------------+ <-- min LBFGS
 |    Step    |   lambda    |   F.delta'  |    enthalpy     | <-- min LBFGS
 +------------+-------------+-------------+-----------------+ <-- min LBFGS
 |  previous  |    0.000000 |    0.253030 |     -119.100413 | <-- min LBFGS
 | trial step |    0.634021 |   -1.005179 |     -117.997504 | <-- min LBFGS
 +------------+-------------+-------------+-----------------+ <-- min LBFGS
  

--------------------------------------------------------------------------------
 LBFGS: improving iteration         2 with line minimization (lambda=  0.127504)
--------------------------------------------------------------------------------

                           -------------------------------
                                      Unit Cell
                           -------------------------------
        Real Lattice(A)              Reciprocal Lattice(1/A)
     3.6878655     0.0000000     0.0000000        1.703745784   0.000000000   0.000000000
     0.0000000     2.1422484     0.0000000        0.000000000   2.932986401   0.000000000
     0.0000000     0.0000000     3.4078348        0.000000000   0.000000000   1.843747018

                       Lattice parameters(A)       Cell Angles
                    a =      3.687866          alpha =   90.000000
                    b =      2.142248          beta  =   90.000000
                    c =      3.407835          gamma =   90.000000

                Current cell volume =            26.922999 A**3

                           -------------------------------
                                     Cell Contents
                           -------------------------------

            xxxxxxxxxxxxxxxxxxxxxxxxxxxxxxxxxxxxxxxxxxxxxxxxxxxxxxxxxxxxxxxxx
            x  Element         Atom        Fractional coordinates of atoms  x
            x                 Number           u          v          w      x
            x---------------------------------------------------------------x
            x  H                 1         0.355973   0.142404   0.381557   x
            x  H                 2         0.477268   0.357643   0.497343   x
            x  H                 3         0.977268   0.642357   0.497343   x
            x  H                 4         0.855973   0.857596   0.381557   x
            x  H                 5         0.022732   0.357643  -0.002657   x
            x  H                 6         0.144027   0.142404   0.881557   x
            x  H                 7         0.522732   0.642357  -0.002657   x
            x  H                 8         0.644027   0.857596   0.881557   x
            xxxxxxxxxxxxxxxxxxxxxxxxxxxxxxxxxxxxxxxxxxxxxxxxxxxxxxxxxxxxxxxxx


------------------------------------------------------------------------ <-- SCF
SCF loop      Energy                           Energy gain       Timer   <-- SCF
                                               per atom          (sec)   <-- SCF
------------------------------------------------------------------------ <-- SCF
Initial  -1.17559912E+002                                        134.25  <-- SCF
      1  -1.25017900E+002                    9.32248472E-001     136.22  <-- SCF
      2  -1.25036239E+002                    2.29230862E-003     138.84  <-- SCF
      3  -1.24336045E+002                   -8.75242669E-002     141.37  <-- SCF
      4  -1.24317330E+002                   -2.33925655E-003     143.96  <-- SCF
      5  -1.24317577E+002                    3.07829264E-005     146.65  <-- SCF
      6  -1.24317600E+002                    2.84597866E-006     149.24  <-- SCF
      7  -1.24317600E+002                    1.80602811E-008     151.85  <-- SCF
      8  -1.24317600E+002                    2.80409743E-009     154.45  <-- SCF
      9  -1.24317600E+002                    1.02713384E-010     156.38  <-- SCF
     10  -1.24317600E+002                    3.26577746E-012     158.27  <-- SCF
     11  -1.24317600E+002                   -2.41685658E-014     160.26  <-- SCF
------------------------------------------------------------------------ <-- SCF
 
Final energy =  -124.3175996792     eV
(energy not corrected for finite basis set)
 

 ******************************** Symmetrised Forces ********************************
 *                                                                                  *
 *                           Cartesian components (eV/A)                            *
 * -------------------------------------------------------------------------------- *
 *                         x                    y                    z              *
 *                                                                                  *
 * H               1      0.29784              0.31400              0.25846         *
 * H               2     -0.29949             -0.29882             -0.25846         *
 * H               3     -0.29949              0.29882             -0.25846         *
 * H               4      0.29784             -0.31400              0.25846         *
 * H               5      0.29949             -0.29882             -0.25846         *
 * H               6     -0.29784              0.31400              0.25846         *
 * H               7      0.29949              0.29882             -0.25846         *
 * H               8     -0.29784             -0.31400              0.25846         *
 *                                                                                  *
 ************************************************************************************

 *********** Symmetrised Stress Tensor ***********
 *                                               *
 *          Cartesian components (GPa)           *
 * --------------------------------------------- *
 *             x             y             z     *
 *                                               *
 *  x    -33.103412      0.000000      0.000000  *
 *  y      0.000000    -33.005796      0.000000  *
 *  z      0.000000      0.000000    -34.758620  *
 *                                               *
 *  Pressure:   33.6226                          *
 *                                               *
 *************************************************
  
 +------------+-------------+-------------+-----------------+ <-- min LBFGS
 |    Step    |   lambda    |   F.delta'  |    enthalpy     | <-- min LBFGS
 +------------+-------------+-------------+-----------------+ <-- min LBFGS
 |  previous  |    0.000000 |    0.253030 |     -119.100413 | <-- min LBFGS
 | trial step |    0.634021 |   -1.005179 |     -117.997504 | <-- min LBFGS
 |  line step |    0.127504 |    0.116420 |     -119.276395 | <-- min LBFGS
 +------------+-------------+-------------+-----------------+ <-- min LBFGS
  

--------------------------------------------------------------------------------
 LBFGS: improving iteration         2 with quad minimization (lambda=  0.198367)
--------------------------------------------------------------------------------

                           -------------------------------
                                      Unit Cell
                           -------------------------------
        Real Lattice(A)              Reciprocal Lattice(1/A)
     3.7174381     0.0000000     0.0000000        1.690192305   0.000000000   0.000000000
     0.0000000     2.1593737     0.0000000        0.000000000   2.909725753   0.000000000
     0.0000000     0.0000000     3.4356301        0.000000000   0.000000000   1.828830567

                       Lattice parameters(A)       Cell Angles
                    a =      3.717438          alpha =   90.000000
                    b =      2.159374          beta  =   90.000000
                    c =      3.435630          gamma =   90.000000

                Current cell volume =            27.578964 A**3

                           -------------------------------
                                     Cell Contents
                           -------------------------------

            xxxxxxxxxxxxxxxxxxxxxxxxxxxxxxxxxxxxxxxxxxxxxxxxxxxxxxxxxxxxxxxxx
            x  Element         Atom        Fractional coordinates of atoms  x
            x                 Number           u          v          w      x
            x---------------------------------------------------------------x
            x  H                 1         0.357823   0.145715   0.383313   x
            x  H                 2         0.475421   0.354392   0.495587   x
            x  H                 3         0.975421   0.645608   0.495587   x
            x  H                 4         0.857823   0.854285   0.383313   x
            x  H                 5         0.024579   0.354392  -0.004413   x
            x  H                 6         0.142177   0.145715   0.883313   x
            x  H                 7         0.524579   0.645608  -0.004413   x
            x  H                 8         0.642177   0.854285   0.883313   x
            xxxxxxxxxxxxxxxxxxxxxxxxxxxxxxxxxxxxxxxxxxxxxxxxxxxxxxxxxxxxxxxxx


------------------------------------------------------------------------ <-- SCF
SCF loop      Energy                           Energy gain       Timer   <-- SCF
                                               per atom          (sec)   <-- SCF
------------------------------------------------------------------------ <-- SCF
Initial  -1.24370578E+002                                        162.98  <-- SCF
      1  -1.24487338E+002                    1.45950516E-002     164.97  <-- SCF
      2  -1.24487687E+002                    4.36245746E-005     167.93  <-- SCF
      3  -1.24477664E+002                   -1.25291564E-003     170.59  <-- SCF
      4  -1.24477314E+002                   -4.37038027E-005     173.20  <-- SCF
      5  -1.24477321E+002                    8.77617404E-007     175.82  <-- SCF
      6  -1.24477322E+002                    9.68550261E-008     178.47  <-- SCF
      7  -1.24477322E+002                    5.75181656E-010     181.00  <-- SCF
      8  -1.24477322E+002                    5.42825989E-011     182.95  <-- SCF
      9  -1.24477322E+002                    1.09966975E-012     184.88  <-- SCF
     10  -1.24477322E+002                    2.65854224E-013     186.82  <-- SCF
------------------------------------------------------------------------ <-- SCF
 
Final energy =  -124.4773220305     eV
(energy not corrected for finite basis set)
 

 ******************************** Symmetrised Forces ********************************
 *                                                                                  *
 *                           Cartesian components (eV/A)                            *
 * -------------------------------------------------------------------------------- *
 *                         x                    y                    z              *
 *                                                                                  *
 * H               1     -0.03770             -0.03266             -0.03816         *
 * H               2      0.03594              0.04734              0.03816         *
 * H               3      0.03594             -0.04734              0.03816         *
 * H               4     -0.03770              0.03266             -0.03816         *
 * H               5     -0.03594              0.04734              0.03816         *
 * H               6      0.03770             -0.03266             -0.03816         *
 * H               7     -0.03594             -0.04734              0.03816         *
 * H               8      0.03770              0.03266             -0.03816         *
 *                                                                                  *
 ************************************************************************************

 *********** Symmetrised Stress Tensor ***********
 *                                               *
 *          Cartesian components (GPa)           *
 * --------------------------------------------- *
 *             x             y             z     *
 *                                               *
 *  x    -34.008963      0.000000      0.000000  *
 *  y      0.000000    -34.109045      0.000000  *
 *  z      0.000000      0.000000    -35.016112  *
 *                                               *
 *  Pressure:   34.3780                          *
 *                                               *
 *************************************************
  
 +------------+-------------+-------------+-----------------+ <-- min LBFGS
 |    Step    |   lambda    |   F.delta'  |    enthalpy     | <-- min LBFGS
 +------------+-------------+-------------+-----------------+ <-- min LBFGS
 |  previous  |    0.000000 |    0.253030 |     -119.100413 | <-- min LBFGS
 | trial step |    0.634021 |   -1.005179 |     -117.997504 | <-- min LBFGS
 |  line step |    0.127504 |    0.116420 |     -119.276395 | <-- min LBFGS
 |  quad step |    0.198367 |    0.022950 |     -119.313291 | <-- min LBFGS
 +------------+-------------+-------------+-----------------+ <-- min LBFGS
  
 LBFGS: finished iteration     2 with enthalpy= -1.19313291E+002 eV
  
 +-----------+-----------------+-----------------+------------+-----+ <-- LBFGS
 | Parameter |      value      |    tolerance    |    units   | OK? | <-- LBFGS
 +-----------+-----------------+-----------------+------------+-----+ <-- LBFGS
 |  dE/ion   |   2.660974E-002 |   1.000000E-009 |         eV | No  | <-- LBFGS
 |  |F|max   |   7.062895E-002 |   1.000000E-005 |       eV/A | No  | <-- LBFGS
 |  |dR|max  |   3.250814E-002 |   1.000000E-005 |          A | No  | <-- LBFGS
 |   Smax    |   5.016112E+000 |   1.000000E-005 |        GPa | No  | <-- LBFGS
 +-----------+-----------------+-----------------+------------+-----+ <-- LBFGS
  

================================================================================
 Starting LBFGS iteration          3 ...
================================================================================
  
 +------------+-------------+-------------+-----------------+ <-- min LBFGS
 |    Step    |   lambda    |   F.delta'  |    enthalpy     | <-- min LBFGS
 +------------+-------------+-------------+-----------------+ <-- min LBFGS
 |  previous  |    0.000000 |    0.040140 |     -119.313291 | <-- min LBFGS
 +------------+-------------+-------------+-----------------+ <-- min LBFGS
  

--------------------------------------------------------------------------------
 LBFGS: starting iteration         3 with trial guess (lambda=  1.000000)
--------------------------------------------------------------------------------

                           -------------------------------
                                      Unit Cell
                           -------------------------------
        Real Lattice(A)              Reciprocal Lattice(1/A)
     3.7602101     0.0000000     0.0000000        1.670966568   0.000000000   0.000000000
     0.0000000     2.1843372     0.0000000        0.000000000   2.876472293   0.000000000
     0.0000000     0.0000000     3.4784125        0.000000000   0.000000000   1.806337010

                       Lattice parameters(A)       Cell Angles
                    a =      3.760210          alpha =   90.000000
                    b =      2.184337          beta  =   90.000000
                    c =      3.478413          gamma =   90.000000

                Current cell volume =            28.570173 A**3

                           -------------------------------
                                     Cell Contents
                           -------------------------------

            xxxxxxxxxxxxxxxxxxxxxxxxxxxxxxxxxxxxxxxxxxxxxxxxxxxxxxxxxxxxxxxxx
            x  Element         Atom        Fractional coordinates of atoms  x
            x                 Number           u          v          w      x
            x---------------------------------------------------------------x
            x  H                 1         0.358502   0.147313   0.383768   x
            x  H                 2         0.474685   0.353721   0.495132   x
            x  H                 3         0.974685   0.646279   0.495132   x
            x  H                 4         0.858502   0.852687   0.383768   x
            x  H                 5         0.025315   0.353721  -0.004868   x
            x  H                 6         0.141498   0.147313   0.883768   x
            x  H                 7         0.525315   0.646279  -0.004868   x
            x  H                 8         0.641498   0.852687   0.883768   x
            xxxxxxxxxxxxxxxxxxxxxxxxxxxxxxxxxxxxxxxxxxxxxxxxxxxxxxxxxxxxxxxxx


------------------------------------------------------------------------ <-- SCF
SCF loop      Energy                           Energy gain       Timer   <-- SCF
                                               per atom          (sec)   <-- SCF
------------------------------------------------------------------------ <-- SCF
Initial  -1.24648697E+002                                        189.47  <-- SCF
      1  -1.24681239E+002                    4.06782129E-003     191.47  <-- SCF
      2  -1.24681345E+002                    1.32776523E-005     194.20  <-- SCF
      3  -1.24677876E+002                   -4.33725818E-004     197.06  <-- SCF
      4  -1.24677759E+002                   -1.45758761E-005     199.93  <-- SCF
      5  -1.24677762E+002                    3.98111921E-007     202.66  <-- SCF
      6  -1.24677763E+002                    4.79016715E-008     205.74  <-- SCF
      7  -1.24677763E+002                    1.35392306E-010     208.09  <-- SCF
      8  -1.24677763E+002                    2.75974811E-011     210.13  <-- SCF
      9  -1.24677763E+002                    1.03320619E-012     212.14  <-- SCF
     10  -1.24677763E+002                   -4.35034185E-013     214.17  <-- SCF
------------------------------------------------------------------------ <-- SCF
 
Final energy =  -124.6777625222     eV
(energy not corrected for finite basis set)
 

 ******************************** Symmetrised Forces ********************************
 *                                                                                  *
 *                           Cartesian components (eV/A)                            *
 * -------------------------------------------------------------------------------- *
 *                         x                    y                    z              *
 *                                                                                  *
 * H               1     -0.03196             -0.02871             -0.03336         *
 * H               2      0.03056              0.03989              0.03336         *
 * H               3      0.03056             -0.03989              0.03336         *
 * H               4     -0.03196              0.02871             -0.03336         *
 * H               5     -0.03056              0.03989              0.03336         *
 * H               6      0.03196             -0.02871             -0.03336         *
 * H               7     -0.03056             -0.03989              0.03336         *
 * H               8      0.03196              0.02871             -0.03336         *
 *                                                                                  *
 ************************************************************************************

 *********** Symmetrised Stress Tensor ***********
 *                                               *
 *          Cartesian components (GPa)           *
 * --------------------------------------------- *
 *             x             y             z     *
 *                                               *
 *  x    -30.724701      0.000000      0.000000  *
 *  y      0.000000    -30.807674      0.000000  *
 *  z      0.000000      0.000000    -31.652255  *
 *                                               *
 *  Pressure:   31.0615                          *
 *                                               *
 *************************************************
  
 +------------+-------------+-------------+-----------------+ <-- min LBFGS
 |    Step    |   lambda    |   F.delta'  |    enthalpy     | <-- min LBFGS
 +------------+-------------+-------------+-----------------+ <-- min LBFGS
 |  previous  |    0.000000 |    0.040140 |     -119.313291 | <-- min LBFGS
 | trial step |    1.000000 |    0.008091 |     -119.328133 | <-- min LBFGS
 +------------+-------------+-------------+-----------------+ <-- min LBFGS
  
 LBFGS: finished iteration     3 with enthalpy= -1.19328133E+002 eV
  
 +-----------+-----------------+-----------------+------------+-----+ <-- LBFGS
 | Parameter |      value      |    tolerance    |    units   | OK? | <-- LBFGS
 +-----------+-----------------+-----------------+------------+-----+ <-- LBFGS
 |  dE/ion   |   1.855194E-003 |   1.000000E-009 |         eV | No  | <-- LBFGS
 |  |F|max   |   6.031375E-002 |   1.000000E-005 |       eV/A | No  | <-- LBFGS
 |  |dR|max  |   4.606116E-003 |   1.000000E-005 |          A | No  | <-- LBFGS
 |   Smax    |   1.652255E+000 |   1.000000E-005 |        GPa | No  | <-- LBFGS
 +-----------+-----------------+-----------------+------------+-----+ <-- LBFGS
  

================================================================================
 Starting LBFGS iteration          4 ...
================================================================================
  
 +------------+-------------+-------------+-----------------+ <-- min LBFGS
 |    Step    |   lambda    |   F.delta'  |    enthalpy     | <-- min LBFGS
 +------------+-------------+-------------+-----------------+ <-- min LBFGS
 |  previous  |    0.000000 |    0.011595 |     -119.328133 | <-- min LBFGS
 +------------+-------------+-------------+-----------------+ <-- min LBFGS
  

--------------------------------------------------------------------------------
 LBFGS: starting iteration         4 with trial guess (lambda=  1.000000)
--------------------------------------------------------------------------------

                           -------------------------------
                                      Unit Cell
                           -------------------------------
        Real Lattice(A)              Reciprocal Lattice(1/A)
     3.7698615     0.0000000     0.0000000        1.666688640   0.000000000   0.000000000
     0.0000000     2.1900762     0.0000000        0.000000000   2.868934579   0.000000000
     0.0000000     0.0000000     3.4906826        0.000000000   0.000000000   1.799987552

                       Lattice parameters(A)       Cell Angles
                    a =      3.769861          alpha =   90.000000
                    b =      2.190076          beta  =   90.000000
                    c =      3.490683          gamma =   90.000000

                Current cell volume =            28.820067 A**3

                           -------------------------------
                                     Cell Contents
                           -------------------------------

            xxxxxxxxxxxxxxxxxxxxxxxxxxxxxxxxxxxxxxxxxxxxxxxxxxxxxxxxxxxxxxxxx
            x  Element         Atom        Fractional coordinates of atoms  x
            x                 Number           u          v          w      x
            x---------------------------------------------------------------x
            x  H                 1         0.358576   0.147759   0.383608   x
            x  H                 2         0.474555   0.354089   0.495292   x
            x  H                 3         0.974555   0.645911   0.495292   x
            x  H                 4         0.858576   0.852241   0.383608   x
            x  H                 5         0.025445   0.354089  -0.004708   x
            x  H                 6         0.141424   0.147759   0.883608   x
            x  H                 7         0.525445   0.645911  -0.004708   x
            x  H                 8         0.641424   0.852241   0.883608   x
            xxxxxxxxxxxxxxxxxxxxxxxxxxxxxxxxxxxxxxxxxxxxxxxxxxxxxxxxxxxxxxxxx


------------------------------------------------------------------------ <-- SCF
SCF loop      Energy                           Energy gain       Timer   <-- SCF
                                               per atom          (sec)   <-- SCF
------------------------------------------------------------------------ <-- SCF
Initial  -1.24724285E+002                                        217.06  <-- SCF
      1  -1.24725570E+002                    1.60601545E-004     219.09  <-- SCF
      2  -1.24725574E+002                    4.88661616E-007     221.82  <-- SCF
      3  -1.24725493E+002                   -1.00968931E-005     224.52  <-- SCF
      4  -1.24725491E+002                   -2.76208802E-007     227.23  <-- SCF
      5  -1.24725491E+002                    1.36180835E-008     229.97  <-- SCF
      6  -1.24725491E+002                    1.58291720E-009     232.70  <-- SCF
      7  -1.24725491E+002                    5.77326616E-012     234.67  <-- SCF
      8  -1.24725491E+002                    4.60109072E-012     236.63  <-- SCF
      9  -1.24725491E+002                    3.17212427E-013     238.68  <-- SCF
------------------------------------------------------------------------ <-- SCF
 
Final energy =  -124.7254911664     eV
(energy not corrected for finite basis set)
 

 ******************************** Symmetrised Forces ********************************
 *                                                                                  *
 *                           Cartesian components (eV/A)                            *
 * -------------------------------------------------------------------------------- *
 *                         x                    y                    z              *
 *                                                                                  *
 * H               1      0.00875              0.01159              0.00296         *
 * H               2     -0.00980             -0.00375             -0.00296         *
 * H               3     -0.00980              0.00375             -0.00296         *
 * H               4      0.00875             -0.01159              0.00296         *
 * H               5      0.00980             -0.00375             -0.00296         *
 * H               6     -0.00875              0.01159              0.00296         *
 * H               7      0.00980              0.00375             -0.00296         *
 * H               8     -0.00875             -0.01159              0.00296         *
 *                                                                                  *
 ************************************************************************************

 *********** Symmetrised Stress Tensor ***********
 *                                               *
 *          Cartesian components (GPa)           *
 * --------------------------------------------- *
 *             x             y             z     *
 *                                               *
 *  x    -29.640649      0.000000      0.000000  *
 *  y      0.000000    -29.684837      0.000000  *
 *  z      0.000000      0.000000    -30.525230  *
 *                                               *
 *  Pressure:   29.9502                          *
 *                                               *
 *************************************************
  
 +------------+-------------+-------------+-----------------+ <-- min LBFGS
 |    Step    |   lambda    |   F.delta'  |    enthalpy     | <-- min LBFGS
 +------------+-------------+-------------+-----------------+ <-- min LBFGS
 |  previous  |    0.000000 |    0.011595 |     -119.328133 | <-- min LBFGS
 | trial step |    1.000000 |    0.000426 |     -119.329070 | <-- min LBFGS
 +------------+-------------+-------------+-----------------+ <-- min LBFGS
  
 LBFGS: finished iteration     4 with enthalpy= -1.19329070E+002 eV
  
 +-----------+-----------------+-----------------+------------+-----+ <-- LBFGS
 | Parameter |      value      |    tolerance    |    units   | OK? | <-- LBFGS
 +-----------+-----------------+-----------------+------------+-----+ <-- LBFGS
 |  dE/ion   |   1.171462E-004 |   1.000000E-009 |         eV | No  | <-- LBFGS
 |  |F|max   |   1.481688E-002 |   1.000000E-005 |       eV/A | No  | <-- LBFGS
 |  |dR|max  |   1.158532E-003 |   1.000000E-005 |          A | No  | <-- LBFGS
 |   Smax    |   5.252296E-001 |   1.000000E-005 |        GPa | No  | <-- LBFGS
 +-----------+-----------------+-----------------+------------+-----+ <-- LBFGS
  

================================================================================
 Starting LBFGS iteration          5 ...
================================================================================
  
 +------------+-------------+-------------+-----------------+ <-- min LBFGS
 |    Step    |   lambda    |   F.delta'  |    enthalpy     | <-- min LBFGS
 +------------+-------------+-------------+-----------------+ <-- min LBFGS
 |  previous  |    0.000000 |    0.003637 |     -119.329070 | <-- min LBFGS
 +------------+-------------+-------------+-----------------+ <-- min LBFGS
  

--------------------------------------------------------------------------------
 LBFGS: starting iteration         5 with trial guess (lambda=  1.000000)
--------------------------------------------------------------------------------

                           -------------------------------
                                      Unit Cell
                           -------------------------------
        Real Lattice(A)              Reciprocal Lattice(1/A)
     3.7700696     0.0000000     0.0000000        1.666596614   0.000000000   0.000000000
     0.0000000     2.1902875     0.0000000        0.000000000   2.868657839   0.000000000
     0.0000000     0.0000000     3.4934629        0.000000000   0.000000000   1.798555025

                       Lattice parameters(A)       Cell Angles
                    a =      3.770070          alpha =   90.000000
                    b =      2.190287          beta  =   90.000000
                    c =      3.493463          gamma =   90.000000

                Current cell volume =            28.847397 A**3

                           -------------------------------
                                     Cell Contents
                           -------------------------------

            xxxxxxxxxxxxxxxxxxxxxxxxxxxxxxxxxxxxxxxxxxxxxxxxxxxxxxxxxxxxxxxxx
            x  Element         Atom        Fractional coordinates of atoms  x
            x                 Number           u          v          w      x
            x---------------------------------------------------------------x
            x  H                 1         0.358678   0.148108   0.383519   x
            x  H                 2         0.474413   0.354243   0.495381   x
            x  H                 3         0.974413   0.645757   0.495381   x
            x  H                 4         0.858678   0.851892   0.383519   x
            x  H                 5         0.025587   0.354243  -0.004619   x
            x  H                 6         0.141322   0.148108   0.883519   x
            x  H                 7         0.525587   0.645757  -0.004619   x
            x  H                 8         0.641322   0.851892   0.883519   x
            xxxxxxxxxxxxxxxxxxxxxxxxxxxxxxxxxxxxxxxxxxxxxxxxxxxxxxxxxxxxxxxxx


------------------------------------------------------------------------ <-- SCF
SCF loop      Energy                           Energy gain       Timer   <-- SCF
                                               per atom          (sec)   <-- SCF
------------------------------------------------------------------------ <-- SCF
Initial  -1.24730395E+002                                        241.40  <-- SCF
      1  -1.24730729E+002                    4.17045020E-005     243.40  <-- SCF
      2  -1.24730730E+002                    1.22532478E-007     246.16  <-- SCF
      3  -1.24730713E+002                   -2.09300936E-006     248.84  <-- SCF
      4  -1.24730713E+002                   -6.44415866E-008     251.63  <-- SCF
      5  -1.24730713E+002                    1.99733862E-009     254.44  <-- SCF
      6  -1.24730713E+002                    2.44791319E-010     257.16  <-- SCF
      7  -1.24730713E+002                    2.13891808E-012     259.21  <-- SCF
      8  -1.24730713E+002                    9.42574068E-013     261.24  <-- SCF
------------------------------------------------------------------------ <-- SCF
 
Final energy =  -124.7307125897     eV
(energy not corrected for finite basis set)
 

 ******************************** Symmetrised Forces ********************************
 *                                                                                  *
 *                           Cartesian components (eV/A)                            *
 * -------------------------------------------------------------------------------- *
 *                         x                    y                    z              *
 *                                                                                  *
 * H               1      0.00300              0.00447             -0.00198         *
 * H               2     -0.00382              0.00111              0.00198         *
[...]
            x  H                 8         0.640009   0.851028   0.881590   x
            xxxxxxxxxxxxxxxxxxxxxxxxxxxxxxxxxxxxxxxxxxxxxxxxxxxxxxxxxxxxxxxxx


------------------------------------------------------------------------ <-- SCF
SCF loop      Energy                           Energy gain       Timer   <-- SCF
                                               per atom          (sec)   <-- SCF
------------------------------------------------------------------------ <-- SCF
Initial  -1.24727641E+002                                        658.50  <-- SCF
      1  -1.24727641E+002                    1.09695078E-011     659.76  <-- SCF
      2  -1.24727641E+002                    4.38055256E-013     661.71  <-- SCF
      3  -1.24727641E+002                   -1.99390668E-013     663.65  <-- SCF
      4  -1.24727641E+002                   -3.44402063E-013     665.61  <-- SCF
------------------------------------------------------------------------ <-- SCF
 
Final energy =  -124.7276411060     eV
(energy not corrected for finite basis set)
 

 ******************************** Symmetrised Forces ********************************
 *                                                                                  *
 *                           Cartesian components (eV/A)                            *
 * -------------------------------------------------------------------------------- *
 *                         x                    y                    z              *
 *                                                                                  *
 * H               1      0.00000              0.00000             -0.00000         *
 * H               2      0.00000              0.00000              0.00000         *
 * H               3      0.00000             -0.00000              0.00000         *
 * H               4      0.00000             -0.00000             -0.00000         *
 * H               5     -0.00000              0.00000              0.00000         *
 * H               6     -0.00000              0.00000             -0.00000         *
 * H               7     -0.00000             -0.00000              0.00000         *
 * H               8     -0.00000             -0.00000             -0.00000         *
 *                                                                                  *
 ************************************************************************************

 *********** Symmetrised Stress Tensor ***********
 *                                               *
 *          Cartesian components (GPa)           *
 * --------------------------------------------- *
 *             x             y             z     *
 *                                               *
 *  x    -29.999994      0.000000      0.000000  *
 *  y      0.000000    -30.000013      0.000000  *
 *  z      0.000000      0.000000    -30.000005  *
 *                                               *
 *  Pressure:   30.0000                          *
 *                                               *
 *************************************************
  
 +------------+-------------+-------------+-----------------+ <-- min LBFGS
 |    Step    |   lambda    |   F.delta'  |    enthalpy     | <-- min LBFGS
 +------------+-------------+-------------+-----------------+ <-- min LBFGS
 |  previous  |    0.000000 |  2.034E-007 |     -119.329600 | <-- min LBFGS
 | trial step |    1.000000 | -9.753E-008 |     -119.329600 | <-- min LBFGS
 +------------+-------------+-------------+-----------------+ <-- min LBFGS
  
 LBFGS: finished iteration    17 with enthalpy= -1.19329600E+002 eV
  
 +-----------+-----------------+-----------------+------------+-----+ <-- LBFGS
 | Parameter |      value      |    tolerance    |    units   | OK? | <-- LBFGS
 +-----------+-----------------+-----------------+------------+-----+ <-- LBFGS
 |  dE/ion   |   3.927392E-014 |   1.000000E-009 |         eV | Yes | <-- LBFGS
 |  |F|max   |   6.604404E-007 |   1.000000E-005 |       eV/A | Yes | <-- LBFGS
 |  |dR|max  |   4.667603E-007 |   1.000000E-005 |          A | Yes | <-- LBFGS
 |   Smax    |   1.270573E-005 |   1.000000E-005 |        GPa | No  | <-- LBFGS
 +-----------+-----------------+-----------------+------------+-----+ <-- LBFGS
  

================================================================================
 Starting LBFGS iteration         18 ...
================================================================================
  
 +------------+-------------+-------------+-----------------+ <-- min LBFGS
 |    Step    |   lambda    |   F.delta'  |    enthalpy     | <-- min LBFGS
 +------------+-------------+-------------+-----------------+ <-- min LBFGS
 |  previous  |    0.000000 |  1.248E-007 |     -119.329600 | <-- min LBFGS
 +------------+-------------+-------------+-----------------+ <-- min LBFGS
  

--------------------------------------------------------------------------------
 LBFGS: starting iteration        18 with trial guess (lambda=  1.000000)
--------------------------------------------------------------------------------

                           -------------------------------
                                      Unit Cell
                           -------------------------------
        Real Lattice(A)              Reciprocal Lattice(1/A)
     3.7624536     0.0000000     0.0000000        1.669970172   0.000000000   0.000000000
     0.0000000     2.1851181     0.0000000        0.000000000   2.875444303   0.000000000
     0.0000000     0.0000000     3.5065437        0.000000000   0.000000000   1.791845727

                       Lattice parameters(A)       Cell Angles
                    a =      3.762454          alpha =   90.000000
                    b =      2.185118          beta  =   90.000000
                    c =      3.506544          gamma =   90.000000

                Current cell volume =            28.828717 A**3

                           -------------------------------
                                     Cell Contents
                           -------------------------------

            xxxxxxxxxxxxxxxxxxxxxxxxxxxxxxxxxxxxxxxxxxxxxxxxxxxxxxxxxxxxxxxxx
            x  Element         Atom        Fractional coordinates of atoms  x
            x                 Number           u          v          w      x
            x---------------------------------------------------------------x
            x  H                 1         0.359991   0.148972   0.381590   x
            x  H                 2         0.472738   0.354748   0.497310   x
            x  H                 3         0.972738   0.645252   0.497310   x
            x  H                 4         0.859991   0.851028   0.381590   x
            x  H                 5         0.027262   0.354748  -0.002690   x
            x  H                 6         0.140009   0.148972   0.881590   x
            x  H                 7         0.527262   0.645252  -0.002690   x
            x  H                 8         0.640009   0.851028   0.881590   x
            xxxxxxxxxxxxxxxxxxxxxxxxxxxxxxxxxxxxxxxxxxxxxxxxxxxxxxxxxxxxxxxxx


------------------------------------------------------------------------ <-- SCF
SCF loop      Energy                           Energy gain       Timer   <-- SCF
                                               per atom          (sec)   <-- SCF
------------------------------------------------------------------------ <-- SCF
Initial  -1.24727641E+002                                        668.53  <-- SCF
      1  -1.24727641E+002                    7.67351965E-012     669.82  <-- SCF
      2  -1.24727641E+002                    2.05432810E-013     671.74  <-- SCF
      3  -1.24727641E+002                    3.02107073E-015     673.77  <-- SCF
      4  -1.24727641E+002                    9.96953341E-014     675.75  <-- SCF
------------------------------------------------------------------------ <-- SCF
 
Final energy =  -124.7276412452     eV
(energy not corrected for finite basis set)
 

 ******************************** Symmetrised Forces ********************************
 *                                                                                  *
 *                           Cartesian components (eV/A)                            *
 * -------------------------------------------------------------------------------- *
 *                         x                    y                    z              *
 *                                                                                  *
 * H               1      0.00000             -0.00000              0.00000         *
 * H               2      0.00000              0.00000             -0.00000         *
 * H               3      0.00000             -0.00000             -0.00000         *
 * H               4      0.00000              0.00000              0.00000         *
 * H               5     -0.00000              0.00000             -0.00000         *
 * H               6     -0.00000             -0.00000              0.00000         *
 * H               7     -0.00000             -0.00000             -0.00000         *
 * H               8     -0.00000              0.00000              0.00000         *
 *                                                                                  *
 ************************************************************************************

 *********** Symmetrised Stress Tensor ***********
 *                                               *
 *          Cartesian components (GPa)           *
 * --------------------------------------------- *
 *             x             y             z     *
 *                                               *
 *  x    -29.999994      0.000000      0.000000  *
 *  y      0.000000    -30.000008      0.000000  *
 *  z      0.000000      0.000000    -30.000003  *
 *                                               *
 *  Pressure:   30.0000                          *
 *                                               *
 *************************************************
  
 +------------+-------------+-------------+-----------------+ <-- min LBFGS
 |    Step    |   lambda    |   F.delta'  |    enthalpy     | <-- min LBFGS
 +------------+-------------+-------------+-----------------+ <-- min LBFGS
 |  previous  |    0.000000 |  1.248E-007 |     -119.329600 | <-- min LBFGS
 | trial step |    1.000000 |  2.039E-008 |     -119.329600 | <-- min LBFGS
 +------------+-------------+-------------+-----------------+ <-- min LBFGS
  
 LBFGS: finished iteration    18 with enthalpy= -1.19329600E+002 eV
  
 +-----------+-----------------+-----------------+------------+-----+ <-- LBFGS
 | Parameter |      value      |    tolerance    |    units   | OK? | <-- LBFGS
 +-----------+-----------------+-----------------+------------+-----+ <-- LBFGS
 |  dE/ion   |   3.172124E-013 |   1.000000E-009 |         eV | Yes | <-- LBFGS
 |  |F|max   |   5.526881E-007 |   1.000000E-005 |       eV/A | Yes | <-- LBFGS
 |  |dR|max  |   4.812873E-007 |   1.000000E-005 |          A | Yes | <-- LBFGS
 |   Smax    |   8.419188E-006 |   1.000000E-005 |        GPa | Yes | <-- LBFGS
 +-----------+-----------------+-----------------+------------+-----+ <-- LBFGS
  
 LBFGS: Geometry optimization completed successfully.

================================================================================
 LBFGS: Final Configuration:
================================================================================

                           -------------------------------
                                      Unit Cell
                           -------------------------------
        Real Lattice(A)              Reciprocal Lattice(1/A)
     3.7624536     0.0000000     0.0000000        1.669970172   0.000000000   0.000000000
     0.0000000     2.1851181     0.0000000        0.000000000   2.875444303   0.000000000
     0.0000000     0.0000000     3.5065437        0.000000000   0.000000000   1.791845727

                       Lattice parameters(A)       Cell Angles
                    a =      3.762454          alpha =   90.000000
                    b =      2.185118          beta  =   90.000000
                    c =      3.506544          gamma =   90.000000

                Current cell volume =            28.828717 A**3

                           -------------------------------
                                     Cell Contents
                           -------------------------------

            xxxxxxxxxxxxxxxxxxxxxxxxxxxxxxxxxxxxxxxxxxxxxxxxxxxxxxxxxxxxxxxxx
            x  Element         Atom        Fractional coordinates of atoms  x
            x                 Number           u          v          w      x
            x---------------------------------------------------------------x
            x  H                 1         0.359991   0.148972   0.381590   x
            x  H                 2         0.472738   0.354748   0.497310   x
            x  H                 3         0.972738   0.645252   0.497310   x
            x  H                 4         0.859991   0.851028   0.381590   x
            x  H                 5         0.027262   0.354748  -0.002690   x
            x  H                 6         0.140009   0.148972   0.881590   x
            x  H                 7         0.527262   0.645252  -0.002690   x
            x  H                 8         0.640009   0.851028   0.881590   x
            xxxxxxxxxxxxxxxxxxxxxxxxxxxxxxxxxxxxxxxxxxxxxxxxxxxxxxxxxxxxxxxxx


 LBFGS: Final Enthalpy     = -1.19329600E+002 eV
 LBFGS: Final <frequency>  =    1418.01674 cm-1
 LBFGS: Final bulk modulus =      87.19287 GPa
  
  **********************************************************
  *** There were at least     1 warnings during this run ***
  *** => please check the whole of this file carefully!  ***
  **********************************************************

 ******************************** Symmetrised Forces ********************************
 *                                                                                  *
 *                           Cartesian components (eV/A)                            *
 * -------------------------------------------------------------------------------- *
 *                         x                    y                    z              *
 *                                                                                  *
 * H               1      0.00000             -0.00000              0.00000         *
 * H               2      0.00000              0.00000             -0.00000         *
 * H               3      0.00000             -0.00000             -0.00000         *
 * H               4      0.00000              0.00000              0.00000         *
 * H               5     -0.00000              0.00000             -0.00000         *
 * H               6     -0.00000             -0.00000              0.00000         *
 * H               7     -0.00000             -0.00000             -0.00000         *
 * H               8     -0.00000              0.00000              0.00000         *
 *                                                                                  *
 ************************************************************************************

 *********** Symmetrised Stress Tensor ***********
 *                                               *
 *          Cartesian components (GPa)           *
 * --------------------------------------------- *
 *             x             y             z     *
 *                                               *
 *  x    -29.999994      0.000000      0.000000  *
 *  y      0.000000    -30.000008      0.000000  *
 *  z      0.000000      0.000000    -30.000003  *
 *                                               *
 *  Pressure:   30.0000                          *
 *                                               *
 *************************************************

 Pseudo atomic calculation performed for H 1s1

 Converged in 24 iterations to a total energy of -12.4855 eV

Charge spilling parameter for spin component 1 = 0.77%

            Orbital Populations       
     Ion    Atom   Orbital             Charge
  -------------------------------------------
      H     1      S                    0.999
      H     2      S                    1.001
      H     3      S                    1.001
      H     4      S                    0.999
      H     5      S                    0.999
      H     6      S                    1.000
      H     7      S                    1.003
      H     8      S                    0.999
  -------------------------------------------
                           Total:       8.000
  -------------------------------------------

     Atomic Populations (Mulliken)
     -----------------------------
Species          Ion     s      p      d      f     Total  Charge (e)
=====================================================================
  H               1     1.00   0.00   0.00   0.00   1.00     0.00
  H               2     1.00   0.00   0.00   0.00   1.00    -0.00
  H               3     1.00   0.00   0.00   0.00   1.00    -0.00
  H               4     1.00   0.00   0.00   0.00   1.00     0.00
  H               5     1.00   0.00   0.00   0.00   1.00    -0.00
  H               6     1.00   0.00   0.00   0.00   1.00     0.00
  H               7     1.00   0.00   0.00   0.00   1.00    -0.00
  H               8     1.00   0.00   0.00   0.00   1.00     0.00
=====================================================================

                 Bond                   Population      Length (A)
======================================================================
               H 5 -- H 6                    1.23        0.73945
               H 1 -- H 2                    1.23        0.73945
               H 3 -- H 4                    1.23        0.73945
               H 7 -- H 8                    1.23        0.73945
               H 1 -- H 7                   -0.18        1.84060
               H 3 -- H 6                   -0.18        1.84060
               H 4 -- H 5                   -0.18        1.84060
               H 2 -- H 8                   -0.18        1.84060
               H 1 -- H 3                   -0.17        1.86106
               H 2 -- H 4                   -0.17        1.86106
               H 5 -- H 8                   -0.17        1.86106
               H 6 -- H 7                   -0.17        1.86106
               H 3 -- H 5                   -0.17        1.87590
               H 2 -- H 7                   -0.17        1.87590
               H 1 -- H 5                   -0.08        1.89344
               H 4 -- H 7                   -0.08        1.89344
               H 3 -- H 8                   -0.08        1.89344
               H 2 -- H 6                   -0.08        1.89344
               H 4 -- H 8                   -0.07        1.93882
               H 1 -- H 6                   -0.07        1.93882
               H 5 -- H 7                   -0.16        1.98544
               H 2 -- H 3                   -0.16        1.98544
               H 6 -- H 8                   -0.20        1.99070
               H 1 -- H 4                   -0.20        1.99070
               H 4 -- H 6                   -0.18        2.14658
               H 1 -- H 8                   -0.18        2.14658
======================================================================


Writing analysis data to Pca21.castep_bin

Writing model to Pca21.check
 
 A BibTeX formatted list of references used in this run has been written to 
 Pca21.bib
 
Initialisation time =      3.20 s
Calculation time    =    676.25 s
Finalisation time   =      3.81 s
Total time          =    683.27 s
Peak Memory Use     = 569664 kB
  
Overall parallel efficiency rating: Very good (81%)                             
  
Data was distributed by:-
k-point (32-way); efficiency rating: Very good (81%)                            
