 +-------------------------------------------------+
 |                                                 |
 |      CCC   AA    SSS  TTTTT  EEEEE  PPPP        |
 |     C     A  A  S       T    E      P   P       |
 |     C     AAAA   SS     T    EEE    PPPP        |
 |     C     A  A     S    T    E      P           |
 |      CCC  A  A  SSS     T    EEEEE  P           |
 |                                                 |
 +-------------------------------------------------+
 |                                                 |
 | Welcome to Academic Release CASTEP version 18.1 |          
 | Ab Initio Total Energy Program                  |
 |                                                 |
 | Authors:                                        |
 | M. Segall, M. Probert, C. Pickard, P. Hasnip,   |
 | S. Clark, K. Refson, J. R. Yates, M. Payne      |
 |                                                 |
 | Contributors:                                   |
 | P. Lindan, P. Haynes, J. White, V. Milman,      |
 | N. Govind, M. Gibson, P. Tulip, V. Cocula,      |
 | B. Montanari, D. Quigley, M. Glover,            |
 | L. Bernasconi, A. Perlov, M. Plummer,           |
 | E. McNellis, J. Meyer, J. Gale, D. Jochym       |
 | J. Aarons, B. Walker, R. Gillen, D. Jones       |
 | T. Green, I. J. Bush, C. J. Armstrong,          |
 | E. J. Higgins, E. L. Brown, M. S. McFly,        |
 | J. Wilkins, B-C. Shih, P. J. P. Byrne           |
 |                                                 |
 | Copyright (c) 2000 - 2017                       |
 |                                                 |
 |     Distributed under the terms of an           |
 |     Agreement between the United Kingdom        |
 |     Car-Parrinello (UKCP) Consortium,           |
 |     Daresbury Laboratory and Accelrys, Inc.     |
 |                                                 |
 | Please cite                                     |
 |                                                 |
 |     "First principles methods using CASTEP"     |
 |                                                 |
 |         Zeitschrift fuer Kristallographie       |
 |           220(5-6) pp. 567-570 (2005)           |
 |                                                 |
 | S. J. Clark, M. D. Segall, C. J. Pickard,       |
 | P. J. Hasnip, M. J. Probert, K. Refson,         |
 | M. C. Payne                                     |
 |                                                 |
 |       in all publications arising from          |
 |              your use of CASTEP                 |
 |                                                 |
 +-------------------------------------------------+


 Compiled for linux_x86_64_gfortran4.8 on Thu, 19 Jul 2018 15:42:32 +0100
 from code version 70483bd0ad64+  Sun, 10 Dec 2017 12:18:29 +0000
 Compiler: GNU Fortran 4.8.5; Optimisation: fast
 MATHLIBS: Intel MKL(2018.0.0) (LAPACK version 3.7.0)
 FFT Lib : mkl
 Fundamental constants values: CODATA 2014

 Run started: Sun, 30 Aug 2020 22:52:07 +0100

 Atomic calculation performed for H: 1s1

 Converged in 41 iterations to an ae energy of -12.488 eV

   ============================================================                
   | Pseudopotential Report - Date of generation 30-08-2020   |                
   ------------------------------------------------------------                
   | Element: H Ionic charge:  1.00 Level of theory: PBE      |                
   | Atomic Solver: Koelling-Harmon                           |                
   |                                                          |                
   |               Reference Electronic Structure             |                
   |         Orbital         Occupation         Energy        |                
   |            1s              1.000           -0.239        |                
   |                                                          |                
   |                 Pseudopotential Definition               |                
   |        Beta     l      e      Rc     scheme   norm       |                
   |         loc     0   -0.239   0.702     qc      1         |                
   |                                                          |                
   | No charge augmentation                                   |                
   | No partial core correction                               |                
   ------------------------------------------------------------                
   | "0|0.7|2|6|8|10L(qc=10)"                                 |                
   ------------------------------------------------------------                
   |      Author: Chris J. Pickard, Cambridge University      |                
   ============================================================                

 Pseudo atomic calculation performed for H 1s1

 Converged in 24 iterations to a total energy of -12.4855 eV

 Calculation parallelised over 32 processes.
 Data is distributed by k-point(32-way)

 ************************************ Title ************************************
 

 ***************************** General Parameters ******************************
  
 output verbosity                               : normal  (1)
 write checkpoint data to                       : Pca21.check
 type of calculation                            : geometry optimization
 stress calculation                             : on
 density difference calculation                 : off
 electron localisation func (ELF) calculation   : off
 Hirshfeld analysis                             : off
 unlimited duration calculation
 timing information                             : on
 memory usage estimate                          : on
 write extra output files                       : on
 write final potential to formatted file        : off
 write final density to formatted file          : off
 write structure in CELL formatted file         : on
 write BibTeX reference list                    : on
 write OTFG pseudopotential files               : on
 write electrostatic potential file             : on
 write bands file                               : on
 checkpoint writing                             : both castep_bin and check files
  
 output         length unit                     : A
 output           mass unit                     : amu
 output           time unit                     : ps
 output         charge unit                     : e
 output           spin unit                     : hbar/2
 output         energy unit                     : eV
 output          force unit                     : eV/A
 output       velocity unit                     : A/ps
 output       pressure unit                     : GPa
 output     inv_length unit                     : 1/A
 output      frequency unit                     : cm-1
 output force constant unit                     : eV/A**2
 output         volume unit                     : A**3
 output   IR intensity unit                     : (D/A)**2/amu
 output         dipole unit                     : D
 output         efield unit                     : eV/A/e
 output        entropy unit                     : J/mol/K
  
 wavefunctions paging                           : none
 random number generator seed                   : randomised (225207868)
 data distribution                              : optimal for this architecture
 optimization strategy                          : maximize speed(+++)

 *********************** Exchange-Correlation Parameters ***********************
  
 using functional                               : Perdew Burke Ernzerhof
 relativistic treatment                         : Koelling-Harmon
 DFT+D: Semi-empirical dispersion correction    : off

 ************************* Pseudopotential Parameters **************************
  
 pseudopotential representation                 : reciprocal space
 <beta|phi> representation                      : reciprocal space
 spin-orbit coupling                            : off

 **************************** Basis Set Parameters *****************************
  
 plane wave basis set cut-off                   :  1600.0000   eV
 size of standard grid                          :     2.0000
 size of   fine   gmax                          :    40.9853   1/A
 finite basis set correction                    : automatic
 number of sample energies                      :          3
           sample  spacing                      :     5.0000   eV

 **************************** Electronic Parameters ****************************
  
 number of  electrons                           :  8.000    
 net charge of system                           :  0.000    
 treating system as non-spin-polarized
 number of bands                                :          4

 ********************* Electronic Minimization Parameters **********************
  
 Method: Treating system as non-metallic,
         and number of  SD  steps               :          1
         and number of  CG  steps               :          4
  
 total energy / atom convergence tol.           : 0.1000E-10   eV
 eigen-energy convergence tolerance             : 0.2000E-10   eV
 max force / atom convergence tol.              : ignored
 convergence tolerance window                   :          3   cycles
 max. number of SCF cycles                      :        200
 periodic dipole correction                     : NONE

 ************************** Density Mixing Parameters **************************
  
 density-mixing scheme                          : Broyden
 max. length of mixing history                  :         20
 charge density mixing amplitude                : 0.8000    
 cut-off energy for mixing                      :  1600.       eV

 *********************** Population Analysis Parameters ************************
  
 Population analysis with cutoff                :  3.000       A
 Population analysis output                     : summary and pdos components

 ********************** Geometry Optimization Parameters ***********************
  
 optimization method                            : LBFGS
 max. no. of LBFGS updates                      : unbounded
 variable cell method                           : fixed basis quality
 max. number of steps                           :        200
 estimated bulk modulus                         :  500.0       GPa
 estimated <frequency>                          :  1668.       cm-1
 geom line minimiser                            : on
 with line minimiser tolerance                  :     0.4000
 total energy convergence tolerance             : 0.1000E-08   eV/atom
        max ionic |force| tolerance             : 0.1000E-04   eV/A
 max ionic |displacement| tolerance             : 0.1000E-04   A
   max |stress component| tolerance             : 0.1000E-04   GPa
 convergence tolerance window                   :          2   steps
 backup results every                           : 2147483647   steps
 write geom trajectory file                     : on

 *******************************************************************************
  

                           -------------------------------
                                      Unit Cell
                           -------------------------------
        Real Lattice(A)                      Reciprocal Lattice(1/A)
     3.5462678     0.0000000     0.0000000        1.771774072   0.000000000   0.000000000
     0.0000000     2.0598128     0.0000000        0.000000000   3.050367177   0.000000000
     0.0000000     0.0000000     3.2888827        0.000000000   0.000000000   1.910431574

                       Lattice parameters(A)       Cell Angles
                    a =      3.546268          alpha =   90.000000
                    b =      2.059813          beta  =   90.000000
                    c =      3.288883          gamma =   90.000000

                       Current cell volume =            24.024129       A**3
                                   density =             0.335643   AMU/A**3
                                           =             0.557348     g/cm^3

                           -------------------------------
                                     Cell Contents
                           -------------------------------
                         Total number of ions in cell =    8
                      Total number of species in cell =    1
                        Max number of any one species =    8

            xxxxxxxxxxxxxxxxxxxxxxxxxxxxxxxxxxxxxxxxxxxxxxxxxxxxxxxxxxxx
            x  Element    Atom        Fractional coordinates of atoms  x
            x            Number           u          v          w      x
            x----------------------------------------------------------x
            x  H            1         0.355919   0.141875   0.379411   x 
            x  H            2         0.477074   0.359922   0.499490   x 
            x  H            3         0.977074   0.640078   0.499490   x 
            x  H            4         0.855919   0.858125   0.379411   x 
            x  H            5         0.022926   0.359922  -0.000510   x 
            x  H            6         0.144081   0.141875   0.879411   x 
            x  H            7         0.522926   0.640078  -0.000510   x 
            x  H            8         0.644081   0.858125   0.879411   x 
            xxxxxxxxxxxxxxxxxxxxxxxxxxxxxxxxxxxxxxxxxxxxxxxxxxxxxxxxxxxx


                         No user defined ionic velocities

                           -------------------------------
                                   Details of Species
                           -------------------------------

                               Mass of species in AMU
                                    H    1.0078250

                          Electric Quadrupole Moment (Barn)
                                    H    0.0028600 Isotope  2

                          Files used for pseudopotentials:
                                    H 0|0.7|2|6|8|10L(qc=10)

                           -------------------------------
                              k-Points For BZ Sampling
                           -------------------------------
                       MP grid size for SCF calculation is 15 15 15
                            with an offset of   0.000  0.000  0.000
                       Number of kpoints used =           512

                           -------------------------------
                               Symmetry and Constraints
                           -------------------------------

                      Maximum deviation from symmetry = 0.693765E-14     ANG

                      Number of symmetry operations   =           4
                      Number of ionic constraints     =           3
                      Point group of crystal =     6: C2v, mm2, 2 mm
                      Space group of crystal =    29: Pca2_1, P 2c -2ac

             Set iprint > 1 for details on symmetry rotations/translations

                         Centre of mass is constrained
             Set iprint > 1 for details of linear ionic constraints

                         Number of cell constraints= 3
                         Cell constraints are:  1 2 3 0 0 0

                         External pressure/stress (GPa)
                         60.00000   0.00000   0.00000
                                   60.00000   0.00000
                                             60.00000
  
+---------------- MEMORY AND SCRATCH DISK ESTIMATES PER PROCESS --------------+
|                                                     Memory          Disk    |
| Baseline code, static data and system overhead      476.0 MB         0.0 MB |
| BLAS internal memory storage                          0.0 MB         0.0 MB |
| Model and support data                               29.2 MB         0.0 MB |
| Electronic energy minimisation requirements          20.0 MB         0.0 MB |
| Force calculation requirements                        6.7 MB         0.0 MB |
| Stress calculation requirements                       8.5 MB         0.0 MB |
|                                               ----------------------------- |
| Approx. total storage required per process          525.2 MB         0.0 MB |
|                                                                             |
| Requirements will fluctuate during execution and may exceed these estimates |
+-----------------------------------------------------------------------------+
Calculating finite basis set correction with  3 cut-off energies.
Calculating total energy with cut-off of 1590.000 eV.
------------------------------------------------------------------------ <-- SCF
SCF loop      Energy                           Energy gain       Timer   <-- SCF
                                               per atom          (sec)   <-- SCF
------------------------------------------------------------------------ <-- SCF
Initial   2.07237247E+002                                          4.23  <-- SCF
      1  -9.93652835E+001                    3.83253163E+001       6.22  <-- SCF
      2  -1.24281674E+002                    3.11454878E+000       7.71  <-- SCF
      3  -1.24398237E+002                    1.45704670E-002       8.91  <-- SCF
      4  -1.23585051E+002                   -1.01648282E-001      11.14  <-- SCF
      5  -1.23558865E+002                   -3.27321051E-003      13.35  <-- SCF
      6  -1.23560054E+002                    1.48506788E-004      15.53  <-- SCF
      7  -1.23560186E+002                    1.65266569E-005      17.94  <-- SCF
      8  -1.23560186E+002                    5.64394440E-008      20.20  <-- SCF
      9  -1.23560186E+002                    4.54961772E-009      22.51  <-- SCF
     10  -1.23560186E+002                    3.05490672E-011      24.16  <-- SCF
     11  -1.23560186E+002                    2.13891808E-012      25.72  <-- SCF
     12  -1.23560186E+002                    1.75222102E-013      27.34  <-- SCF
------------------------------------------------------------------------ <-- SCF
 
Final energy =  -123.5601862372     eV
(energy not corrected for finite basis set)
 
Calculating total energy with cut-off of 1595.000 eV.
------------------------------------------------------------------------ <-- SCF
SCF loop      Energy                           Energy gain       Timer   <-- SCF
                                               per atom          (sec)   <-- SCF
------------------------------------------------------------------------ <-- SCF
Initial  -1.23560186E+002                                         28.48  <-- SCF
      1  -1.23560203E+002                    2.08932403E-006      30.16  <-- SCF
      2  -1.23560203E+002                    1.87910599E-012      31.89  <-- SCF
      3  -1.23560203E+002                    7.41322420E-010      33.55  <-- SCF
      4  -1.23560203E+002                    5.04700076E-011      35.21  <-- SCF
      5  -1.23560203E+002                    7.31099117E-013      36.85  <-- SCF
      6  -1.23560203E+002                   -1.51053536E-013      38.48  <-- SCF
------------------------------------------------------------------------ <-- SCF
 
Final energy =  -123.5602029582     eV
(energy not corrected for finite basis set)
 
Calculating total energy with cut-off of 1600.000 eV.
------------------------------------------------------------------------ <-- SCF
SCF loop      Energy                           Energy gain       Timer   <-- SCF
                                               per atom          (sec)   <-- SCF
------------------------------------------------------------------------ <-- SCF
Initial  -1.23560203E+002                                         39.68  <-- SCF
      1  -1.23560218E+002                    1.87712770E-006      41.32  <-- SCF
      2  -1.23560218E+002                    1.90931670E-012      43.00  <-- SCF
      3  -1.23560218E+002                    6.54907713E-010      44.65  <-- SCF
      4  -1.23560218E+002                    4.40562745E-011      46.31  <-- SCF
      5  -1.23560218E+002                    5.28687378E-013      47.97  <-- SCF
      6  -1.23560218E+002                   -3.83675983E-013      49.81  <-- SCF
------------------------------------------------------------------------ <-- SCF
 
Final energy =  -123.5602179808     eV
(energy not corrected for finite basis set)
 
 For future reference: finite basis dEtot/dlog(Ecut) =      -0.005062eV
 Total energy corrected for finite basis set =    -123.560218 eV
 
+---------------- MEMORY AND SCRATCH DISK ESTIMATES PER PROCESS --------------+
|                                                     Memory          Disk    |
| Model and support data                               37.5 MB         0.0 MB |
| Electronic energy minimisation requirements          20.0 MB         0.0 MB |
| Geometry minimisation requirements                   25.1 MB         0.0 MB |
|                                               ----------------------------- |
| Approx. total storage required per process           82.7 MB         0.0 MB |
|                                                                             |
| Requirements will fluctuate during execution and may exceed these estimates |
+-----------------------------------------------------------------------------+
 

 ******************************** Symmetrised Forces ********************************
 *                                                                                  *
 *                           Cartesian components (eV/A)                            *
 * -------------------------------------------------------------------------------- *
 *                         x                    y                    z              *
 *                                                                                  *
 * H               1     -0.00000             -0.00000             -0.00000         *
 * H               2      0.00000              0.00000              0.00000         *
 * H               3      0.00000             -0.00000              0.00000         *
 * H               4     -0.00000              0.00000             -0.00000         *
 * H               5     -0.00000              0.00000              0.00000         *
 * H               6      0.00000             -0.00000             -0.00000         *
 * H               7     -0.00000             -0.00000              0.00000         *
 * H               8      0.00000              0.00000             -0.00000         *
 *                                                                                  *
 ************************************************************************************

 *********** Symmetrised Stress Tensor ***********
 *                                               *
 *          Cartesian components (GPa)           *
 * --------------------------------------------- *
 *             x             y             z     *
 *                                               *
 *  x    -50.001765      0.000000      0.000000  *
 *  y      0.000000    -50.001774      0.000000  *
 *  z      0.000000      0.000000    -50.001763  *
 *                                               *
 *  Pressure:   50.0018                          *
 *                                               *
 *************************************************
 LBFGS: finished iteration     0 with enthalpy= -1.14563409E+002 eV
  
 +-----------+-----------------+-----------------+------------+-----+ <-- LBFGS
 | Parameter |      value      |    tolerance    |    units   | OK? | <-- LBFGS
 +-----------+-----------------+-----------------+------------+-----+ <-- LBFGS
 |  dE/ion   |   0.000000E+000 |   1.000000E-009 |         eV | No  | <-- LBFGS
 |  |F|max   |   6.937763E-007 |   1.000000E-005 |       eV/A | Yes | <-- LBFGS
 |  |dR|max  |   0.000000E+000 |   1.000000E-005 |          A | No  | <-- LBFGS
 |   Smax    |   9.998237E+000 |   1.000000E-005 |        GPa | No  | <-- LBFGS
 +-----------+-----------------+-----------------+------------+-----+ <-- LBFGS
  

================================================================================
 Starting LBFGS iteration          1 ...
================================================================================
  
 +------------+-------------+-------------+-----------------+ <-- min LBFGS
 |    Step    |   lambda    |   F.delta'  |    enthalpy     | <-- min LBFGS
 +------------+-------------+-------------+-----------------+ <-- min LBFGS
 |  previous  |    0.000000 |    0.095427 |     -114.563409 | <-- min LBFGS
 +------------+-------------+-------------+-----------------+ <-- min LBFGS
  

--------------------------------------------------------------------------------
 LBFGS: starting iteration         1 with trial guess (lambda=  1.000000)
--------------------------------------------------------------------------------

                           -------------------------------
                                      Unit Cell
                           -------------------------------
        Real Lattice(A)              Reciprocal Lattice(1/A)
     3.5226302     0.0000000     0.0000000        1.783663060   0.000000000   0.000000000
     0.0000000     2.0460831     0.0000000        0.000000000   3.070835784   0.000000000
     0.0000000     0.0000000     3.2669607        0.000000000   0.000000000   1.923250987

                       Lattice parameters(A)       Cell Angles
                    a =      3.522630          alpha =   90.000000
                    b =      2.046083          beta  =   90.000000
                    c =      3.266961          gamma =   90.000000

                Current cell volume =            23.546927 A**3

                           -------------------------------
                                     Cell Contents
                           -------------------------------

            xxxxxxxxxxxxxxxxxxxxxxxxxxxxxxxxxxxxxxxxxxxxxxxxxxxxxxxxxxxxxxxxx
            x  Element         Atom        Fractional coordinates of atoms  x
            x                 Number           u          v          w      x
            x---------------------------------------------------------------x
            x  H                 1         0.355919   0.141875   0.379411   x
            x  H                 2         0.477074   0.359922   0.499490   x
            x  H                 3         0.977074   0.640078   0.499490   x
            x  H                 4         0.855919   0.858125   0.379411   x
            x  H                 5         0.022926   0.359922  -0.000510   x
            x  H                 6         0.144081   0.141875   0.879411   x
            x  H                 7         0.522926   0.640078  -0.000510   x
            x  H                 8         0.644081   0.858125   0.879411   x
            xxxxxxxxxxxxxxxxxxxxxxxxxxxxxxxxxxxxxxxxxxxxxxxxxxxxxxxxxxxxxxxxx


------------------------------------------------------------------------ <-- SCF
SCF loop      Energy                           Energy gain       Timer   <-- SCF
                                               per atom          (sec)   <-- SCF
------------------------------------------------------------------------ <-- SCF
Initial  -1.23402612E+002                                         52.14  <-- SCF
      1  -1.23405939E+002                    4.15857268E-004      53.80  <-- SCF
      2  -1.23405948E+002                    1.10119251E-006      56.05  <-- SCF
      3  -1.23405741E+002                   -2.58401833E-005      58.23  <-- SCF
      4  -1.23405735E+002                   -7.23516776E-007      60.47  <-- SCF
      5  -1.23405735E+002                    3.17096599E-008      62.69  <-- SCF
      6  -1.23405735E+002                    3.35629780E-009      64.94  <-- SCF
      7  -1.23405735E+002                    1.24740010E-011      66.58  <-- SCF
      8  -1.23405735E+002                    1.53470393E-012      68.24  <-- SCF
      9  -1.23405735E+002                    7.25056975E-014      69.87  <-- SCF
------------------------------------------------------------------------ <-- SCF
 
Final energy =  -123.4057354066     eV
(energy not corrected for finite basis set)
 

 ******************************** Symmetrised Forces ********************************
 *                                                                                  *
 *                           Cartesian components (eV/A)                            *
 * -------------------------------------------------------------------------------- *
 *                         x                    y                    z              *
 *                                                                                  *
 * H               1     -0.09107             -0.09602             -0.08346         *
 * H               2      0.09115              0.09449              0.08346         *
 * H               3      0.09115             -0.09449              0.08346         *
 * H               4     -0.09107              0.09602             -0.08346         *
 * H               5     -0.09115              0.09449              0.08346         *
 * H               6      0.09107             -0.09602             -0.08346         *
 * H               7     -0.09115             -0.09449              0.08346         *
 * H               8      0.09107              0.09602             -0.08346         *
 *                                                                                  *
 ************************************************************************************

 *********** Symmetrised Stress Tensor ***********
 *                                               *
 *          Cartesian components (GPa)           *
 * --------------------------------------------- *
 *             x             y             z     *
 *                                               *
 *  x    -53.824842      0.000000      0.000000  *
 *  y      0.000000    -53.908138      0.000000  *
 *  z      0.000000      0.000000    -53.598386  *
 *                                               *
 *  Pressure:   53.7771                          *
 *                                               *
 *************************************************
  
 +------------+-------------+-------------+-----------------+ <-- min LBFGS
 |    Step    |   lambda    |   F.delta'  |    enthalpy     | <-- min LBFGS
 +------------+-------------+-------------+-----------------+ <-- min LBFGS
 |  previous  |    0.000000 |    0.095427 |     -114.563409 | <-- min LBFGS
 | trial step |    1.000000 |    0.058604 |     -114.587634 | <-- min LBFGS
 +------------+-------------+-------------+-----------------+ <-- min LBFGS
  

--------------------------------------------------------------------------------
 LBFGS: improving iteration         1 with line minimization (lambda=  2.591548)
--------------------------------------------------------------------------------

                           -------------------------------
                                      Unit Cell
                           -------------------------------
        Real Lattice(A)              Reciprocal Lattice(1/A)
     3.4850098     0.0000000     0.0000000        1.802917553   0.000000000   0.000000000
     0.0000000     2.0242317     0.0000000        0.000000000   3.103985169   0.000000000
     0.0000000     0.0000000     3.2320707        0.000000000   0.000000000   1.944012326

                       Lattice parameters(A)       Cell Angles
                    a =      3.485010          alpha =   90.000000
                    b =      2.024232          beta  =   90.000000
                    c =      3.232071          gamma =   90.000000

                Current cell volume =            22.800538 A**3

                           -------------------------------
                                     Cell Contents
                           -------------------------------

            xxxxxxxxxxxxxxxxxxxxxxxxxxxxxxxxxxxxxxxxxxxxxxxxxxxxxxxxxxxxxxxxx
            x  Element         Atom        Fractional coordinates of atoms  x
            x                 Number           u          v          w      x
            x---------------------------------------------------------------x
            x  H                 1         0.355919   0.141875   0.379411   x
            x  H                 2         0.477074   0.359922   0.499490   x
            x  H                 3         0.977074   0.640078   0.499490   x
            x  H                 4         0.855919   0.858125   0.379411   x
            x  H                 5         0.022926   0.359922  -0.000510   x
            x  H                 6         0.144081   0.141875   0.879411   x
            x  H                 7         0.522926   0.640078  -0.000510   x
            x  H                 8         0.644081   0.858125   0.879411   x
            xxxxxxxxxxxxxxxxxxxxxxxxxxxxxxxxxxxxxxxxxxxxxxxxxxxxxxxxxxxxxxxxx


------------------------------------------------------------------------ <-- SCF
SCF loop      Energy                           Energy gain       Timer   <-- SCF
                                               per atom          (sec)   <-- SCF
------------------------------------------------------------------------ <-- SCF
Initial  -1.23132373E+002                                         72.28  <-- SCF
      1  -1.23140970E+002                    1.07457290E-003      73.90  <-- SCF
      2  -1.23140992E+002                    2.79316644E-006      76.11  <-- SCF
      3  -1.23140465E+002                   -6.58826956E-005      78.62  <-- SCF
      4  -1.23140450E+002                   -1.85763992E-006      80.86  <-- SCF
      5  -1.23140451E+002                    7.59177371E-008      83.21  <-- SCF
      6  -1.23140451E+002                    7.91261323E-009      85.44  <-- SCF
      7  -1.23140451E+002                    2.82590956E-011      87.12  <-- SCF
      8  -1.23140451E+002                    2.86095398E-012      88.75  <-- SCF
      9  -1.23140451E+002                   -1.57095678E-013      90.38  <-- SCF
------------------------------------------------------------------------ <-- SCF
 
Final energy =  -123.1404507146     eV
(energy not corrected for finite basis set)
 

 ******************************** Symmetrised Forces ********************************
 *                                                                                  *
 *                           Cartesian components (eV/A)                            *
 * -------------------------------------------------------------------------------- *
 *                         x                    y                    z              *
 *                                                                                  *
 * H               1     -0.24160             -0.25477             -0.22139         *
 * H               2      0.24181              0.25065              0.22139         *
 * H               3      0.24181             -0.25065              0.22139         *
 * H               4     -0.24160              0.25477             -0.22139         *
 * H               5     -0.24181              0.25065              0.22139         *
 * H               6      0.24160             -0.25477             -0.22139         *
 * H               7     -0.24181             -0.25065              0.22139         *
 * H               8      0.24160              0.25477             -0.22139         *
 *                                                                                  *
 ************************************************************************************

 *********** Symmetrised Stress Tensor ***********
 *                                               *
 *          Cartesian components (GPa)           *
 * --------------------------------------------- *
 *             x             y             z     *
 *                                               *
 *  x    -60.364630      0.000000      0.000000  *
 *  y      0.000000    -60.589822      0.000000  *
 *  z      0.000000      0.000000    -59.745142  *
 *                                               *
 *  Pressure:   60.2332                          *
 *                                               *
 *************************************************
  
 +------------+-------------+-------------+-----------------+ <-- min LBFGS
 |    Step    |   lambda    |   F.delta'  |    enthalpy     | <-- min LBFGS
 +------------+-------------+-------------+-----------------+ <-- min LBFGS
 |  previous  |    0.000000 |    0.095427 |     -114.563409 | <-- min LBFGS
 | trial step |    1.000000 |    0.058604 |     -114.587634 | <-- min LBFGS
 |  line step |    2.591548 |   -0.002149 |     -114.601865 | <-- min LBFGS
 +------------+-------------+-------------+-----------------+ <-- min LBFGS
  
 LBFGS: finished iteration     1 with enthalpy= -1.14601865E+002 eV
  
 +-----------+-----------------+-----------------+------------+-----+ <-- LBFGS
 | Parameter |      value      |    tolerance    |    units   | OK? | <-- LBFGS
 +-----------+-----------------+-----------------+------------+-----+ <-- LBFGS
 |  dE/ion   |   4.807028E-003 |   1.000000E-009 |         eV | No  | <-- LBFGS
 |  |F|max   |   4.150789E-001 |   1.000000E-005 |       eV/A | No  | <-- LBFGS
 |  |dR|max  |   1.713908E-007 |   1.000000E-005 |          A | Yes | <-- LBFGS
 |   Smax    |   5.898220E-001 |   1.000000E-005 |        GPa | No  | <-- LBFGS
 +-----------+-----------------+-----------------+------------+-----+ <-- LBFGS
  

================================================================================
 Starting LBFGS iteration          2 ...
================================================================================
  
 +------------+-------------+-------------+-----------------+ <-- min LBFGS
 |    Step    |   lambda    |   F.delta'  |    enthalpy     | <-- min LBFGS
 +------------+-------------+-------------+-----------------+ <-- min LBFGS
 |  previous  |    0.000000 |    0.072670 |     -114.601865 | <-- min LBFGS
 +------------+-------------+-------------+-----------------+ <-- min LBFGS
  

--------------------------------------------------------------------------------
 LBFGS: starting iteration         2 with trial guess (lambda=  1.000000)
--------------------------------------------------------------------------------

                           -------------------------------
                                      Unit Cell
                           -------------------------------
        Real Lattice(A)              Reciprocal Lattice(1/A)
     3.3898114     0.0000000     0.0000000        1.853550096   0.000000000   0.000000000
     0.0000000     1.9692289     0.0000000        0.000000000   3.190683090   0.000000000
     0.0000000     0.0000000     3.1424989        0.000000000   0.000000000   1.999423241

                       Lattice parameters(A)       Cell Angles
                    a =      3.389811          alpha =   90.000000
                    b =      1.969229          beta  =   90.000000
                    c =      3.142499          gamma =   90.000000

                Current cell volume =            20.977169 A**3

                           -------------------------------
                                     Cell Contents
                           -------------------------------

            xxxxxxxxxxxxxxxxxxxxxxxxxxxxxxxxxxxxxxxxxxxxxxxxxxxxxxxxxxxxxxxxx
            x  Element         Atom        Fractional coordinates of atoms  x
            x                 Number           u          v          w      x
            x---------------------------------------------------------------x
            x  H                 1         0.349568   0.130344   0.373135   x
            x  H                 2         0.483431   0.371266   0.505765   x
            x  H                 3         0.983431   0.628734   0.505765   x
            x  H                 4         0.849568   0.869656   0.373135   x
            x  H                 5         0.016569   0.371266   0.005765   x
            x  H                 6         0.150432   0.130344   0.873135   x
            x  H                 7         0.516569   0.628734   0.005765   x
            x  H                 8         0.650432   0.869656   0.873135   x
            xxxxxxxxxxxxxxxxxxxxxxxxxxxxxxxxxxxxxxxxxxxxxxxxxxxxxxxxxxxxxxxxx


------------------------------------------------------------------------ <-- SCF
SCF loop      Energy                           Energy gain       Timer   <-- SCF
                                               per atom          (sec)   <-- SCF
------------------------------------------------------------------------ <-- SCF
Initial  -1.21107515E+002                                         92.81  <-- SCF
      1  -1.22393897E+002                    1.60797738E-001      94.41  <-- SCF
      2  -1.22398410E+002                    5.64185448E-004      96.70  <-- SCF
      3  -1.22306259E+002                   -1.15189380E-002      98.82  <-- SCF
      4  -1.22302670E+002                   -4.48632817E-004     100.96  <-- SCF
      5  -1.22302698E+002                    3.51552969E-006     103.09  <-- SCF
      6  -1.22302700E+002                    2.89874126E-007     105.26  <-- SCF
      7  -1.22302700E+002                    7.31446540E-010     107.38  <-- SCF
      8  -1.22302700E+002                    7.74662956E-011     109.15  <-- SCF
      9  -1.22302700E+002                    4.01500300E-012     110.82  <-- SCF
     10  -1.22302700E+002                    1.17821758E-013     112.44  <-- SCF
------------------------------------------------------------------------ <-- SCF
 
Final energy =  -122.3027002985     eV
(energy not corrected for finite basis set)
 

 ******************************** Symmetrised Forces ********************************
 *                                                                                  *
 *                           Cartesian components (eV/A)                            *
 * -------------------------------------------------------------------------------- *
 *                         x                    y                    z              *
 *                                                                                  *
 * H               1      0.71385              0.74168              0.66266         *
 * H               2     -0.70865             -0.75615             -0.66266         *
 * H               3     -0.70865              0.75615             -0.66266         *
 * H               4      0.71385             -0.74168              0.66266         *
 * H               5      0.70865             -0.75615             -0.66266         *
 * H               6     -0.71385              0.74168              0.66266         *
 * H               7      0.70865              0.75615             -0.66266         *
 * H               8     -0.71385             -0.74168              0.66266         *
 *                                                                                  *
 ************************************************************************************

 *********** Symmetrised Stress Tensor ***********
 *                                               *
 *          Cartesian components (GPa)           *
 * --------------------------------------------- *
 *             x             y             z     *
 *                                               *
 *  x    -63.402955      0.000000      0.000000  *
 *  y      0.000000    -62.424528      0.000000  *
 *  z      0.000000      0.000000    -62.761552  *
 *                                               *
 *  Pressure:   62.8630                          *
 *                                               *
 *************************************************
  
 +------------+-------------+-------------+-----------------+ <-- min LBFGS
 |    Step    |   lambda    |   F.delta'  |    enthalpy     | <-- min LBFGS
 +------------+-------------+-------------+-----------------+ <-- min LBFGS
 |  previous  |    0.000000 |    0.072670 |     -114.601865 | <-- min LBFGS
 | trial step |    1.000000 |   -0.232884 |     -114.446949 | <-- min LBFGS
 +------------+-------------+-------------+-----------------+ <-- min LBFGS
  

--------------------------------------------------------------------------------
 LBFGS: improving iteration         2 with line minimization (lambda=  0.237831)
--------------------------------------------------------------------------------

                           -------------------------------
                                      Unit Cell
                           -------------------------------
        Real Lattice(A)              Reciprocal Lattice(1/A)
     3.4623687     0.0000000     0.0000000        1.814707182   0.000000000   0.000000000
     0.0000000     2.0111504     0.0000000        0.000000000   3.124174806   0.000000000
     0.0000000     0.0000000     3.2107678        0.000000000   0.000000000   1.956910544

                       Lattice parameters(A)       Cell Angles
                    a =      3.462369          alpha =   90.000000
                    b =      2.011150          beta  =   90.000000
                    c =      3.210768          gamma =   90.000000

                Current cell volume =            22.357681 A**3

                           -------------------------------
                                     Cell Contents
                           -------------------------------

            xxxxxxxxxxxxxxxxxxxxxxxxxxxxxxxxxxxxxxxxxxxxxxxxxxxxxxxxxxxxxxxxx
            x  Element         Atom        Fractional coordinates of atoms  x
            x                 Number           u          v          w      x
            x---------------------------------------------------------------x
            x  H                 1         0.354409   0.139133   0.377918   x
            x  H                 2         0.478586   0.362620   0.500982   x
            x  H                 3         0.978586   0.637380   0.500982   x
            x  H                 4         0.854409   0.860867   0.377918   x
            x  H                 5         0.021414   0.362620   0.000982   x
            x  H                 6         0.145591   0.139133   0.877918   x
            x  H                 7         0.521414   0.637380   0.000982   x
            x  H                 8         0.645591   0.860867   0.877918   x
            xxxxxxxxxxxxxxxxxxxxxxxxxxxxxxxxxxxxxxxxxxxxxxxxxxxxxxxxxxxxxxxxx


------------------------------------------------------------------------ <-- SCF
SCF loop      Energy                           Energy gain       Timer   <-- SCF
                                               per atom          (sec)   <-- SCF
------------------------------------------------------------------------ <-- SCF
Initial  -1.22350537E+002                                        114.72  <-- SCF
      1  -1.23035262E+002                    8.55906252E-002     116.36  <-- SCF
      2  -1.23037721E+002                    3.07284886E-004     118.55  <-- SCF
      3  -1.22988294E+002                   -6.17834949E-003     120.75  <-- SCF
      4  -1.22986233E+002                   -2.57557197E-004     122.95  <-- SCF
      5  -1.22986259E+002                    3.25645601E-006     125.14  <-- SCF
      6  -1.22986262E+002                    3.19291872E-007     127.34  <-- SCF
      7  -1.22986262E+002                    1.91046773E-009     129.51  <-- SCF
      8  -1.22986262E+002                    8.15296358E-011     131.18  <-- SCF
      9  -1.22986262E+002                    4.74308105E-012     132.84  <-- SCF
     10  -1.22986262E+002                    1.32927112E-013     134.44  <-- SCF
------------------------------------------------------------------------ <-- SCF
 
Final energy =  -122.9862619454     eV
(energy not corrected for finite basis set)
 

 ******************************** Symmetrised Forces ********************************
 *                                                                                  *
 *                           Cartesian components (eV/A)                            *
 * -------------------------------------------------------------------------------- *
 *                         x                    y                    z              *
 *                                                                                  *
 * H               1      0.03370              0.03288              0.03287         *
 * H               2     -0.03291             -0.03844             -0.03287         *
 * H               3     -0.03291              0.03844             -0.03287         *
 * H               4      0.03370             -0.03288              0.03287         *
 * H               5      0.03291             -0.03844             -0.03287         *
 * H               6     -0.03370              0.03288              0.03287         *
 * H               7      0.03291              0.03844             -0.03287         *
 * H               8     -0.03370             -0.03288              0.03287         *
 *                                                                                  *
 ************************************************************************************

 *********** Symmetrised Stress Tensor ***********
 *                                               *
 *          Cartesian components (GPa)           *
 * --------------------------------------------- *
 *             x             y             z     *
 *                                               *
 *  x    -60.570851      0.000000      0.000000  *
 *  y      0.000000    -60.498589      0.000000  *
 *  z      0.000000      0.000000    -60.095419  *
 *                                               *
 *  Pressure:   60.3883                          *
 *                                               *
 *************************************************
  
 +------------+-------------+-------------+-----------------+ <-- min LBFGS
 |    Step    |   lambda    |   F.delta'  |    enthalpy     | <-- min LBFGS
 +------------+-------------+-------------+-----------------+ <-- min LBFGS
 |  previous  |    0.000000 |    0.072670 |     -114.601865 | <-- min LBFGS
 | trial step |    1.000000 |   -0.232884 |     -114.446949 | <-- min LBFGS
 |  line step |    0.237831 |   -0.013121 |     -114.613522 | <-- min LBFGS
 +------------+-------------+-------------+-----------------+ <-- min LBFGS
  
 LBFGS: finished iteration     2 with enthalpy= -1.14613522E+002 eV
  
 +-----------+-----------------+-----------------+------------+-----+ <-- LBFGS
 | Parameter |      value      |    tolerance    |    units   | OK? | <-- LBFGS
 +-----------+-----------------+-----------------+------------+-----+ <-- LBFGS
 |  dE/ion   |   1.457124E-003 |   1.000000E-009 |         eV | No  | <-- LBFGS
 |  |F|max   |   6.034462E-002 |   1.000000E-005 |       eV/A | No  | <-- LBFGS
 |  |dR|max  |   8.985305E-003 |   1.000000E-005 |          A | No  | <-- LBFGS
 |   Smax    |   5.708508E-001 |   1.000000E-005 |        GPa | No  | <-- LBFGS
 +-----------+-----------------+-----------------+------------+-----+ <-- LBFGS
  

================================================================================
 Starting LBFGS iteration          3 ...
================================================================================
  
 +------------+-------------+-------------+-----------------+ <-- min LBFGS
 |    Step    |   lambda    |   F.delta'  |    enthalpy     | <-- min LBFGS
 +------------+-------------+-------------+-----------------+ <-- min LBFGS
 |  previous  |    0.000000 |    0.010887 |     -114.613522 | <-- min LBFGS
 +------------+-------------+-------------+-----------------+ <-- min LBFGS
  

--------------------------------------------------------------------------------
 LBFGS: starting iteration         3 with trial guess (lambda=  1.000000)
--------------------------------------------------------------------------------

                           -------------------------------
                                      Unit Cell
                           -------------------------------
        Real Lattice(A)              Reciprocal Lattice(1/A)
     3.4682609     0.0000000     0.0000000        1.811624172   0.000000000   0.000000000
     0.0000000     2.0145178     0.0000000        0.000000000   3.118952452   0.000000000
     0.0000000     0.0000000     3.2152802        0.000000000   0.000000000   1.954164133

                       Lattice parameters(A)       Cell Angles
                    a =      3.468261          alpha =   90.000000
                    b =      2.014518          beta  =   90.000000
                    c =      3.215280          gamma =   90.000000

                Current cell volume =            22.464756 A**3

                           -------------------------------
                                     Cell Contents
                           -------------------------------

            xxxxxxxxxxxxxxxxxxxxxxxxxxxxxxxxxxxxxxxxxxxxxxxxxxxxxxxxxxxxxxxxx
            x  Element         Atom        Fractional coordinates of atoms  x
            x                 Number           u          v          w      x
            x---------------------------------------------------------------x
            x  H                 1         0.354624   0.139420   0.378179   x
            x  H                 2         0.478389   0.362100   0.500721   x
            x  H                 3         0.978389   0.637900   0.500721   x
            x  H                 4         0.854624   0.860580   0.378179   x
            x  H                 5         0.021611   0.362100   0.000721   x
            x  H                 6         0.145376   0.139420   0.878179   x
            x  H                 7         0.521611   0.637900   0.000721   x
            x  H                 8         0.645376   0.860580   0.878179   x
            xxxxxxxxxxxxxxxxxxxxxxxxxxxxxxxxxxxxxxxxxxxxxxxxxxxxxxxxxxxxxxxxx


------------------------------------------------------------------------ <-- SCF
SCF loop      Energy                           Energy gain       Timer   <-- SCF
                                               per atom          (sec)   <-- SCF
------------------------------------------------------------------------ <-- SCF
Initial  -1.23025002E+002                                        136.79  <-- SCF
      1  -1.23026999E+002                    2.49681619E-004     138.42  <-- SCF
      2  -1.23027005E+002                    8.05930431E-007     140.63  <-- SCF
      3  -1.23026846E+002                   -1.99496308E-005     142.82  <-- SCF
      4  -1.23026840E+002                   -7.72685116E-007     145.02  <-- SCF
      5  -1.23026840E+002                    9.20987913E-009     147.25  <-- SCF
      6  -1.23026840E+002                    8.84584615E-010     149.48  <-- SCF
      7  -1.23026840E+002                    2.89116469E-012     151.11  <-- SCF
      8  -1.23026840E+002                    2.41685658E-014     152.74  <-- SCF
------------------------------------------------------------------------ <-- SCF
 
Final energy =  -123.0268397996     eV
(energy not corrected for finite basis set)
 

 ******************************** Symmetrised Forces ********************************
 *                                                                                  *
 *                           Cartesian components (eV/A)                            *
 * -------------------------------------------------------------------------------- *
 *                         x                    y                    z              *
 *                                                                                  *
 * H               1      0.00200              0.00071              0.00352         *
 * H               2     -0.00153             -0.00433             -0.00352         *
 * H               3     -0.00153              0.00433             -0.00352         *
 * H               4      0.00200             -0.00071              0.00352         *
 * H               5      0.00153             -0.00433             -0.00352         *
 * H               6     -0.00200              0.00071              0.00352         *
 * H               7      0.00153              0.00433             -0.00352         *
 * H               8     -0.00200             -0.00071              0.00352         *
 *                                                                                  *
 ************************************************************************************

 *********** Symmetrised Stress Tensor ***********
 *                                               *
 *          Cartesian components (GPa)           *
 * --------------------------------------------- *
 *             x             y             z     *
 *                                               *
 *  x    -60.104866      0.000000      0.000000  *
 *  y      0.000000    -60.079396      0.000000  *
 *  z      0.000000      0.000000    -59.709328  *
 *                                               *
 *  Pressure:   59.9645                          *
 *                                               *
 *************************************************
  
 +------------+-------------+-------------+-----------------+ <-- min LBFGS
 |    Step    |   lambda    |   F.delta'  |    enthalpy     | <-- min LBFGS
 +------------+-------------+-------------+-----------------+ <-- min LBFGS
 |  previous  |    0.000000 |    0.010887 |     -114.613522 | <-- min LBFGS
 | trial step |    1.000000 |    0.000474 |     -114.614001 | <-- min LBFGS
 +------------+-------------+-------------+-----------------+ <-- min LBFGS
  
 LBFGS: finished iteration     3 with enthalpy= -1.14614001E+002 eV
  
 +-----------+-----------------+-----------------+------------+-----+ <-- LBFGS
 | Parameter |      value      |    tolerance    |    units   | OK? | <-- LBFGS
 +-----------+-----------------+-----------------+------------+-----+ <-- LBFGS
 |  dE/ion   |   5.988821E-005 |   1.000000E-009 |         eV | No  | <-- LBFGS
 |  |F|max   |   5.786783E-003 |   1.000000E-005 |       eV/A | No  | <-- LBFGS
 |  |dR|max  |   1.506929E-003 |   1.000000E-005 |          A | No  | <-- LBFGS
 |   Smax    |   2.906723E-001 |   1.000000E-005 |        GPa | No  | <-- LBFGS
 +-----------+-----------------+-----------------+------------+-----+ <-- LBFGS
  

================================================================================
 Starting LBFGS iteration          4 ...
================================================================================
  
 +------------+-------------+-------------+-----------------+ <-- min LBFGS
 |    Step    |   lambda    |   F.delta'  |    enthalpy     | <-- min LBFGS
 +------------+-------------+-------------+-----------------+ <-- min LBFGS
 |  previous  |    0.000000 |    0.001701 |     -114.614001 | <-- min LBFGS
 +------------+-------------+-------------+-----------------+ <-- min LBFGS
  

--------------------------------------------------------------------------------
 LBFGS: starting iteration         4 with trial guess (lambda=  1.000000)
--------------------------------------------------------------------------------

                           -------------------------------
                                      Unit Cell
                           -------------------------------
        Real Lattice(A)              Reciprocal Lattice(1/A)
     3.4686091     0.0000000     0.0000000        1.811442338   0.000000000   0.000000000
     0.0000000     2.0146874     0.0000000        0.000000000   3.118689940   0.000000000
     0.0000000     0.0000000     3.2147156        0.000000000   0.000000000   1.954507365

                       Lattice parameters(A)       Cell Angles
                    a =      3.468609          alpha =   90.000000
                    b =      2.014687          beta  =   90.000000
                    c =      3.214716          gamma =   90.000000

                Current cell volume =            22.464956 A**3

                           -------------------------------
                                     Cell Contents
                           -------------------------------

            xxxxxxxxxxxxxxxxxxxxxxxxxxxxxxxxxxxxxxxxxxxxxxxxxxxxxxxxxxxxxxxxx
            x  Element         Atom        Fractional coordinates of atoms  x
            x                 Number           u          v          w      x
            x---------------------------------------------------------------x
            x  H                 1         0.354621   0.139346   0.378228   x
            x  H                 2         0.478405   0.361995   0.500672   x
            x  H                 3         0.978405   0.638005   0.500672   x
            x  H                 4         0.854621   0.860654   0.378228   x
            x  H                 5         0.021595   0.361995   0.000672   x
            x  H                 6         0.145379   0.139346   0.878228   x
            x  H                 7         0.521595   0.638005   0.000672   x
            x  H                 8         0.645379   0.860654   0.878228   x
            xxxxxxxxxxxxxxxxxxxxxxxxxxxxxxxxxxxxxxxxxxxxxxxxxxxxxxxxxxxxxxxxx


------------------------------------------------------------------------ <-- SCF
SCF loop      Energy                           Energy gain       Timer   <-- SCF
                                               per atom          (sec)   <-- SCF
------------------------------------------------------------------------ <-- SCF
Initial  -1.23026900E+002                                        155.22  <-- SCF
      1  -1.23026930E+002                    3.76625777E-006     156.86  <-- SCF
      2  -1.23026930E+002                    1.01697609E-008     159.08  <-- SCF
      3  -1.23026929E+002                   -1.45397316E-007     161.38  <-- SCF
      4  -1.23026929E+002                   -4.31554214E-009     163.58  <-- SCF
      5  -1.23026929E+002                    7.64361105E-011     165.20  <-- SCF
      6  -1.23026929E+002                    8.55265124E-012     166.86  <-- SCF
      7  -1.23026929E+002                    2.02411739E-013     168.56  <-- SCF
------------------------------------------------------------------------ <-- SCF
 
Final energy =  -123.0269286464     eV
(energy not corrected for finite basis set)
 

 ******************************** Symmetrised Forces ********************************
 *                                                                                  *
 *                           Cartesian components (eV/A)                            *
 * -------------------------------------------------------------------------------- *
 *                         x                    y                    z              *
 *                                                                                  *
 * H               1     -0.00116             -0.00198              0.00058         *
 * H               2      0.00148             -0.00051             -0.00058         *
 * H               3      0.00148              0.00051             -0.00058         *
 * H               4     -0.00116              0.00198              0.00058         *
 * H               5     -0.00148             -0.00051             -0.00058         *
 * H               6      0.00116             -0.00198              0.00058         *
 * H               7     -0.00148              0.00051             -0.00058         *
 * H               8      0.00116              0.00198              0.00058         *
 *                                                                                  *
 ************************************************************************************

 *********** Symmetrised Stress Tensor ***********
 *                                               *
 *          Cartesian components (GPa)           *
 * --------------------------------------------- *
 *             x             y             z     *
 *                                               *
 *  x    -60.112116      0.000000      0.000000  *
 *  y      0.000000    -60.097309      0.000000  *
 *  z      0.000000      0.000000    -59.777830  *
 *                                               *
 *  Pressure:   59.9958                          *
 *                                               *
 *************************************************
  
 +------------+-------------+-------------+-----------------+ <-- min LBFGS
 |    Step    |   lambda    |   F.delta'  |    enthalpy     | <-- min LBFGS
 +------------+-------------+-------------+-----------------+ <-- min LBFGS
 |  previous  |    0.000000 |    0.001701 |     -114.614001 | <-- min LBFGS
 | trial step |    1.000000 |    0.001106 |     -114.614015 | <-- min LBFGS
 +------------+-------------+-------------+-----------------+ <-- min LBFGS
  

--------------------------------------------------------------------------------
 LBFGS: improving iteration         4 with line minimization (lambda=  2.860289)
--------------------------------------------------------------------------------

                           -------------------------------
                                      Unit Cell
                           -------------------------------
        Real Lattice(A)              Reciprocal Lattice(1/A)
     3.4692567     0.0000000     0.0000000        1.811104173   0.000000000   0.000000000
     0.0000000     2.0150028     0.0000000        0.000000000   3.118201708   0.000000000
     0.0000000     0.0000000     3.2136652        0.000000000   0.000000000   1.955146196

                       Lattice parameters(A)       Cell Angles
                    a =      3.469257          alpha =   90.000000
                    b =      2.015003          beta  =   90.000000
                    c =      3.213665          gamma =   90.000000

                Current cell volume =            22.465326 A**3

                           -------------------------------
                                     Cell Contents
                           -------------------------------

            xxxxxxxxxxxxxxxxxxxxxxxxxxxxxxxxxxxxxxxxxxxxxxxxxxxxxxxxxxxxxxxxx
            x  Element         Atom        Fractional coordinates of atoms  x
            x                 Number           u          v          w      x
            x---------------------------------------------------------------x
            x  H                 1         0.354616   0.139210   0.378318   x
            x  H                 2         0.478435   0.361800   0.500582   x
            x  H                 3         0.978435   0.638200   0.500582   x
            x  H                 4         0.854616   0.860790   0.378318   x
            x  H                 5         0.021565   0.361800   0.000582   x
            x  H                 6         0.145384   0.139210   0.878318   x
            x  H                 7         0.521565   0.638200   0.000582   x
            x  H                 8         0.645384   0.860790   0.878318   x
            xxxxxxxxxxxxxxxxxxxxxxxxxxxxxxxxxxxxxxxxxxxxxxxxxxxxxxxxxxxxxxxxx


------------------------------------------------------------------------ <-- SCF
SCF loop      Energy                           Energy gain       Timer   <-- SCF
                                               per atom          (sec)   <-- SCF
------------------------------------------------------------------------ <-- SCF
Initial  -1.23026977E+002                                        170.86  <-- SCF
      1  -1.23027081E+002                    1.29619981E-005     172.51  <-- SCF
      2  -1.23027081E+002                    3.51254697E-008     174.74  <-- SCF
      3  -1.23027077E+002                   -5.03875880E-007     176.95  <-- SCF
      4  -1.23027077E+002                   -1.49412914E-008     179.12  <-- SCF
      5  -1.23027077E+002                    2.67866257E-010     181.25  <-- SCF
      6  -1.23027077E+002                    2.77364504E-011     182.89  <-- SCF
      7  -1.23027077E+002                    4.25970973E-013     184.52  <-- SCF
      8  -1.23027077E+002                   -1.51053536E-013     186.15  <-- SCF
------------------------------------------------------------------------ <-- SCF
 
Final energy =  -123.0270773079     eV
(energy not corrected for finite basis set)
 

 ******************************** Symmetrised Forces ********************************
 *                                                                                  *
 *                           Cartesian components (eV/A)                            *
 * -------------------------------------------------------------------------------- *
 *                         x                    y                    z              *
 *                                                                                  *
 * H               1     -0.00705             -0.00698             -0.00486         *
 * H               2      0.00708              0.00659              0.00486         *
 * H               3      0.00708             -0.00659              0.00486         *
 * H               4     -0.00705              0.00698             -0.00486         *
 * H               5     -0.00708              0.00659              0.00486         *
 * H               6      0.00705             -0.00698             -0.00486         *
 * H               7     -0.00708             -0.00659              0.00486         *
 * H               8      0.00705              0.00698             -0.00486         *
 *                                                                                  *
 ************************************************************************************

 *********** Symmetrised Stress Tensor ***********
 *                                               *
 *          Cartesian components (GPa)           *
 * --------------------------------------------- *
 *             x             y             z     *
 *                                               *
 *  x    -60.125853      0.000000      0.000000  *
 *  y      0.000000    -60.130707      0.000000  *
 *  z      0.000000      0.000000    -59.904934  *
 *                                               *
 *  Pressure:   60.0538                          *
 *                                               *
 *************************************************
  
 +------------+-------------+-------------+-----------------+ <-- min LBFGS
 |    Step    |   lambda    |   F.delta'  |    enthalpy     | <-- min LBFGS
 +------------+-------------+-------------+-----------------+ <-- min LBFGS
 |  previous  |    0.000000 |    0.001701 |     -114.614001 | <-- min LBFGS
 | trial step |    1.000000 |    0.001106 |     -114.614015 | <-- min LBFGS
 |  line step |    2.860289 |  3.661E-006 |     -114.614025 | <-- min LBFGS
 +------------+-------------+-------------+-----------------+ <-- min LBFGS
  
 LBFGS: finished iteration     4 with enthalpy= -1.14614025E+002 eV
  
 +-----------+-----------------+-----------------+------------+-----+ <-- LBFGS
 | Parameter |      value      |    tolerance    |    units   | OK? | <-- LBFGS
 +-----------+-----------------+-----------------+------------+-----+ <-- LBFGS
 |  dE/ion   |   2.987291E-006 |   1.000000E-009 |         eV | No  | <-- LBFGS
 |  |F|max   |   1.104641E-002 |   1.000000E-005 |       eV/A | No  | <-- LBFGS
 |  |dR|max  |   7.673849E-004 |   1.000000E-005 |          A | No  | <-- LBFGS
 |   Smax    |   1.307067E-001 |   1.000000E-005 |        GPa | No  | <-- LBFGS
 +-----------+-----------------+-----------------+------------+-----+ <-- LBFGS
  

================================================================================
 Starting LBFGS iteration          5 ...
================================================================================
  
 +------------+-------------+-------------+-----------------+ <-- min LBFGS
 |    Step    |   lambda    |   F.delta'  |    enthalpy     | <-- min LBFGS
 +------------+-------------+-------------+-----------------+ <-- min LBFGS
 |  previous  |    0.000000 |    0.001325 |     -114.614025 | <-- min LBFGS
 +------------+-------------+-------------+-----------------+ <-- min LBFGS
  

--------------------------------------------------------------------------------
 LBFGS: starting iteration         5 with trial guess (lambda=  1.000000)
--------------------------------------------------------------------------------

                           -------------------------------
                                      Unit Cell
                           -------------------------------
        Real Lattice(A)              Reciprocal Lattice(1/A)
     3.4696851     0.0000000     0.0000000        1.810880546   0.000000000   0.000000000
     0.0000000     2.0152187     0.0000000        0.000000000   3.117867727   0.000000000
     0.0000000     0.0000000     3.2127410        0.000000000   0.000000000   1.955708637

                       Lattice parameters(A)       Cell Angles
                    a =      3.469685          alpha =   90.000000
                    b =      2.015219          beta  =   90.000000
                    c =      3.212741          gamma =   90.000000

                Current cell volume =            22.464045 A**3

                           -------------------------------
                                     Cell Contents
                           -------------------------------

            xxxxxxxxxxxxxxxxxxxxxxxxxxxxxxxxxxxxxxxxxxxxxxxxxxxxxxxxxxxxxxxxx
            x  Element         Atom        Fractional coordinates of atoms  x
            x                 Number           u          v          w      x
            x---------------------------------------------------------------x
            x  H                 1         0.354567   0.139073   0.378367   x
            x  H                 2         0.478498   0.361744   0.500533   x
            x  H                 3         0.978498   0.638256   0.500533   x
            x  H                 4         0.854567   0.860927   0.378367   x
            x  H                 5         0.021502   0.361744   0.000533   x
            x  H                 6         0.145433   0.139073   0.878367   x
            x  H                 7         0.521502   0.638256   0.000533   x
            x  H                 8         0.645433   0.860927   0.878367   x
            xxxxxxxxxxxxxxxxxxxxxxxxxxxxxxxxxxxxxxxxxxxxxxxxxxxxxxxxxxxxxxxxx


------------------------------------------------------------------------ <-- SCF
SCF loop      Energy                           Energy gain       Timer   <-- SCF
                                               per atom          (sec)   <-- SCF
------------------------------------------------------------------------ <-- SCF
Initial  -1.23026564E+002                                        188.49  <-- SCF
      1  -1.23026612E+002                    5.99980885E-006     190.10  <-- SCF
      2  -1.23026612E+002                    1.71321628E-008     192.33  <-- SCF
      3  -1.23026611E+002                   -1.35089289E-007     194.64  <-- SCF
      4  -1.23026611E+002                   -1.62321526E-009     196.87  <-- SCF
      5  -1.23026611E+002                    1.34038866E-010     198.55  <-- SCF
      6  -1.23026611E+002                    1.32866691E-011     200.22  <-- SCF
      7  -1.23026611E+002                    4.10865619E-013     201.84  <-- SCF
      8  -1.23026611E+002                   -1.63137819E-013     203.51  <-- SCF
------------------------------------------------------------------------ <-- SCF
 
Final energy =  -123.0266110204     eV
(energy not corrected for finite basis set)
 

 ******************************** Symmetrised Forces ********************************
 *                                                                                  *
 *                           Cartesian components (eV/A)                            *
 * -------------------------------------------------------------------------------- *
 *                         x                    y                    z              *
 *                                                                                  *
 * H               1     -0.00404             -0.00322             -0.00221         *
 * H               2      0.00394              0.00402              0.00221         *
 * H               3      0.00394             -0.00402              0.00221         *
 * H               4     -0.00404              0.00322             -0.00221         *
 * H               5     -0.00394              0.00402              0.00221         *
 * H               6      0.00404             -0.00322             -0.00221         *
 * H               7     -0.00394             -0.00402              0.00221         *
 * H               8      0.00404              0.00322             -0.00221         *
 *                                                                                  *
 ************************************************************************************

 *********** Symmetrised Stress Tensor ***********
 *                                               *
 *          Cartesian components (GPa)           *
 * --------------------------------------------- *
 *             x             y             z     *
 *                                               *
 *  x    -60.064484      0.000000      0.000000  *
 *  y      0.000000    -60.074524      0.000000  *
 *  z      0.000000      0.000000    -59.941685  *
 *                                               *
 *  Pressure:   60.0269                          *
 *                                               *
 *************************************************
  
 +------------+-------------+-------------+-----------------+ <-- min LBFGS
 |    Step    |   lambda    |   F.delta'  |    enthalpy     | <-- min LBFGS
 +------------+-------------+-------------+-----------------+ <-- min LBFGS
 |  previous  |    0.000000 |    0.001325 |     -114.614025 | <-- min LBFGS
 | trial step |    1.000000 |    0.000734 |     -114.614038 | <-- min LBFGS
 +------------+-------------+-------------+-----------------+ <-- min LBFGS
  

--------------------------------------------------------------------------------
 LBFGS: improving iteration         5 with line minimization (lambda=  2.242363)
--------------------------------------------------------------------------------

                           -------------------------------
                                      Unit Cell
                           -------------------------------
        Real Lattice(A)              Reciprocal Lattice(1/A)
     3.4702174     0.0000000     0.0000000        1.810602796   0.000000000   0.000000000
     0.0000000     2.0154868     0.0000000        0.000000000   3.117452900   0.000000000
     0.0000000     0.0000000     3.2115928        0.000000000   0.000000000   1.956407845

                       Lattice parameters(A)       Cell Angles
                    a =      3.470217          alpha =   90.000000
                    b =      2.015487          beta  =   90.000000
                    c =      3.211593          gamma =   90.000000

                Current cell volume =            22.462450 A**3

                           -------------------------------
                                     Cell Contents
                           -------------------------------

            xxxxxxxxxxxxxxxxxxxxxxxxxxxxxxxxxxxxxxxxxxxxxxxxxxxxxxxxxxxxxxxxx
            x  Element         Atom        Fractional coordinates of atoms  x
            x                 Number           u          v          w      x
            x---------------------------------------------------------------x
            x  H                 1         0.354506   0.138902   0.378428   x
[...]
            x  H                 7         0.521102   0.638160   0.000096   x
            x  H                 8         0.645771   0.860973   0.878804   x
            xxxxxxxxxxxxxxxxxxxxxxxxxxxxxxxxxxxxxxxxxxxxxxxxxxxxxxxxxxxxxxxxx


------------------------------------------------------------------------ <-- SCF
SCF loop      Energy                           Energy gain       Timer   <-- SCF
                                               per atom          (sec)   <-- SCF
------------------------------------------------------------------------ <-- SCF
Initial  -1.23025831E+002                                        447.96  <-- SCF
      1  -1.23025831E+002                    7.73877478E-011     449.59  <-- SCF
      2  -1.23025831E+002                    7.55267682E-014     451.21  <-- SCF
      3  -1.23025831E+002                    1.60720963E-012     452.83  <-- SCF
      4  -1.23025831E+002                    0.00000000E+000     454.47  <-- SCF
------------------------------------------------------------------------ <-- SCF
 
Final energy =  -123.0258310132     eV
(energy not corrected for finite basis set)
 

 ******************************** Symmetrised Forces ********************************
 *                                                                                  *
 *                           Cartesian components (eV/A)                            *
 * -------------------------------------------------------------------------------- *
 *                         x                    y                    z              *
 *                                                                                  *
 * H               1     -0.00000             -0.00000              0.00000         *
 * H               2     -0.00000              0.00000             -0.00000         *
 * H               3     -0.00000             -0.00000             -0.00000         *
 * H               4     -0.00000              0.00000              0.00000         *
 * H               5      0.00000              0.00000             -0.00000         *
 * H               6      0.00000             -0.00000              0.00000         *
 * H               7      0.00000             -0.00000             -0.00000         *
 * H               8      0.00000              0.00000              0.00000         *
 *                                                                                  *
 ************************************************************************************

 *********** Symmetrised Stress Tensor ***********
 *                                               *
 *          Cartesian components (GPa)           *
 * --------------------------------------------- *
 *             x             y             z     *
 *                                               *
 *  x    -60.000004      0.000000      0.000000  *
 *  y      0.000000    -60.000014      0.000000  *
 *  z      0.000000      0.000000    -60.000001  *
 *                                               *
 *  Pressure:   60.0000                          *
 *                                               *
 *************************************************
  
 +------------+-------------+-------------+-----------------+ <-- min LBFGS
 |    Step    |   lambda    |   F.delta'  |    enthalpy     | <-- min LBFGS
 +------------+-------------+-------------+-----------------+ <-- min LBFGS
 |  previous  |    0.000000 |  6.312E-007 |     -114.614052 | <-- min LBFGS
 | trial step |    1.000000 |  2.166E-007 |     -114.614052 | <-- min LBFGS
 |  line step |    1.522388 | -7.445E-008 |     -114.614052 | <-- min LBFGS
 +------------+-------------+-------------+-----------------+ <-- min LBFGS
  
 LBFGS: finished iteration    15 with enthalpy= -1.14614052E+002 eV
  
 +-----------+-----------------+-----------------+------------+-----+ <-- LBFGS
 | Parameter |      value      |    tolerance    |    units   | OK? | <-- LBFGS
 +-----------+-----------------+-----------------+------------+-----+ <-- LBFGS
 |  dE/ion   |   2.301663E-010 |   1.000000E-009 |         eV | Yes | <-- LBFGS
 |  |F|max   |   4.394820E-007 |   1.000000E-005 |       eV/A | Yes | <-- LBFGS
 |  |dR|max  |   4.078589E-006 |   1.000000E-005 |          A | Yes | <-- LBFGS
 |   Smax    |   1.373535E-005 |   1.000000E-005 |        GPa | No  | <-- LBFGS
 +-----------+-----------------+-----------------+------------+-----+ <-- LBFGS
  

================================================================================
 Starting LBFGS iteration         16 ...
================================================================================
  
 +------------+-------------+-------------+-----------------+ <-- min LBFGS
 |    Step    |   lambda    |   F.delta'  |    enthalpy     | <-- min LBFGS
 +------------+-------------+-------------+-----------------+ <-- min LBFGS
 |  previous  |    0.000000 |  1.173E-007 |     -114.614052 | <-- min LBFGS
 +------------+-------------+-------------+-----------------+ <-- min LBFGS
  

--------------------------------------------------------------------------------
 LBFGS: starting iteration        16 with trial guess (lambda=  1.000000)
--------------------------------------------------------------------------------

                           -------------------------------
                                      Unit Cell
                           -------------------------------
        Real Lattice(A)              Reciprocal Lattice(1/A)
     3.4699477     0.0000000     0.0000000        1.810743526   0.000000000   0.000000000
     0.0000000     2.0156268     0.0000000        0.000000000   3.117236387   0.000000000
     0.0000000     0.0000000     3.2115447        0.000000000   0.000000000   1.956437161

                       Lattice parameters(A)       Cell Angles
                    a =      3.469948          alpha =   90.000000
                    b =      2.015627          beta  =   90.000000
                    c =      3.211545          gamma =   90.000000

                Current cell volume =            22.461928 A**3

                           -------------------------------
                                     Cell Contents
                           -------------------------------

            xxxxxxxxxxxxxxxxxxxxxxxxxxxxxxxxxxxxxxxxxxxxxxxxxxxxxxxxxxxxxxxxx
            x  Element         Atom        Fractional coordinates of atoms  x
            x                 Number           u          v          w      x
            x---------------------------------------------------------------x
            x  H                 1         0.354229   0.139027   0.378804   x
            x  H                 2         0.478898   0.361840   0.500096   x
            x  H                 3         0.978898   0.638160   0.500096   x
            x  H                 4         0.854229   0.860973   0.378804   x
            x  H                 5         0.021102   0.361840   0.000096   x
            x  H                 6         0.145771   0.139027   0.878804   x
            x  H                 7         0.521102   0.638160   0.000096   x
            x  H                 8         0.645771   0.860973   0.878804   x
            xxxxxxxxxxxxxxxxxxxxxxxxxxxxxxxxxxxxxxxxxxxxxxxxxxxxxxxxxxxxxxxxx


------------------------------------------------------------------------ <-- SCF
SCF loop      Energy                           Energy gain       Timer   <-- SCF
                                               per atom          (sec)   <-- SCF
------------------------------------------------------------------------ <-- SCF
Initial  -1.23025831E+002                                        456.79  <-- SCF
      1  -1.23025831E+002                    1.21779361E-011     457.84  <-- SCF
      2  -1.23025831E+002                    2.47727800E-013     459.47  <-- SCF
      3  -1.23025831E+002                    2.41685658E-013     461.10  <-- SCF
      4  -1.23025831E+002                   -1.20842829E-014     462.80  <-- SCF
------------------------------------------------------------------------ <-- SCF
 
Final energy =  -123.0258313024     eV
(energy not corrected for finite basis set)
 

 ******************************** Symmetrised Forces ********************************
 *                                                                                  *
 *                           Cartesian components (eV/A)                            *
 * -------------------------------------------------------------------------------- *
 *                         x                    y                    z              *
 *                                                                                  *
 * H               1      0.00000             -0.00000              0.00000         *
 * H               2      0.00000              0.00000             -0.00000         *
 * H               3      0.00000             -0.00000             -0.00000         *
 * H               4      0.00000              0.00000              0.00000         *
 * H               5     -0.00000              0.00000             -0.00000         *
 * H               6     -0.00000             -0.00000              0.00000         *
 * H               7     -0.00000             -0.00000             -0.00000         *
 * H               8     -0.00000              0.00000              0.00000         *
 *                                                                                  *
 ************************************************************************************

 *********** Symmetrised Stress Tensor ***********
 *                                               *
 *          Cartesian components (GPa)           *
 * --------------------------------------------- *
 *             x             y             z     *
 *                                               *
 *  x    -60.000001      0.000000      0.000000  *
 *  y      0.000000    -60.000001      0.000000  *
 *  z      0.000000      0.000000    -59.999998  *
 *                                               *
 *  Pressure:   60.0000                          *
 *                                               *
 *************************************************
  
 +------------+-------------+-------------+-----------------+ <-- min LBFGS
 |    Step    |   lambda    |   F.delta'  |    enthalpy     | <-- min LBFGS
 +------------+-------------+-------------+-----------------+ <-- min LBFGS
 |  previous  |    0.000000 |  1.173E-007 |     -114.614052 | <-- min LBFGS
 | trial step |    1.000000 |  4.167E-008 |     -114.614052 | <-- min LBFGS
 +------------+-------------+-------------+-----------------+ <-- min LBFGS
  
 LBFGS: finished iteration    16 with enthalpy= -1.14614052E+002 eV
  
 +-----------+-----------------+-----------------+------------+-----+ <-- LBFGS
 | Parameter |      value      |    tolerance    |    units   | OK? | <-- LBFGS
 +-----------+-----------------+-----------------+------------+-----+ <-- LBFGS
 |  dE/ion   |   4.229499E-014 |   1.000000E-009 |         eV | Yes | <-- LBFGS
 |  |F|max   |   2.163146E-007 |   1.000000E-005 |       eV/A | Yes | <-- LBFGS
 |  |dR|max  |   5.672809E-007 |   1.000000E-005 |          A | Yes | <-- LBFGS
 |   Smax    |   1.544724E-006 |   1.000000E-005 |        GPa | Yes | <-- LBFGS
 +-----------+-----------------+-----------------+------------+-----+ <-- LBFGS
  
 LBFGS: Geometry optimization completed successfully.

================================================================================
 LBFGS: Final Configuration:
================================================================================

                           -------------------------------
                                      Unit Cell
                           -------------------------------
        Real Lattice(A)              Reciprocal Lattice(1/A)
     3.4699477     0.0000000     0.0000000        1.810743526   0.000000000   0.000000000
     0.0000000     2.0156268     0.0000000        0.000000000   3.117236387   0.000000000
     0.0000000     0.0000000     3.2115447        0.000000000   0.000000000   1.956437161

                       Lattice parameters(A)       Cell Angles
                    a =      3.469948          alpha =   90.000000
                    b =      2.015627          beta  =   90.000000
                    c =      3.211545          gamma =   90.000000

                Current cell volume =            22.461928 A**3

                           -------------------------------
                                     Cell Contents
                           -------------------------------

            xxxxxxxxxxxxxxxxxxxxxxxxxxxxxxxxxxxxxxxxxxxxxxxxxxxxxxxxxxxxxxxxx
            x  Element         Atom        Fractional coordinates of atoms  x
            x                 Number           u          v          w      x
            x---------------------------------------------------------------x
            x  H                 1         0.354229   0.139027   0.378804   x
            x  H                 2         0.478898   0.361840   0.500096   x
            x  H                 3         0.978898   0.638160   0.500096   x
            x  H                 4         0.854229   0.860973   0.378804   x
            x  H                 5         0.021102   0.361840   0.000096   x
            x  H                 6         0.145771   0.139027   0.878804   x
            x  H                 7         0.521102   0.638160   0.000096   x
            x  H                 8         0.645771   0.860973   0.878804   x
            xxxxxxxxxxxxxxxxxxxxxxxxxxxxxxxxxxxxxxxxxxxxxxxxxxxxxxxxxxxxxxxxx


 LBFGS: Final Enthalpy     = -1.14614052E+002 eV
 LBFGS: Final <frequency>  =    1297.79846 cm-1
 LBFGS: Final bulk modulus =     159.39549 GPa

 ******************************** Symmetrised Forces ********************************
 *                                                                                  *
 *                           Cartesian components (eV/A)                            *
 * -------------------------------------------------------------------------------- *
 *                         x                    y                    z              *
 *                                                                                  *
 * H               1      0.00000             -0.00000              0.00000         *
 * H               2      0.00000              0.00000             -0.00000         *
 * H               3      0.00000             -0.00000             -0.00000         *
 * H               4      0.00000              0.00000              0.00000         *
 * H               5     -0.00000              0.00000             -0.00000         *
 * H               6     -0.00000             -0.00000              0.00000         *
 * H               7     -0.00000             -0.00000             -0.00000         *
 * H               8     -0.00000              0.00000              0.00000         *
 *                                                                                  *
 ************************************************************************************

 *********** Symmetrised Stress Tensor ***********
 *                                               *
 *          Cartesian components (GPa)           *
 * --------------------------------------------- *
 *             x             y             z     *
 *                                               *
 *  x    -60.000001      0.000000      0.000000  *
 *  y      0.000000    -60.000001      0.000000  *
 *  z      0.000000      0.000000    -59.999998  *
 *                                               *
 *  Pressure:   60.0000                          *
 *                                               *
 *************************************************

 Pseudo atomic calculation performed for H 1s1

 Converged in 24 iterations to a total energy of -12.4855 eV

Charge spilling parameter for spin component 1 = 0.61%

            Orbital Populations       
     Ion    Atom   Orbital             Charge
  -------------------------------------------
      H     1      S                    0.998
      H     2      S                    1.001
      H     3      S                    0.999
      H     4      S                    1.000
      H     5      S                    0.999
      H     6      S                    1.002
      H     7      S                    1.003
      H     8      S                    0.998
  -------------------------------------------
                           Total:       8.000
  -------------------------------------------

     Atomic Populations (Mulliken)
     -----------------------------
Species          Ion     s      p      d      f     Total  Charge (e)
=====================================================================
  H               1     1.00   0.00   0.00   0.00   1.00     0.00
  H               2     1.00   0.00   0.00   0.00   1.00    -0.00
  H               3     1.00   0.00   0.00   0.00   1.00    -0.00
  H               4     1.00   0.00   0.00   0.00   1.00     0.00
  H               5     1.00   0.00   0.00   0.00   1.00    -0.00
  H               6     1.00   0.00   0.00   0.00   1.00     0.00
  H               7     1.00   0.00   0.00   0.00   1.00    -0.00
  H               8     1.00   0.00   0.00   0.00   1.00     0.00
=====================================================================

                 Bond                   Population      Length (A)
======================================================================
               H 5 -- H 6                    1.35        0.73524
               H 7 -- H 8                    1.35        0.73524
               H 1 -- H 2                    1.35        0.73524
               H 3 -- H 4                    1.35        0.73524
               H 1 -- H 7                   -0.25        1.68128
               H 4 -- H 5                   -0.25        1.68128
               H 3 -- H 6                   -0.25        1.68128
               H 2 -- H 8                   -0.25        1.68128
               H 1 -- H 3                   -0.22        1.69118
               H 5 -- H 8                   -0.22        1.69118
               H 6 -- H 7                   -0.22        1.69118
               H 2 -- H 4                   -0.22        1.69118
               H 3 -- H 5                   -0.22        1.70592
               H 2 -- H 7                   -0.22        1.70592
               H 1 -- H 5                   -0.11        1.73698
               H 4 -- H 7                   -0.11        1.73698
               H 3 -- H 8                   -0.11        1.73698
               H 2 -- H 6                   -0.11        1.73698
               H 4 -- H 8                   -0.07        1.76117
               H 1 -- H 6                   -0.07        1.76117
               H 2 -- H 3                   -0.22        1.82218
               H 5 -- H 7                   -0.22        1.82218
               H 6 -- H 8                   -0.30        1.82325
               H 1 -- H 4                   -0.30        1.82325
               H 4 -- H 6                   -0.28        1.97890
               H 1 -- H 8                   -0.28        1.97890
======================================================================


Writing analysis data to Pca21.castep_bin

Writing model to Pca21.check
 
 A BibTeX formatted list of references used in this run has been written to 
 Pca21.bib
 
Initialisation time =      3.40 s
Calculation time    =    462.79 s
Finalisation time   =      2.32 s
Total time          =    468.51 s
Peak Memory Use     = 551676 kB
  
Overall parallel efficiency rating: Very good (89%)                             
  
Data was distributed by:-
k-point (32-way); efficiency rating: Excellent (90%)                            
  
Parallel notes:
1) Calculation only took 466.2 s, so efficiency estimates may be inaccurate.    
