 +-------------------------------------------------+
 |                                                 |
 |      CCC   AA    SSS  TTTTT  EEEEE  PPPP        |
 |     C     A  A  S       T    E      P   P       |
 |     C     AAAA   SS     T    EEE    PPPP        |
 |     C     A  A     S    T    E      P           |
 |      CCC  A  A  SSS     T    EEEEE  P           |
 |                                                 |
 +-------------------------------------------------+
 |                                                 |
 | Welcome to Academic Release CASTEP version 18.1 |          
 | Ab Initio Total Energy Program                  |
 |                                                 |
 | Authors:                                        |
 | M. Segall, M. Probert, C. Pickard, P. Hasnip,   |
 | S. Clark, K. Refson, J. R. Yates, M. Payne      |
 |                                                 |
 | Contributors:                                   |
 | P. Lindan, P. Haynes, J. White, V. Milman,      |
 | N. Govind, M. Gibson, P. Tulip, V. Cocula,      |
 | B. Montanari, D. Quigley, M. Glover,            |
 | L. Bernasconi, A. Perlov, M. Plummer,           |
 | E. McNellis, J. Meyer, J. Gale, D. Jochym       |
 | J. Aarons, B. Walker, R. Gillen, D. Jones       |
 | T. Green, I. J. Bush, C. J. Armstrong,          |
 | E. J. Higgins, E. L. Brown, M. S. McFly,        |
 | J. Wilkins, B-C. Shih, P. J. P. Byrne           |
 |                                                 |
 | Copyright (c) 2000 - 2017                       |
 |                                                 |
 |     Distributed under the terms of an           |
 |     Agreement between the United Kingdom        |
 |     Car-Parrinello (UKCP) Consortium,           |
 |     Daresbury Laboratory and Accelrys, Inc.     |
 |                                                 |
 | Please cite                                     |
 |                                                 |
 |     "First principles methods using CASTEP"     |
 |                                                 |
 |         Zeitschrift fuer Kristallographie       |
 |           220(5-6) pp. 567-570 (2005)           |
 |                                                 |
 | S. J. Clark, M. D. Segall, C. J. Pickard,       |
 | P. J. Hasnip, M. J. Probert, K. Refson,         |
 | M. C. Payne                                     |
 |                                                 |
 |       in all publications arising from          |
 |              your use of CASTEP                 |
 |                                                 |
 +-------------------------------------------------+


 Compiled for linux_x86_64_gfortran4.8 on Thu, 19 Jul 2018 15:42:32 +0100
 from code version 70483bd0ad64+  Sun, 10 Dec 2017 12:18:29 +0000
 Compiler: GNU Fortran 4.8.5; Optimisation: fast
 MATHLIBS: Intel MKL(2018.0.0) (LAPACK version 3.7.0)
 FFT Lib : mkl
 Fundamental constants values: CODATA 2014

 Run started: Sun, 30 Aug 2020 23:32:02 +0100

 Atomic calculation performed for H: 1s1

 Converged in 41 iterations to an ae energy of -12.488 eV

   ============================================================                
   | Pseudopotential Report - Date of generation 30-08-2020   |                
   ------------------------------------------------------------                
   | Element: H Ionic charge:  1.00 Level of theory: PBE      |                
   | Atomic Solver: Koelling-Harmon                           |                
   |                                                          |                
   |               Reference Electronic Structure             |                
   |         Orbital         Occupation         Energy        |                
   |            1s              1.000           -0.239        |                
   |                                                          |                
   |                 Pseudopotential Definition               |                
   |        Beta     l      e      Rc     scheme   norm       |                
   |         loc     0   -0.239   0.702     qc      1         |                
   |                                                          |                
   | No charge augmentation                                   |                
   | No partial core correction                               |                
   ------------------------------------------------------------                
   | "0|0.7|2|6|8|10L(qc=10)"                                 |                
   ------------------------------------------------------------                
   |      Author: Chris J. Pickard, Cambridge University      |                
   ============================================================                

 Pseudo atomic calculation performed for H 1s1

 Converged in 24 iterations to a total energy of -12.4855 eV

 Calculation parallelised over 32 processes.
 Data is distributed by k-point(32-way)

 ************************************ Title ************************************
 

 ***************************** General Parameters ******************************
  
 output verbosity                               : normal  (1)
 write checkpoint data to                       : Pca21.check
 type of calculation                            : geometry optimization
 stress calculation                             : on
 density difference calculation                 : off
 electron localisation func (ELF) calculation   : off
 Hirshfeld analysis                             : off
 unlimited duration calculation
 timing information                             : on
 memory usage estimate                          : on
 write extra output files                       : on
 write final potential to formatted file        : off
 write final density to formatted file          : off
 write structure in CELL formatted file         : on
 write BibTeX reference list                    : on
 write OTFG pseudopotential files               : on
 write electrostatic potential file             : on
 write bands file                               : on
 checkpoint writing                             : both castep_bin and check files
  
 output         length unit                     : A
 output           mass unit                     : amu
 output           time unit                     : ps
 output         charge unit                     : e
 output           spin unit                     : hbar/2
 output         energy unit                     : eV
 output          force unit                     : eV/A
 output       velocity unit                     : A/ps
 output       pressure unit                     : GPa
 output     inv_length unit                     : 1/A
 output      frequency unit                     : cm-1
 output force constant unit                     : eV/A**2
 output         volume unit                     : A**3
 output   IR intensity unit                     : (D/A)**2/amu
 output         dipole unit                     : D
 output         efield unit                     : eV/A/e
 output        entropy unit                     : J/mol/K
  
 wavefunctions paging                           : none
 random number generator seed                   : randomised (233202342)
 data distribution                              : optimal for this architecture
 optimization strategy                          : maximize speed(+++)

 *********************** Exchange-Correlation Parameters ***********************
  
 using functional                               : Perdew Burke Ernzerhof
 relativistic treatment                         : Koelling-Harmon
 DFT+D: Semi-empirical dispersion correction    : off

 ************************* Pseudopotential Parameters **************************
  
 pseudopotential representation                 : reciprocal space
 <beta|phi> representation                      : reciprocal space
 spin-orbit coupling                            : off

 **************************** Basis Set Parameters *****************************
  
 plane wave basis set cut-off                   :  1600.0000   eV
 size of standard grid                          :     2.0000
 size of   fine   gmax                          :    40.9853   1/A
 finite basis set correction                    : automatic
 number of sample energies                      :          3
           sample  spacing                      :     5.0000   eV

 **************************** Electronic Parameters ****************************
  
 number of  electrons                           :  8.000    
 net charge of system                           :  0.000    
 treating system as non-spin-polarized
 number of bands                                :          4

 ********************* Electronic Minimization Parameters **********************
  
 Method: Treating system as non-metallic,
         and number of  SD  steps               :          1
         and number of  CG  steps               :          4
  
 total energy / atom convergence tol.           : 0.1000E-10   eV
 eigen-energy convergence tolerance             : 0.2000E-10   eV
 max force / atom convergence tol.              : ignored
 convergence tolerance window                   :          3   cycles
 max. number of SCF cycles                      :        200
 periodic dipole correction                     : NONE

 ************************** Density Mixing Parameters **************************
  
 density-mixing scheme                          : Broyden
 max. length of mixing history                  :         20
 charge density mixing amplitude                : 0.8000    
 cut-off energy for mixing                      :  1600.       eV

 *********************** Population Analysis Parameters ************************
  
 Population analysis with cutoff                :  3.000       A
 Population analysis output                     : summary and pdos components

 ********************** Geometry Optimization Parameters ***********************
  
 optimization method                            : LBFGS
 max. no. of LBFGS updates                      : unbounded
 variable cell method                           : fixed basis quality
 max. number of steps                           :        200
 estimated bulk modulus                         :  500.0       GPa
 estimated <frequency>                          :  1668.       cm-1
 geom line minimiser                            : on
 with line minimiser tolerance                  :     0.4000
 total energy convergence tolerance             : 0.1000E-08   eV/atom
        max ionic |force| tolerance             : 0.1000E-04   eV/A
 max ionic |displacement| tolerance             : 0.1000E-04   A
   max |stress component| tolerance             : 0.1000E-04   GPa
 convergence tolerance window                   :          2   steps
 backup results every                           : 2147483647   steps
 write geom trajectory file                     : on

 *******************************************************************************
  

                           -------------------------------
                                      Unit Cell
                           -------------------------------
        Real Lattice(A)                      Reciprocal Lattice(1/A)
     3.2196924     0.0000000     0.0000000        1.951486220   0.000000000   0.000000000
     0.0000000     1.8711647     0.0000000        0.000000000   3.357900702   0.000000000
     0.0000000     0.0000000     2.9571999        0.000000000   0.000000000   2.124707683

                       Lattice parameters(A)       Cell Angles
                    a =      3.219692          alpha =   90.000000
                    b =      1.871165          beta  =   90.000000
                    c =      2.957200          gamma =   90.000000

                       Current cell volume =            17.815872       A**3
                                   density =             0.452603   AMU/A**3
                                           =             0.751565     g/cm^3

                           -------------------------------
                                     Cell Contents
                           -------------------------------
                         Total number of ions in cell =    8
                      Total number of species in cell =    1
                        Max number of any one species =    8

            xxxxxxxxxxxxxxxxxxxxxxxxxxxxxxxxxxxxxxxxxxxxxxxxxxxxxxxxxxxx
            x  Element    Atom        Fractional coordinates of atoms  x
            x            Number           u          v          w      x
            x----------------------------------------------------------x
            x  H            1         0.347561   0.127936   0.377841   x 
            x  H            2         0.486361   0.368349   0.501059   x 
            x  H            3         0.986361   0.631651   0.501059   x 
            x  H            4         0.847561   0.872064   0.377841   x 
            x  H            5         0.013639   0.368349   0.001059   x 
            x  H            6         0.152439   0.127936   0.877841   x 
            x  H            7         0.513639   0.631651   0.001059   x 
            x  H            8         0.652439   0.872064   0.877841   x 
            xxxxxxxxxxxxxxxxxxxxxxxxxxxxxxxxxxxxxxxxxxxxxxxxxxxxxxxxxxxx


                         No user defined ionic velocities

                           -------------------------------
                                   Details of Species
                           -------------------------------

                               Mass of species in AMU
                                    H    1.0078250

                          Electric Quadrupole Moment (Barn)
                                    H    0.0028600 Isotope  2

                          Files used for pseudopotentials:
                                    H 0|0.7|2|6|8|10L(qc=10)

                           -------------------------------
                              k-Points For BZ Sampling
                           -------------------------------
                       MP grid size for SCF calculation is 15 15 15
                            with an offset of   0.000  0.000  0.000
                       Number of kpoints used =           512

                           -------------------------------
                               Symmetry and Constraints
                           -------------------------------

                      Maximum deviation from symmetry = 0.590967E-14     ANG

                      Number of symmetry operations   =           4
                      Number of ionic constraints     =           3
                      Point group of crystal =     6: C2v, mm2, 2 mm
                      Space group of crystal =    29: Pca2_1, P 2c -2ac

             Set iprint > 1 for details on symmetry rotations/translations

                         Centre of mass is constrained
             Set iprint > 1 for details of linear ionic constraints

                         Number of cell constraints= 3
                         Cell constraints are:  1 2 3 0 0 0

                         External pressure/stress (GPa)
                        120.00000   0.00000   0.00000
                                  120.00000   0.00000
                                            120.00000
  
+---------------- MEMORY AND SCRATCH DISK ESTIMATES PER PROCESS --------------+
|                                                     Memory          Disk    |
| Baseline code, static data and system overhead      476.0 MB         0.0 MB |
| BLAS internal memory storage                          0.0 MB         0.0 MB |
| Model and support data                               23.6 MB         0.0 MB |
| Electronic energy minimisation requirements          15.0 MB         0.0 MB |
| Force calculation requirements                        5.1 MB         0.0 MB |
| Stress calculation requirements                       6.5 MB         0.0 MB |
|                                               ----------------------------- |
| Approx. total storage required per process          514.6 MB         0.0 MB |
|                                                                             |
| Requirements will fluctuate during execution and may exceed these estimates |
+-----------------------------------------------------------------------------+
Calculating finite basis set correction with  3 cut-off energies.
Calculating total energy with cut-off of 1590.000 eV.
------------------------------------------------------------------------ <-- SCF
SCF loop      Energy                           Energy gain       Timer   <-- SCF
                                               per atom          (sec)   <-- SCF
------------------------------------------------------------------------ <-- SCF
Initial   1.96296806E+002                                          3.80  <-- SCF
      1  -1.01053361E+002                    3.71687708E+001       5.31  <-- SCF
      2  -1.21160161E+002                    2.51335007E+000       6.43  <-- SCF
      3  -1.20676604E+002                   -6.04446896E-002       8.13  <-- SCF
      4  -1.20654610E+002                   -2.74913777E-003       9.84  <-- SCF
      5  -1.20655092E+002                    6.01896991E-005      11.52  <-- SCF
      6  -1.20655134E+002                    5.29356814E-006      13.19  <-- SCF
      7  -1.20655134E+002                    7.55605740E-009      14.86  <-- SCF
      8  -1.20655134E+002                    6.53128302E-010      16.52  <-- SCF
      9  -1.20655134E+002                    9.50126744E-012      17.76  <-- SCF
     10  -1.20655134E+002                    3.02107073E-013      19.01  <-- SCF
------------------------------------------------------------------------ <-- SCF
 
Final energy =  -120.6551343841     eV
(energy not corrected for finite basis set)
 
Calculating total energy with cut-off of 1595.000 eV.
------------------------------------------------------------------------ <-- SCF
SCF loop      Energy                           Energy gain       Timer   <-- SCF
                                               per atom          (sec)   <-- SCF
------------------------------------------------------------------------ <-- SCF
Initial  -1.20655134E+002                                         19.93  <-- SCF
      1  -1.20655150E+002                    1.96345750E-006      21.20  <-- SCF
      2  -1.20655150E+002                    1.77941066E-012      22.42  <-- SCF
      3  -1.20655150E+002                    5.57224412E-010      23.66  <-- SCF
      4  -1.20655150E+002                    3.15852945E-011      24.91  <-- SCF
      5  -1.20655150E+002                    1.99390668E-013      26.14  <-- SCF
      6  -1.20655150E+002                    3.02107073E-014      27.38  <-- SCF
------------------------------------------------------------------------ <-- SCF
 
Final energy =  -120.6551500965     eV
(energy not corrected for finite basis set)
 
Calculating total energy with cut-off of 1600.000 eV.
------------------------------------------------------------------------ <-- SCF
SCF loop      Energy                           Energy gain       Timer   <-- SCF
                                               per atom          (sec)   <-- SCF
------------------------------------------------------------------------ <-- SCF
Initial  -1.20655150E+002                                         28.28  <-- SCF
      1  -1.20655165E+002                    1.85406361E-006      29.50  <-- SCF
      2  -1.20655165E+002                    1.87306385E-012      30.76  <-- SCF
      3  -1.20655165E+002                    5.18735971E-010      32.03  <-- SCF
      4  -1.20655165E+002                    2.89478997E-011      33.29  <-- SCF
      5  -1.20655165E+002                    3.08149214E-013      34.54  <-- SCF
      6  -1.20655165E+002                    6.04214146E-014      35.77  <-- SCF
------------------------------------------------------------------------ <-- SCF
 
Final energy =  -120.6551649334     eV
(energy not corrected for finite basis set)
 
 For future reference: finite basis dEtot/dlog(Ecut) =      -0.004869eV
 Total energy corrected for finite basis set =    -120.655165 eV
 
+---------------- MEMORY AND SCRATCH DISK ESTIMATES PER PROCESS --------------+
|                                                     Memory          Disk    |
| Model and support data                               32.6 MB         0.0 MB |
| Electronic energy minimisation requirements          15.0 MB         0.0 MB |
| Geometry minimisation requirements                   19.0 MB         0.0 MB |
|                                               ----------------------------- |
| Approx. total storage required per process           66.6 MB         0.0 MB |
|                                                                             |
| Requirements will fluctuate during execution and may exceed these estimates |
+-----------------------------------------------------------------------------+
 

 ******************************** Symmetrised Forces ********************************
 *                                                                                  *
 *                           Cartesian components (eV/A)                            *
 * -------------------------------------------------------------------------------- *
 *                         x                    y                    z              *
 *                                                                                  *
 * H               1      0.00000             -0.00000              0.00000         *
 * H               2      0.00000              0.00000             -0.00000         *
 * H               3      0.00000             -0.00000             -0.00000         *
 * H               4      0.00000              0.00000              0.00000         *
 * H               5     -0.00000              0.00000             -0.00000         *
 * H               6     -0.00000             -0.00000              0.00000         *
 * H               7     -0.00000             -0.00000             -0.00000         *
 * H               8     -0.00000              0.00000              0.00000         *
 *                                                                                  *
 ************************************************************************************

 *********** Symmetrised Stress Tensor ***********
 *                                               *
 *          Cartesian components (GPa)           *
 * --------------------------------------------- *
 *             x             y             z     *
 *                                               *
 *  x   -110.000577      0.000000      0.000000  *
 *  y      0.000000   -110.000582      0.000000  *
 *  z      0.000000      0.000000   -110.000578  *
 *                                               *
 *  Pressure:  110.0006                          *
 *                                               *
 *************************************************
 LBFGS: finished iteration     0 with enthalpy= -1.07311414E+002 eV
  
 +-----------+-----------------+-----------------+------------+-----+ <-- LBFGS
 | Parameter |      value      |    tolerance    |    units   | OK? | <-- LBFGS
 +-----------+-----------------+-----------------+------------+-----+ <-- LBFGS
 |  dE/ion   |   0.000000E+000 |   1.000000E-009 |         eV | No  | <-- LBFGS
 |  |F|max   |   5.314345E-007 |   1.000000E-005 |       eV/A | Yes | <-- LBFGS
 |  |dR|max  |   0.000000E+000 |   1.000000E-005 |          A | No  | <-- LBFGS
 |   Smax    |   9.999423E+000 |   1.000000E-005 |        GPa | No  | <-- LBFGS
 +-----------+-----------------+-----------------+------------+-----+ <-- LBFGS
  

================================================================================
 Starting LBFGS iteration          1 ...
================================================================================
  
 +------------+-------------+-------------+-----------------+ <-- min LBFGS
 |    Step    |   lambda    |   F.delta'  |    enthalpy     | <-- min LBFGS
 +------------+-------------+-------------+-----------------+ <-- min LBFGS
 |  previous  |    0.000000 |    0.070775 |     -107.311414 | <-- min LBFGS
 +------------+-------------+-------------+-----------------+ <-- min LBFGS
  

--------------------------------------------------------------------------------
 LBFGS: starting iteration         1 with trial guess (lambda=  1.000000)
--------------------------------------------------------------------------------

                           -------------------------------
                                      Unit Cell
                           -------------------------------
        Real Lattice(A)              Reciprocal Lattice(1/A)
     3.1982290     0.0000000     0.0000000        1.964582681   0.000000000   0.000000000
     0.0000000     1.8586910     0.0000000        0.000000000   3.380435627   0.000000000
     0.0000000     0.0000000     2.9374864        0.000000000   0.000000000   2.138966636

                       Lattice parameters(A)       Cell Angles
                    a =      3.198229          alpha =   90.000000
                    b =      1.858691          beta  =   90.000000
                    c =      2.937486          gamma =   90.000000

                Current cell volume =            17.461945 A**3

                           -------------------------------
                                     Cell Contents
                           -------------------------------

            xxxxxxxxxxxxxxxxxxxxxxxxxxxxxxxxxxxxxxxxxxxxxxxxxxxxxxxxxxxxxxxxx
            x  Element         Atom        Fractional coordinates of atoms  x
            x                 Number           u          v          w      x
            x---------------------------------------------------------------x
            x  H                 1         0.347561   0.127936   0.377841   x
            x  H                 2         0.486361   0.368349   0.501059   x
            x  H                 3         0.986361   0.631651   0.501059   x
            x  H                 4         0.847561   0.872064   0.377841   x
            x  H                 5         0.013639   0.368349   0.001059   x
            x  H                 6         0.152439   0.127936   0.877841   x
            x  H                 7         0.513639   0.631651   0.001059   x
            x  H                 8         0.652439   0.872064   0.877841   x
            xxxxxxxxxxxxxxxxxxxxxxxxxxxxxxxxxxxxxxxxxxxxxxxxxxxxxxxxxxxxxxxxx


------------------------------------------------------------------------ <-- SCF
SCF loop      Energy                           Energy gain       Timer   <-- SCF
                                               per atom          (sec)   <-- SCF
------------------------------------------------------------------------ <-- SCF
Initial  -1.20401718E+002                                         37.72  <-- SCF
      1  -1.20404642E+002                    3.65506849E-004      38.92  <-- SCF
      2  -1.20404650E+002                    1.05873057E-006      40.58  <-- SCF
      3  -1.20404540E+002                   -1.37739252E-005      42.25  <-- SCF
      4  -1.20404537E+002                   -4.23265619E-007      43.91  <-- SCF
      5  -1.20404537E+002                    1.17959338E-008      45.58  <-- SCF
      6  -1.20404537E+002                    1.07414774E-009      47.24  <-- SCF
      7  -1.20404537E+002                    2.94856503E-012      48.50  <-- SCF
      8  -1.20404537E+002                    3.44402063E-013      49.76  <-- SCF
------------------------------------------------------------------------ <-- SCF
 
Final energy =  -120.4045369376     eV
(energy not corrected for finite basis set)
 

 ******************************** Symmetrised Forces ********************************
 *                                                                                  *
 *                           Cartesian components (eV/A)                            *
 * -------------------------------------------------------------------------------- *
 *                         x                    y                    z              *
 *                                                                                  *
 * H               1     -0.09040             -0.09241             -0.07333         *
 * H               2      0.09056              0.09000              0.07333         *
 * H               3      0.09056             -0.09000              0.07333         *
 * H               4     -0.09040              0.09241             -0.07333         *
 * H               5     -0.09056              0.09000              0.07333         *
 * H               6      0.09040             -0.09241             -0.07333         *
 * H               7     -0.09056             -0.09000              0.07333         *
 * H               8      0.09040              0.09241             -0.07333         *
 *                                                                                  *
 ************************************************************************************

 *********** Symmetrised Stress Tensor ***********
 *                                               *
 *          Cartesian components (GPa)           *
 * --------------------------------------------- *
 *             x             y             z     *
 *                                               *
 *  x   -117.206999      0.000000      0.000000  *
 *  y      0.000000   -117.193879      0.000000  *
 *  z      0.000000      0.000000   -116.574131  *
 *                                               *
 *  Pressure:  116.9917                          *
 *                                               *
 *************************************************
  
 +------------+-------------+-------------+-----------------+ <-- min LBFGS
 |    Step    |   lambda    |   F.delta'  |    enthalpy     | <-- min LBFGS
 +------------+-------------+-------------+-----------------+ <-- min LBFGS
 |  previous  |    0.000000 |    0.070775 |     -107.311414 | <-- min LBFGS
 | trial step |    1.000000 |    0.021010 |     -107.325870 | <-- min LBFGS
 +------------+-------------+-------------+-----------------+ <-- min LBFGS
  

--------------------------------------------------------------------------------
 LBFGS: improving iteration         1 with line minimization (lambda=  1.422177)
--------------------------------------------------------------------------------

                           -------------------------------
                                      Unit Cell
                           -------------------------------
        Real Lattice(A)              Reciprocal Lattice(1/A)
     3.1891676     0.0000000     0.0000000        1.970164632   0.000000000   0.000000000
     0.0000000     1.8534249     0.0000000        0.000000000   3.390040423   0.000000000
     0.0000000     0.0000000     2.9291638        0.000000000   0.000000000   2.145044062

                       Lattice parameters(A)       Cell Angles
                    a =      3.189168          alpha =   90.000000
                    b =      1.853425          beta  =   90.000000
                    c =      2.929164          gamma =   90.000000

                Current cell volume =            17.313943 A**3

                           -------------------------------
                                     Cell Contents
                           -------------------------------

            xxxxxxxxxxxxxxxxxxxxxxxxxxxxxxxxxxxxxxxxxxxxxxxxxxxxxxxxxxxxxxxxx
            x  Element         Atom        Fractional coordinates of atoms  x
            x                 Number           u          v          w      x
            x---------------------------------------------------------------x
            x  H                 1         0.347561   0.127936   0.377841   x
            x  H                 2         0.486361   0.368349   0.501059   x
            x  H                 3         0.986361   0.631651   0.501059   x
            x  H                 4         0.847561   0.872064   0.377841   x
            x  H                 5         0.013639   0.368349   0.001059   x
            x  H                 6         0.152439   0.127936   0.877841   x
            x  H                 7         0.513639   0.631651   0.001059   x
            x  H                 8         0.652439   0.872064   0.877841   x
            xxxxxxxxxxxxxxxxxxxxxxxxxxxxxxxxxxxxxxxxxxxxxxxxxxxxxxxxxxxxxxxxx


------------------------------------------------------------------------ <-- SCF
SCF loop      Energy                           Energy gain       Timer   <-- SCF
                                               per atom          (sec)   <-- SCF
------------------------------------------------------------------------ <-- SCF
Initial  -1.20294554E+002                                         51.52  <-- SCF
      1  -1.20295077E+002                    6.54097429E-005      53.20  <-- SCF
      2  -1.20295078E+002                    1.88762605E-007      54.85  <-- SCF
      3  -1.20295059E+002                   -2.44805556E-006      56.51  <-- SCF
      4  -1.20295058E+002                   -7.58030754E-008      58.30  <-- SCF
      5  -1.20295058E+002                    2.07196813E-009      59.96  <-- SCF
      6  -1.20295058E+002                    1.87756525E-010      61.26  <-- SCF
      7  -1.20295058E+002                    1.06039583E-012      62.49  <-- SCF
      8  -1.20295058E+002                   -1.23863900E-013      63.78  <-- SCF
------------------------------------------------------------------------ <-- SCF
 
Final energy =  -120.2950582463     eV
(energy not corrected for finite basis set)
 

 ******************************** Symmetrised Forces ********************************
 *                                                                                  *
 *                           Cartesian components (eV/A)                            *
 * -------------------------------------------------------------------------------- *
 *                         x                    y                    z              *
 *                                                                                  *
 * H               1     -0.12934             -0.13222             -0.10491         *
 * H               2      0.12957              0.12877              0.10491         *
 * H               3      0.12957             -0.12877              0.10491         *
 * H               4     -0.12934              0.13222             -0.10491         *
 * H               5     -0.12957              0.12877              0.10491         *
 * H               6      0.12934             -0.13222             -0.10491         *
 * H               7     -0.12957             -0.12877              0.10491         *
 * H               8      0.12934              0.13222             -0.10491         *
 *                                                                                  *
 ************************************************************************************

 *********** Symmetrised Stress Tensor ***********
 *                                               *
 *          Cartesian components (GPa)           *
 * --------------------------------------------- *
 *             x             y             z     *
 *                                               *
 *  x   -120.366814      0.000000      0.000000  *
 *  y      0.000000   -120.347710      0.000000  *
 *  z      0.000000      0.000000   -119.455033  *
 *                                               *
 *  Pressure:  120.0565                          *
 *                                               *
 *************************************************
  
 +------------+-------------+-------------+-----------------+ <-- min LBFGS
 |    Step    |   lambda    |   F.delta'  |    enthalpy     | <-- min LBFGS
 +------------+-------------+-------------+-----------------+ <-- min LBFGS
 |  previous  |    0.000000 |    0.070775 |     -107.311414 | <-- min LBFGS
 | trial step |    1.000000 |    0.021010 |     -107.325870 | <-- min LBFGS
 |  line step |    1.422177 |   -0.000392 |     -107.327242 | <-- min LBFGS
 +------------+-------------+-------------+-----------------+ <-- min LBFGS
  
 LBFGS: finished iteration     1 with enthalpy= -1.07327242E+002 eV
  
 +-----------+-----------------+-----------------+------------+-----+ <-- LBFGS
 | Parameter |      value      |    tolerance    |    units   | OK? | <-- LBFGS
 +-----------+-----------------+-----------------+------------+-----+ <-- LBFGS
 |  dE/ion   |   1.978538E-003 |   1.000000E-009 |         eV | No  | <-- LBFGS
 |  |F|max   |   2.126411E-001 |   1.000000E-005 |       eV/A | No  | <-- LBFGS
 |  |dR|max  |   7.261777E-008 |   1.000000E-005 |          A | Yes | <-- LBFGS
 |   Smax    |   5.449675E-001 |   1.000000E-005 |        GPa | No  | <-- LBFGS
 +-----------+-----------------+-----------------+------------+-----+ <-- LBFGS
  

================================================================================
 Starting LBFGS iteration          2 ...
================================================================================
  
 +------------+-------------+-------------+-----------------+ <-- min LBFGS
 |    Step    |   lambda    |   F.delta'  |    enthalpy     | <-- min LBFGS
 +------------+-------------+-------------+-----------------+ <-- min LBFGS
 |  previous  |    0.000000 |    0.042079 |     -107.327242 | <-- min LBFGS
 +------------+-------------+-------------+-----------------+ <-- min LBFGS
  

--------------------------------------------------------------------------------
 LBFGS: starting iteration         2 with trial guess (lambda=  1.000000)
--------------------------------------------------------------------------------

                           -------------------------------
                                      Unit Cell
                           -------------------------------
        Real Lattice(A)              Reciprocal Lattice(1/A)
     3.1573916     0.0000000     0.0000000        1.989992412   0.000000000   0.000000000
     0.0000000     1.8349346     0.0000000        0.000000000   3.424201236   0.000000000
     0.0000000     0.0000000     2.8982244        0.000000000   0.000000000   2.167942995

                       Lattice parameters(A)       Cell Angles
                    a =      3.157392          alpha =   90.000000
                    b =      1.834935          beta  =   90.000000
                    c =      2.898224          gamma =   90.000000

                Current cell volume =            16.791173 A**3

                           -------------------------------
                                     Cell Contents
                           -------------------------------

            xxxxxxxxxxxxxxxxxxxxxxxxxxxxxxxxxxxxxxxxxxxxxxxxxxxxxxxxxxxxxxxxx
            x  Element         Atom        Fractional coordinates of atoms  x
            x                 Number           u          v          w      x
            x---------------------------------------------------------------x
            x  H                 1         0.343723   0.121184   0.374452   x
            x  H                 2         0.490206   0.374925   0.504449   x
            x  H                 3         0.990206   0.625075   0.504449   x
            x  H                 4         0.843723   0.878816   0.374452   x
            x  H                 5         0.009794   0.374925   0.004449   x
            x  H                 6         0.156277   0.121184   0.874452   x
            x  H                 7         0.509794   0.625075   0.004449   x
            x  H                 8         0.656277   0.878816   0.874452   x
            xxxxxxxxxxxxxxxxxxxxxxxxxxxxxxxxxxxxxxxxxxxxxxxxxxxxxxxxxxxxxxxxx


------------------------------------------------------------------------ <-- SCF
SCF loop      Energy                           Energy gain       Timer   <-- SCF
                                               per atom          (sec)   <-- SCF
------------------------------------------------------------------------ <-- SCF
Initial  -1.19539871E+002                                         65.53  <-- SCF
      1  -1.19873897E+002                    4.17532294E-002      66.68  <-- SCF
      2  -1.19875120E+002                    1.52899724E-004      68.24  <-- SCF
      3  -1.19856152E+002                   -2.37104395E-003      69.86  <-- SCF
      4  -1.19855334E+002                   -1.02224526E-004      71.40  <-- SCF
      5  -1.19855338E+002                    5.10600140E-007      73.00  <-- SCF
      6  -1.19855338E+002                    3.74839018E-008      74.54  <-- SCF
      7  -1.19855338E+002                    8.47289497E-011      75.80  <-- SCF
      8  -1.19855338E+002                    4.15095118E-012      76.98  <-- SCF
      9  -1.19855338E+002                    2.96064932E-013      78.14  <-- SCF
------------------------------------------------------------------------ <-- SCF
 
Final energy =  -119.8553383110     eV
(energy not corrected for finite basis set)
 

 ******************************** Symmetrised Forces ********************************
 *                                                                                  *
 *                           Cartesian components (eV/A)                            *
 * -------------------------------------------------------------------------------- *
 *                         x                    y                    z              *
 *                                                                                  *
 * H               1      0.45743              0.45231              0.37920         *
 * H               2     -0.45014             -0.47323             -0.37920         *
 * H               3     -0.45014              0.47323             -0.37920         *
 * H               4      0.45743             -0.45231              0.37920         *
 * H               5      0.45014             -0.47323             -0.37920         *
 * H               6     -0.45743              0.45231              0.37920         *
 * H               7      0.45014              0.47323             -0.37920         *
 * H               8     -0.45743             -0.45231              0.37920         *
 *                                                                                  *
 ************************************************************************************

 *********** Symmetrised Stress Tensor ***********
 *                                               *
 *          Cartesian components (GPa)           *
 * --------------------------------------------- *
 *             x             y             z     *
 *                                               *
 *  x   -120.745670      0.000000      0.000000  *
 *  y      0.000000   -120.592360      0.000000  *
 *  z      0.000000      0.000000   -121.661134  *
 *                                               *
 *  Pressure:  120.9997                          *
 *                                               *
 *************************************************
  
 +------------+-------------+-------------+-----------------+ <-- min LBFGS
 |    Step    |   lambda    |   F.delta'  |    enthalpy     | <-- min LBFGS
 +------------+-------------+-------------+-----------------+ <-- min LBFGS
 |  previous  |    0.000000 |    0.042079 |     -107.327242 | <-- min LBFGS
 | trial step |    1.000000 |   -0.152472 |     -107.279067 | <-- min LBFGS
 +------------+-------------+-------------+-----------------+ <-- min LBFGS
  

--------------------------------------------------------------------------------
 LBFGS: improving iteration         2 with line minimization (lambda=  0.216289)
--------------------------------------------------------------------------------

                           -------------------------------
                                      Unit Cell
                           -------------------------------
        Real Lattice(A)              Reciprocal Lattice(1/A)
     3.1822948     0.0000000     0.0000000        1.974419607   0.000000000   0.000000000
     0.0000000     1.8494256     0.0000000        0.000000000   3.397371146   0.000000000
     0.0000000     0.0000000     2.9224719        0.000000000   0.000000000   2.149955761

                       Lattice parameters(A)       Cell Angles
                    a =      3.182295          alpha =   90.000000
                    b =      1.849426          beta  =   90.000000
                    c =      2.922472          gamma =   90.000000

                Current cell volume =            17.199968 A**3

                           -------------------------------
                                     Cell Contents
                           -------------------------------

            xxxxxxxxxxxxxxxxxxxxxxxxxxxxxxxxxxxxxxxxxxxxxxxxxxxxxxxxxxxxxxxxx
            x  Element         Atom        Fractional coordinates of atoms  x
            x                 Number           u          v          w      x
            x---------------------------------------------------------------x
            x  H                 1         0.346731   0.126475   0.377108   x
            x  H                 2         0.487193   0.369772   0.501792   x
            x  H                 3         0.987193   0.630228   0.501792   x
            x  H                 4         0.846731   0.873525   0.377108   x
            x  H                 5         0.012807   0.369772   0.001792   x
            x  H                 6         0.153269   0.126475   0.877108   x
            x  H                 7         0.512807   0.630228   0.001792   x
            x  H                 8         0.653269   0.873525   0.877108   x
            xxxxxxxxxxxxxxxxxxxxxxxxxxxxxxxxxxxxxxxxxxxxxxxxxxxxxxxxxxxxxxxxx


------------------------------------------------------------------------ <-- SCF
SCF loop      Energy                           Energy gain       Timer   <-- SCF
                                               per atom          (sec)   <-- SCF
------------------------------------------------------------------------ <-- SCF
Initial  -1.20026168E+002                                         79.89  <-- SCF
      1  -1.20223866E+002                    2.47122580E-002      81.18  <-- SCF
      2  -1.20224567E+002                    8.75925805E-005      83.06  <-- SCF
      3  -1.20213364E+002                   -1.40027259E-003      84.76  <-- SCF
      4  -1.20212861E+002                   -6.28704190E-005      86.49  <-- SCF
      5  -1.20212865E+002                    3.98725326E-007      88.25  <-- SCF
      6  -1.20212865E+002                    3.21790134E-008      89.96  <-- SCF
      7  -1.20212865E+002                    1.40506979E-010      91.23  <-- SCF
      8  -1.20212865E+002                    3.55882132E-012      92.47  <-- SCF
      9  -1.20212865E+002                    2.50748871E-013      93.74  <-- SCF
------------------------------------------------------------------------ <-- SCF
 
Final energy =  -120.2128648859     eV
(energy not corrected for finite basis set)
 

 ******************************** Symmetrised Forces ********************************
 *                                                                                  *
 *                           Cartesian components (eV/A)                            *
 * -------------------------------------------------------------------------------- *
 *                         x                    y                    z              *
 *                                                                                  *
 * H               1      0.01385              0.01085              0.01303         *
 * H               2     -0.01247             -0.01752             -0.01303         *
 * H               3     -0.01247              0.01752             -0.01303         *
 * H               4      0.01385             -0.01085              0.01303         *
 * H               5      0.01247             -0.01752             -0.01303         *
 * H               6     -0.01385              0.01085              0.01303         *
 * H               7      0.01247              0.01752             -0.01303         *
 * H               8     -0.01385             -0.01085              0.01303         *
 *                                                                                  *
 ************************************************************************************

 *********** Symmetrised Stress Tensor ***********
 *                                               *
 *          Cartesian components (GPa)           *
 * --------------------------------------------- *
 *             x             y             z     *
 *                                               *
 *  x   -120.265689      0.000000      0.000000  *
 *  y      0.000000   -120.222992      0.000000  *
 *  z      0.000000      0.000000   -119.830137  *
 *                                               *
 *  Pressure:  120.1063                          *
 *                                               *
 *************************************************
  
 +------------+-------------+-------------+-----------------+ <-- min LBFGS
 |    Step    |   lambda    |   F.delta'  |    enthalpy     | <-- min LBFGS
 +------------+-------------+-------------+-----------------+ <-- min LBFGS
 |  previous  |    0.000000 |    0.042079 |     -107.327242 | <-- min LBFGS
 | trial step |    1.000000 |   -0.152472 |     -107.279067 | <-- min LBFGS
 |  line step |    0.216289 |   -0.005040 |     -107.330414 | <-- min LBFGS
 +------------+-------------+-------------+-----------------+ <-- min LBFGS
  
 LBFGS: finished iteration     2 with enthalpy= -1.07330414E+002 eV
  
 +-----------+-----------------+-----------------+------------+-----+ <-- LBFGS
 | Parameter |      value      |    tolerance    |    units   | OK? | <-- LBFGS
 +-----------+-----------------+-----------------+------------+-----+ <-- LBFGS
 |  dE/ion   |   3.965304E-004 |   1.000000E-009 |         eV | No  | <-- LBFGS
 |  |F|max   |   2.514541E-002 |   1.000000E-005 |       eV/A | No  | <-- LBFGS
 |  |dR|max  |   4.343408E-003 |   1.000000E-005 |          A | No  | <-- LBFGS
 |   Smax    |   2.656894E-001 |   1.000000E-005 |        GPa | No  | <-- LBFGS
 +-----------+-----------------+-----------------+------------+-----+ <-- LBFGS
  

================================================================================
 Starting LBFGS iteration          3 ...
================================================================================
  
 +------------+-------------+-------------+-----------------+ <-- min LBFGS
 |    Step    |   lambda    |   F.delta'  |    enthalpy     | <-- min LBFGS
 +------------+-------------+-------------+-----------------+ <-- min LBFGS
 |  previous  |    0.000000 |    0.004535 |     -107.330414 | <-- min LBFGS
 +------------+-------------+-------------+-----------------+ <-- min LBFGS
  

--------------------------------------------------------------------------------
 LBFGS: starting iteration         3 with trial guess (lambda=  1.000000)
--------------------------------------------------------------------------------

                           -------------------------------
                                      Unit Cell
                           -------------------------------
        Real Lattice(A)              Reciprocal Lattice(1/A)
     3.1836714     0.0000000     0.0000000        1.973565881   0.000000000   0.000000000
     0.0000000     1.8501775     0.0000000        0.000000000   3.395990628   0.000000000
     0.0000000     0.0000000     2.9228553        0.000000000   0.000000000   2.149673777

                       Lattice parameters(A)       Cell Angles
                    a =      3.183671          alpha =   90.000000
                    b =      1.850177          beta  =   90.000000
                    c =      2.922855          gamma =   90.000000

                Current cell volume =            17.216661 A**3

                           -------------------------------
                                     Cell Contents
                           -------------------------------

            xxxxxxxxxxxxxxxxxxxxxxxxxxxxxxxxxxxxxxxxxxxxxxxxxxxxxxxxxxxxxxxxx
            x  Element         Atom        Fractional coordinates of atoms  x
            x                 Number           u          v          w      x
            x---------------------------------------------------------------x
            x  H                 1         0.346811   0.126464   0.377230   x
            x  H                 2         0.487150   0.369465   0.501670   x
            x  H                 3         0.987150   0.630535   0.501670   x
            x  H                 4         0.846811   0.873536   0.377230   x
            x  H                 5         0.012850   0.369465   0.001670   x
            x  H                 6         0.153189   0.126464   0.877230   x
            x  H                 7         0.512850   0.630535   0.001670   x
            x  H                 8         0.653189   0.873536   0.877230   x
            xxxxxxxxxxxxxxxxxxxxxxxxxxxxxxxxxxxxxxxxxxxxxxxxxxxxxxxxxxxxxxxxx


------------------------------------------------------------------------ <-- SCF
SCF loop      Energy                           Energy gain       Timer   <-- SCF
                                               per atom          (sec)   <-- SCF
------------------------------------------------------------------------ <-- SCF
Initial  -1.20225200E+002                                         95.57  <-- SCF
      1  -1.20225447E+002                    3.09434242E-005      96.84  <-- SCF
      2  -1.20225448E+002                    9.76746909E-008      98.53  <-- SCF
      3  -1.20225435E+002                   -1.67769869E-006     100.18  <-- SCF
      4  -1.20225434E+002                   -7.00961429E-008     101.83  <-- SCF
      5  -1.20225434E+002                    3.60830646E-010     103.46  <-- SCF
      6  -1.20225434E+002                    2.96397249E-011     104.70  <-- SCF
      7  -1.20225434E+002                    1.02716405E-013     105.93  <-- SCF
      8  -1.20225434E+002                    7.85478390E-014     107.17  <-- SCF
------------------------------------------------------------------------ <-- SCF
 
Final energy =  -120.2254340163     eV
(energy not corrected for finite basis set)
 

 ******************************** Symmetrised Forces ********************************
 *                                                                                  *
 *                           Cartesian components (eV/A)                            *
 * -------------------------------------------------------------------------------- *
 *                         x                    y                    z              *
 *                                                                                  *
 * H               1     -0.00007             -0.00133              0.00177         *
 * H               2      0.00069             -0.00218             -0.00177         *
 * H               3      0.00069              0.00218             -0.00177         *
 * H               4     -0.00007              0.00133              0.00177         *
 * H               5     -0.00069             -0.00218             -0.00177         *
 * H               6      0.00007             -0.00133              0.00177         *
 * H               7     -0.00069              0.00218             -0.00177         *
 * H               8      0.00007              0.00133              0.00177         *
 *                                                                                  *
 ************************************************************************************

 *********** Symmetrised Stress Tensor ***********
 *                                               *
 *          Cartesian components (GPa)           *
 * --------------------------------------------- *
 *             x             y             z     *
 *                                               *
 *  x   -120.111614      0.000000      0.000000  *
 *  y      0.000000   -120.096508      0.000000  *
 *  z      0.000000      0.000000   -119.772619  *
 *                                               *
 *  Pressure:  119.9936                          *
 *                                               *
 *************************************************
  
 +------------+-------------+-------------+-----------------+ <-- min LBFGS
 |    Step    |   lambda    |   F.delta'  |    enthalpy     | <-- min LBFGS
 +------------+-------------+-------------+-----------------+ <-- min LBFGS
 |  previous  |    0.000000 |    0.004535 |     -107.330414 | <-- min LBFGS
 | trial step |    1.000000 |    0.000619 |     -107.330480 | <-- min LBFGS
 +------------+-------------+-------------+-----------------+ <-- min LBFGS
  
 LBFGS: finished iteration     3 with enthalpy= -1.07330480E+002 eV
  
 +-----------+-----------------+-----------------+------------+-----+ <-- LBFGS
 | Parameter |      value      |    tolerance    |    units   | OK? | <-- LBFGS
 +-----------+-----------------+-----------------+------------+-----+ <-- LBFGS
 |  dE/ion   |   8.258820E-006 |   1.000000E-009 |         eV | No  | <-- LBFGS
 |  |F|max   |   2.895823E-003 |   1.000000E-005 |       eV/A | No  | <-- LBFGS
 |  |dR|max  |   6.844917E-004 |   1.000000E-005 |          A | No  | <-- LBFGS
 |   Smax    |   2.273805E-001 |   1.000000E-005 |        GPa | No  | <-- LBFGS
 +-----------+-----------------+-----------------+------------+-----+ <-- LBFGS
  

================================================================================
 Starting LBFGS iteration          4 ...
================================================================================
  
 +------------+-------------+-------------+-----------------+ <-- min LBFGS
 |    Step    |   lambda    |   F.delta'  |    enthalpy     | <-- min LBFGS
 +------------+-------------+-------------+-----------------+ <-- min LBFGS
 |  previous  |    0.000000 |    0.001036 |     -107.330480 | <-- min LBFGS
 +------------+-------------+-------------+-----------------+ <-- min LBFGS
  

--------------------------------------------------------------------------------
 LBFGS: starting iteration         4 with trial guess (lambda=  1.000000)
--------------------------------------------------------------------------------

                           -------------------------------
                                      Unit Cell
                           -------------------------------
        Real Lattice(A)              Reciprocal Lattice(1/A)
     3.1840651     0.0000000     0.0000000        1.973321850   0.000000000   0.000000000
     0.0000000     1.8503808     0.0000000        0.000000000   3.395617391   0.000000000
     0.0000000     0.0000000     2.9223795        0.000000000   0.000000000   2.150023705

                       Lattice parameters(A)       Cell Angles
                    a =      3.184065          alpha =   90.000000
                    b =      1.850381          beta  =   90.000000
                    c =      2.922380          gamma =   90.000000

                Current cell volume =            17.217880 A**3

                           -------------------------------
                                     Cell Contents
                           -------------------------------

            xxxxxxxxxxxxxxxxxxxxxxxxxxxxxxxxxxxxxxxxxxxxxxxxxxxxxxxxxxxxxxxxx
            x  Element         Atom        Fractional coordinates of atoms  x
            x                 Number           u          v          w      x
            x---------------------------------------------------------------x
            x  H                 1         0.346799   0.126356   0.377293   x
            x  H                 2         0.487186   0.369336   0.501607   x
            x  H                 3         0.987186   0.630664   0.501607   x
            x  H                 4         0.846799   0.873644   0.377293   x
            x  H                 5         0.012814   0.369336   0.001607   x
            x  H                 6         0.153201   0.126356   0.877293   x
            x  H                 7         0.512814   0.630664   0.001607   x
            x  H                 8         0.653201   0.873644   0.877293   x
            xxxxxxxxxxxxxxxxxxxxxxxxxxxxxxxxxxxxxxxxxxxxxxxxxxxxxxxxxxxxxxxxx


------------------------------------------------------------------------ <-- SCF
SCF loop      Energy                           Energy gain       Timer   <-- SCF
                                               per atom          (sec)   <-- SCF
------------------------------------------------------------------------ <-- SCF
Initial  -1.20226316E+002                                        108.97  <-- SCF
      1  -1.20226358E+002                    5.26491828E-006     110.21  <-- SCF
      2  -1.20226358E+002                    1.29259170E-008     111.86  <-- SCF
      3  -1.20226357E+002                   -1.54705283E-007     113.58  <-- SCF
      4  -1.20226357E+002                   -4.52545519E-009     115.23  <-- SCF
      5  -1.20226357E+002                    3.43828060E-011     116.48  <-- SCF
      6  -1.20226357E+002                    3.75519092E-012     117.75  <-- SCF
      7  -1.20226357E+002                    2.93043861E-013     119.03  <-- SCF
------------------------------------------------------------------------ <-- SCF
 
Final energy =  -120.2263569493     eV
(energy not corrected for finite basis set)
 

 ******************************** Symmetrised Forces ********************************
 *                                                                                  *
 *                           Cartesian components (eV/A)                            *
 * -------------------------------------------------------------------------------- *
 *                         x                    y                    z              *
 *                                                                                  *
 * H               1     -0.00198             -0.00209              0.00026         *
 * H               2      0.00220              0.00061             -0.00026         *
 * H               3      0.00220             -0.00061             -0.00026         *
 * H               4     -0.00198              0.00209              0.00026         *
 * H               5     -0.00220              0.00061             -0.00026         *
 * H               6      0.00198             -0.00209              0.00026         *
 * H               7     -0.00220             -0.00061             -0.00026         *
 * H               8      0.00198              0.00209              0.00026         *
 *                                                                                  *
 ************************************************************************************

 *********** Symmetrised Stress Tensor ***********
 *                                               *
 *          Cartesian components (GPa)           *
 * --------------------------------------------- *
 *             x             y             z     *
 *                                               *
 *  x   -120.064622      0.000000      0.000000  *
 *  y      0.000000   -120.066035      0.000000  *
 *  z      0.000000      0.000000   -119.842931  *
 *                                               *
 *  Pressure:  119.9912                          *
 *                                               *
 *************************************************
  
 +------------+-------------+-------------+-----------------+ <-- min LBFGS
 |    Step    |   lambda    |   F.delta'  |    enthalpy     | <-- min LBFGS
 +------------+-------------+-------------+-----------------+ <-- min LBFGS
 |  previous  |    0.000000 |    0.001036 |     -107.330480 | <-- min LBFGS
 | trial step |    1.000000 |    0.000585 |     -107.330490 | <-- min LBFGS
 +------------+-------------+-------------+-----------------+ <-- min LBFGS
  

--------------------------------------------------------------------------------
 LBFGS: improving iteration         4 with line minimization (lambda=  2.299272)
--------------------------------------------------------------------------------

                           -------------------------------
                                      Unit Cell
                           -------------------------------
        Real Lattice(A)              Reciprocal Lattice(1/A)
     3.1845767     0.0000000     0.0000000        1.973004877   0.000000000   0.000000000
     0.0000000     1.8506451     0.0000000        0.000000000   3.395132576   0.000000000
     0.0000000     0.0000000     2.9217615        0.000000000   0.000000000   2.150478528

                       Lattice parameters(A)       Cell Angles
                    a =      3.184577          alpha =   90.000000
                    b =      1.850645          beta  =   90.000000
                    c =      2.921761          gamma =   90.000000

                Current cell volume =            17.219463 A**3

                           -------------------------------
                                     Cell Contents
                           -------------------------------

            xxxxxxxxxxxxxxxxxxxxxxxxxxxxxxxxxxxxxxxxxxxxxxxxxxxxxxxxxxxxxxxxx
            x  Element         Atom        Fractional coordinates of atoms  x
            x                 Number           u          v          w      x
            x---------------------------------------------------------------x
            x  H                 1         0.346784   0.126216   0.377375   x
            x  H                 2         0.487233   0.369170   0.501525   x
            x  H                 3         0.987233   0.630830   0.501525   x
            x  H                 4         0.846784   0.873784   0.377375   x
            x  H                 5         0.012767   0.369170   0.001525   x
            x  H                 6         0.153216   0.126216   0.877375   x
            x  H                 7         0.512767   0.630830   0.001525   x
            x  H                 8         0.653216   0.873784   0.877375   x
            xxxxxxxxxxxxxxxxxxxxxxxxxxxxxxxxxxxxxxxxxxxxxxxxxxxxxxxxxxxxxxxxx


------------------------------------------------------------------------ <-- SCF
SCF loop      Energy                           Energy gain       Timer   <-- SCF
                                               per atom          (sec)   <-- SCF
------------------------------------------------------------------------ <-- SCF
Initial  -1.20227478E+002                                        120.86  <-- SCF
      1  -1.20227549E+002                    8.87411248E-006     122.08  <-- SCF
      2  -1.20227549E+002                    2.18227528E-008     123.69  <-- SCF
      3  -1.20227547E+002                   -2.61538954E-007     125.34  <-- SCF
      4  -1.20227547E+002                   -7.64637231E-009     126.98  <-- SCF
      5  -1.20227547E+002                    5.81918644E-011     128.26  <-- SCF
      6  -1.20227547E+002                    6.17808964E-012     129.52  <-- SCF
      7  -1.20227547E+002                    3.50444205E-013     130.74  <-- SCF
------------------------------------------------------------------------ <-- SCF
 
Final energy =  -120.2275470841     eV
(energy not corrected for finite basis set)
 

 ******************************** Symmetrised Forces ********************************
 *                                                                                  *
 *                           Cartesian components (eV/A)                            *
 * -------------------------------------------------------------------------------- *
 *                         x                    y                    z              *
 *                                                                                  *
 * H               1     -0.00445             -0.00308             -0.00170         *
 * H               2      0.00416              0.00422              0.00170         *
 * H               3      0.00416             -0.00422              0.00170         *
 * H               4     -0.00445              0.00308             -0.00170         *
 * H               5     -0.00416              0.00422              0.00170         *
 * H               6      0.00445             -0.00308             -0.00170         *
 * H               7     -0.00416             -0.00422              0.00170         *
 * H               8      0.00445              0.00308             -0.00170         *
 *                                                                                  *
 ************************************************************************************

 *********** Symmetrised Stress Tensor ***********
 *                                               *
 *          Cartesian components (GPa)           *
 * --------------------------------------------- *
 *             x             y             z     *
 *                                               *
 *  x   -120.003692      0.000000      0.000000  *
 *  y      0.000000   -120.026400      0.000000  *
 *  z      0.000000      0.000000   -119.934078  *
 *                                               *
 *  Pressure:  119.9881                          *
 *                                               *
 *************************************************
  
 +------------+-------------+-------------+-----------------+ <-- min LBFGS
 |    Step    |   lambda    |   F.delta'  |    enthalpy     | <-- min LBFGS
 +------------+-------------+-------------+-----------------+ <-- min LBFGS
 |  previous  |    0.000000 |    0.001036 |     -107.330480 | <-- min LBFGS
 | trial step |    1.000000 |    0.000585 |     -107.330490 | <-- min LBFGS
 |  line step |    2.299272 |  1.633E-006 |     -107.330495 | <-- min LBFGS
 +------------+-------------+-------------+-----------------+ <-- min LBFGS
  
 LBFGS: finished iteration     4 with enthalpy= -1.07330495E+002 eV
  
 +-----------+-----------------+-----------------+------------+-----+ <-- LBFGS
 | Parameter |      value      |    tolerance    |    units   | OK? | <-- LBFGS
 +-----------+-----------------+-----------------+------------+-----+ <-- LBFGS
 |  dE/ion   |   1.834452E-006 |   1.000000E-009 |         eV | No  | <-- LBFGS
 |  |F|max   |   6.163144E-003 |   1.000000E-005 |       eV/A | No  | <-- LBFGS
 |  |dR|max  |   7.389608E-004 |   1.000000E-005 |          A | No  | <-- LBFGS
 |   Smax    |   6.592239E-002 |   1.000000E-005 |        GPa | No  | <-- LBFGS
 +-----------+-----------------+-----------------+------------+-----+ <-- LBFGS
  

================================================================================
 Starting LBFGS iteration          5 ...
================================================================================
  
 +------------+-------------+-------------+-----------------+ <-- min LBFGS
 |    Step    |   lambda    |   F.delta'  |    enthalpy     | <-- min LBFGS
 +------------+-------------+-------------+-----------------+ <-- min LBFGS
 |  previous  |    0.000000 |    0.000889 |     -107.330495 | <-- min LBFGS
 +------------+-------------+-------------+-----------------+ <-- min LBFGS
  

--------------------------------------------------------------------------------
 LBFGS: starting iteration         5 with trial guess (lambda=  1.000000)
--------------------------------------------------------------------------------

                           -------------------------------
                                      Unit Cell
                           -------------------------------
        Real Lattice(A)              Reciprocal Lattice(1/A)
     3.1845866     0.0000000     0.0000000        1.972998745   0.000000000   0.000000000
     0.0000000     1.8506670     0.0000000        0.000000000   3.395092329   0.000000000
     0.0000000     0.0000000     2.9213279        0.000000000   0.000000000   2.150797727

                       Lattice parameters(A)       Cell Angles
                    a =      3.184587          alpha =   90.000000
                    b =      1.850667          beta  =   90.000000
                    c =      2.921328          gamma =   90.000000

                Current cell volume =            17.217165 A**3

                           -------------------------------
                                     Cell Contents
                           -------------------------------

            xxxxxxxxxxxxxxxxxxxxxxxxxxxxxxxxxxxxxxxxxxxxxxxxxxxxxxxxxxxxxxxxx
            x  Element         Atom        Fractional coordinates of atoms  x
            x                 Number           u          v          w      x
            x---------------------------------------------------------------x
            x  H                 1         0.346734   0.126164   0.377421   x
            x  H                 2         0.487285   0.369183   0.501479   x
            x  H                 3         0.987285   0.630817   0.501479   x
            x  H                 4         0.846734   0.873836   0.377421   x
            x  H                 5         0.012715   0.369183   0.001479   x
            x  H                 6         0.153266   0.126164   0.877421   x
            x  H                 7         0.512715   0.630817   0.001479   x
            x  H                 8         0.653266   0.873836   0.877421   x
            xxxxxxxxxxxxxxxxxxxxxxxxxxxxxxxxxxxxxxxxxxxxxxxxxxxxxxxxxxxxxxxxx


------------------------------------------------------------------------ <-- SCF
SCF loop      Energy                           Energy gain       Timer   <-- SCF
                                               per atom          (sec)   <-- SCF
------------------------------------------------------------------------ <-- SCF
Initial  -1.20225812E+002                                        132.61  <-- SCF
      1  -1.20225831E+002                    2.40024117E-006     133.84  <-- SCF
      2  -1.20225831E+002                    5.55905110E-009     135.51  <-- SCF
      3  -1.20225831E+002                   -2.78649365E-009     137.20  <-- SCF
      4  -1.20225831E+002                    1.10444304E-009     138.96  <-- SCF
      5  -1.20225831E+002                    1.93318316E-011     140.18  <-- SCF
      6  -1.20225831E+002                    1.93348527E-012     141.44  <-- SCF
      7  -1.20225831E+002                    1.35948183E-013     142.69  <-- SCF
------------------------------------------------------------------------ <-- SCF
 
Final energy =  -120.2258308607     eV
(energy not corrected for finite basis set)
 

 ******************************** Symmetrised Forces ********************************
 *                                                                                  *
 *                           Cartesian components (eV/A)                            *
 * -------------------------------------------------------------------------------- *
 *                         x                    y                    z              *
 *                                                                                  *
 * H               1     -0.00209             -0.00073              0.00001         *
 * H               2      0.00188              0.00202             -0.00001         *
 * H               3      0.00188             -0.00202             -0.00001         *
 * H               4     -0.00209              0.00073              0.00001         *
 * H               5     -0.00188              0.00202             -0.00001         *
 * H               6      0.00209             -0.00073              0.00001         *
 * H               7     -0.00188             -0.00202             -0.00001         *
 * H               8      0.00209              0.00073              0.00001         *
 *                                                                                  *
 ************************************************************************************

 *********** Symmetrised Stress Tensor ***********
 *                                               *
 *          Cartesian components (GPa)           *
 * --------------------------------------------- *
 *             x             y             z     *
 *                                               *
 *  x   -119.987444      0.000000      0.000000  *
 *  y      0.000000   -120.009872      0.000000  *
 *  z      0.000000      0.000000   -119.988063  *
 *                                               *
 *  Pressure:  119.9951                          *
 *                                               *
 *************************************************
  
 +------------+-------------+-------------+-----------------+ <-- min LBFGS
 |    Step    |   lambda    |   F.delta'  |    enthalpy     | <-- min LBFGS
 +------------+-------------+-------------+-----------------+ <-- min LBFGS
 |  previous  |    0.000000 |    0.000889 |     -107.330495 | <-- min LBFGS
 | trial step |    1.000000 |    0.000450 |     -107.330500 | <-- min LBFGS
 +------------+-------------+-------------+-----------------+ <-- min LBFGS
  

--------------------------------------------------------------------------------
 LBFGS: improving iteration         5 with line minimization (lambda=  2.025190)
--------------------------------------------------------------------------------

                           -------------------------------
                                      Unit Cell
                           -------------------------------
        Real Lattice(A)              Reciprocal Lattice(1/A)
     3.1845967     0.0000000     0.0000000        1.972992459   0.000000000   0.000000000
     0.0000000     1.8506895     0.0000000        0.000000000   3.395051069   0.000000000
     0.0000000     0.0000000     2.9208833        0.000000000   0.000000000   2.151125066

                       Lattice parameters(A)       Cell Angles
                    a =      3.184597          alpha =   90.000000
                    b =      1.850689          beta  =   90.000000
                    c =      2.920883          gamma =   90.000000

                Current cell volume =            17.214809 A**3

                           -------------------------------
                                     Cell Contents
                           -------------------------------

            xxxxxxxxxxxxxxxxxxxxxxxxxxxxxxxxxxxxxxxxxxxxxxxxxxxxxxxxxxxxxxxxx
            x  Element         Atom        Fractional coordinates of atoms  x
            x                 Number           u          v          w      x
            x---------------------------------------------------------------x
            x  H                 1         0.346683   0.126109   0.377469   x
            x  H                 2         0.487339   0.369196   0.501432   x
            x  H                 3         0.987339   0.630804   0.501432   x
            x  H                 4         0.846683   0.873891   0.377469   x
            x  H                 5         0.012661   0.369196   0.001432   x
            x  H                 6         0.153317   0.126109   0.877469   x
            x  H                 7         0.512661   0.630804   0.001432   x
            x  H                 8         0.653317   0.873891   0.877469   x
            xxxxxxxxxxxxxxxxxxxxxxxxxxxxxxxxxxxxxxxxxxxxxxxxxxxxxxxxxxxxxxxxx


------------------------------------------------------------------------ <-- SCF
[...]
            x  H                 7         0.512362   0.630734   0.001043   x
            x  H                 8         0.653532   0.873883   0.877857   x
            xxxxxxxxxxxxxxxxxxxxxxxxxxxxxxxxxxxxxxxxxxxxxxxxxxxxxxxxxxxxxxxxx


------------------------------------------------------------------------ <-- SCF
SCF loop      Energy                           Energy gain       Timer   <-- SCF
                                               per atom          (sec)   <-- SCF
------------------------------------------------------------------------ <-- SCF
Initial  -1.20224643E+002                                        305.94  <-- SCF
      1  -1.20224643E+002                    7.19981576E-011     307.16  <-- SCF
      2  -1.20224643E+002                    9.06321219E-014     308.40  <-- SCF
      3  -1.20224643E+002                    1.40781896E-012     309.61  <-- SCF
      4  -1.20224643E+002                    1.96369597E-013     310.91  <-- SCF
------------------------------------------------------------------------ <-- SCF
 
Final energy =  -120.2246433019     eV
(energy not corrected for finite basis set)
 

 ******************************** Symmetrised Forces ********************************
 *                                                                                  *
 *                           Cartesian components (eV/A)                            *
 * -------------------------------------------------------------------------------- *
 *                         x                    y                    z              *
 *                                                                                  *
 * H               1      0.00000             -0.00000              0.00000         *
 * H               2      0.00000              0.00000             -0.00000         *
 * H               3      0.00000             -0.00000             -0.00000         *
 * H               4      0.00000              0.00000              0.00000         *
 * H               5     -0.00000              0.00000             -0.00000         *
 * H               6     -0.00000             -0.00000              0.00000         *
 * H               7     -0.00000             -0.00000             -0.00000         *
 * H               8     -0.00000              0.00000              0.00000         *
 *                                                                                  *
 ************************************************************************************

 *********** Symmetrised Stress Tensor ***********
 *                                               *
 *          Cartesian components (GPa)           *
 * --------------------------------------------- *
 *             x             y             z     *
 *                                               *
 *  x   -119.999973      0.000000      0.000000  *
 *  y      0.000000   -120.000021      0.000000  *
 *  z      0.000000      0.000000   -120.000002  *
 *                                               *
 *  Pressure:  120.0000                          *
 *                                               *
 *************************************************
  
 +------------+-------------+-------------+-----------------+ <-- min LBFGS
 |    Step    |   lambda    |   F.delta'  |    enthalpy     | <-- min LBFGS
 +------------+-------------+-------------+-----------------+ <-- min LBFGS
 |  previous  |    0.000000 |  7.126E-007 |     -107.330509 | <-- min LBFGS
 | trial step |    1.000000 |  2.189E-007 |     -107.330509 | <-- min LBFGS
 |  line step |    1.443293 | -9.840E-008 |     -107.330509 | <-- min LBFGS
 +------------+-------------+-------------+-----------------+ <-- min LBFGS
  
 LBFGS: finished iteration    14 with enthalpy= -1.07330509E+002 eV
  
 +-----------+-----------------+-----------------+------------+-----+ <-- LBFGS
 | Parameter |      value      |    tolerance    |    units   | OK? | <-- LBFGS
 +-----------+-----------------+-----------------+------------+-----+ <-- LBFGS
 |  dE/ion   |   5.653934E-012 |   1.000000E-009 |         eV | Yes | <-- LBFGS
 |  |F|max   |   5.162962E-007 |   1.000000E-005 |       eV/A | Yes | <-- LBFGS
 |  |dR|max  |   4.587571E-006 |   1.000000E-005 |          A | Yes | <-- LBFGS
 |   Smax    |   2.736811E-005 |   1.000000E-005 |        GPa | No  | <-- LBFGS
 +-----------+-----------------+-----------------+------------+-----+ <-- LBFGS
  

================================================================================
 Starting LBFGS iteration         15 ...
================================================================================
  
 +------------+-------------+-------------+-----------------+ <-- min LBFGS
 |    Step    |   lambda    |   F.delta'  |    enthalpy     | <-- min LBFGS
 +------------+-------------+-------------+-----------------+ <-- min LBFGS
 |  previous  |    0.000000 |  1.118E-007 |     -107.330509 | <-- min LBFGS
 +------------+-------------+-------------+-----------------+ <-- min LBFGS
  

--------------------------------------------------------------------------------
 LBFGS: starting iteration        15 with trial guess (lambda=  1.000000)
--------------------------------------------------------------------------------

                           -------------------------------
                                      Unit Cell
                           -------------------------------
        Real Lattice(A)              Reciprocal Lattice(1/A)
     3.1842565     0.0000000     0.0000000        1.973203268   0.000000000   0.000000000
     0.0000000     1.8507629     0.0000000        0.000000000   3.394916376   0.000000000
     0.0000000     0.0000000     2.9212082        0.000000000   0.000000000   2.150885824

                       Lattice parameters(A)       Cell Angles
                    a =      3.184256          alpha =   90.000000
                    b =      1.850763          beta  =   90.000000
                    c =      2.921208          gamma =   90.000000

                Current cell volume =            17.215567 A**3

                           -------------------------------
                                     Cell Contents
                           -------------------------------

            xxxxxxxxxxxxxxxxxxxxxxxxxxxxxxxxxxxxxxxxxxxxxxxxxxxxxxxxxxxxxxxxx
            x  Element         Atom        Fractional coordinates of atoms  x
            x                 Number           u          v          w      x
            x---------------------------------------------------------------x
            x  H                 1         0.346468   0.126117   0.377857   x
            x  H                 2         0.487638   0.369266   0.501043   x
            x  H                 3         0.987638   0.630734   0.501043   x
            x  H                 4         0.846468   0.873883   0.377857   x
            x  H                 5         0.012362   0.369266   0.001043   x
            x  H                 6         0.153532   0.126117   0.877857   x
            x  H                 7         0.512362   0.630734   0.001043   x
            x  H                 8         0.653532   0.873883   0.877857   x
            xxxxxxxxxxxxxxxxxxxxxxxxxxxxxxxxxxxxxxxxxxxxxxxxxxxxxxxxxxxxxxxxx


------------------------------------------------------------------------ <-- SCF
SCF loop      Energy                           Energy gain       Timer   <-- SCF
                                               per atom          (sec)   <-- SCF
------------------------------------------------------------------------ <-- SCF
Initial  -1.20224643E+002                                        312.76  <-- SCF
      1  -1.20224643E+002                    1.00903762E-011     313.56  <-- SCF
      2  -1.20224643E+002                    1.75222102E-013     314.79  <-- SCF
      3  -1.20224643E+002                    3.29296710E-013     316.01  <-- SCF
      4  -1.20224643E+002                   -1.14800688E-013     317.29  <-- SCF
------------------------------------------------------------------------ <-- SCF
 
Final energy =  -120.2246431622     eV
(energy not corrected for finite basis set)
 

 ******************************** Symmetrised Forces ********************************
 *                                                                                  *
 *                           Cartesian components (eV/A)                            *
 * -------------------------------------------------------------------------------- *
 *                         x                    y                    z              *
 *                                                                                  *
 * H               1      0.00000             -0.00000              0.00000         *
 * H               2      0.00000              0.00000             -0.00000         *
 * H               3      0.00000             -0.00000             -0.00000         *
 * H               4      0.00000              0.00000              0.00000         *
 * H               5     -0.00000              0.00000             -0.00000         *
 * H               6     -0.00000             -0.00000              0.00000         *
 * H               7     -0.00000             -0.00000             -0.00000         *
 * H               8     -0.00000              0.00000              0.00000         *
 *                                                                                  *
 ************************************************************************************

 *********** Symmetrised Stress Tensor ***********
 *                                               *
 *          Cartesian components (GPa)           *
 * --------------------------------------------- *
 *             x             y             z     *
 *                                               *
 *  x   -120.000001      0.000000      0.000000  *
 *  y      0.000000   -120.000001      0.000000  *
 *  z      0.000000      0.000000   -119.999998  *
 *                                               *
 *  Pressure:  120.0000                          *
 *                                               *
 *************************************************
  
 +------------+-------------+-------------+-----------------+ <-- min LBFGS
 |    Step    |   lambda    |   F.delta'  |    enthalpy     | <-- min LBFGS
 +------------+-------------+-------------+-----------------+ <-- min LBFGS
 |  previous  |    0.000000 |  1.118E-007 |     -107.330509 | <-- min LBFGS
 | trial step |    1.000000 |  4.015E-008 |     -107.330509 | <-- min LBFGS
 +------------+-------------+-------------+-----------------+ <-- min LBFGS
  
 LBFGS: finished iteration    15 with enthalpy= -1.07330509E+002 eV
  
 +-----------+-----------------+-----------------+------------+-----+ <-- LBFGS
 | Parameter |      value      |    tolerance    |    units   | OK? | <-- LBFGS
 +-----------+-----------------+-----------------+------------+-----+ <-- LBFGS
 |  dE/ion   |   1.525641E-013 |   1.000000E-009 |         eV | Yes | <-- LBFGS
 |  |F|max   |   2.185288E-007 |   1.000000E-005 |       eV/A | Yes | <-- LBFGS
 |  |dR|max  |   5.228222E-007 |   1.000000E-005 |          A | Yes | <-- LBFGS
 |   Smax    |   1.550709E-006 |   1.000000E-005 |        GPa | Yes | <-- LBFGS
 +-----------+-----------------+-----------------+------------+-----+ <-- LBFGS
  
 LBFGS: Geometry optimization completed successfully.

================================================================================
 LBFGS: Final Configuration:
================================================================================

                           -------------------------------
                                      Unit Cell
                           -------------------------------
        Real Lattice(A)              Reciprocal Lattice(1/A)
     3.1842565     0.0000000     0.0000000        1.973203268   0.000000000   0.000000000
     0.0000000     1.8507629     0.0000000        0.000000000   3.394916376   0.000000000
     0.0000000     0.0000000     2.9212082        0.000000000   0.000000000   2.150885824

                       Lattice parameters(A)       Cell Angles
                    a =      3.184256          alpha =   90.000000
                    b =      1.850763          beta  =   90.000000
                    c =      2.921208          gamma =   90.000000

                Current cell volume =            17.215567 A**3

                           -------------------------------
                                     Cell Contents
                           -------------------------------

            xxxxxxxxxxxxxxxxxxxxxxxxxxxxxxxxxxxxxxxxxxxxxxxxxxxxxxxxxxxxxxxxx
            x  Element         Atom        Fractional coordinates of atoms  x
            x                 Number           u          v          w      x
            x---------------------------------------------------------------x
            x  H                 1         0.346468   0.126117   0.377857   x
            x  H                 2         0.487638   0.369266   0.501043   x
            x  H                 3         0.987638   0.630734   0.501043   x
            x  H                 4         0.846468   0.873883   0.377857   x
            x  H                 5         0.012362   0.369266   0.001043   x
            x  H                 6         0.153532   0.126117   0.877857   x
            x  H                 7         0.512362   0.630734   0.001043   x
            x  H                 8         0.653532   0.873883   0.877857   x
            xxxxxxxxxxxxxxxxxxxxxxxxxxxxxxxxxxxxxxxxxxxxxxxxxxxxxxxxxxxxxxxxx


 LBFGS: Final Enthalpy     = -1.07330509E+002 eV
 LBFGS: Final <frequency>  =    1365.56197 cm-1
 LBFGS: Final bulk modulus =     303.32365 GPa

 ******************************** Symmetrised Forces ********************************
 *                                                                                  *
 *                           Cartesian components (eV/A)                            *
 * -------------------------------------------------------------------------------- *
 *                         x                    y                    z              *
 *                                                                                  *
 * H               1      0.00000             -0.00000              0.00000         *
 * H               2      0.00000              0.00000             -0.00000         *
 * H               3      0.00000             -0.00000             -0.00000         *
 * H               4      0.00000              0.00000              0.00000         *
 * H               5     -0.00000              0.00000             -0.00000         *
 * H               6     -0.00000             -0.00000              0.00000         *
 * H               7     -0.00000             -0.00000             -0.00000         *
 * H               8     -0.00000              0.00000              0.00000         *
 *                                                                                  *
 ************************************************************************************

 *********** Symmetrised Stress Tensor ***********
 *                                               *
 *          Cartesian components (GPa)           *
 * --------------------------------------------- *
 *             x             y             z     *
 *                                               *
 *  x   -120.000001      0.000000      0.000000  *
 *  y      0.000000   -120.000001      0.000000  *
 *  z      0.000000      0.000000   -119.999998  *
 *                                               *
 *  Pressure:  120.0000                          *
 *                                               *
 *************************************************

 Pseudo atomic calculation performed for H 1s1

 Converged in 24 iterations to a total energy of -12.4855 eV

Charge spilling parameter for spin component 1 = 0.55%

            Orbital Populations       
     Ion    Atom   Orbital             Charge
  -------------------------------------------
      H     1      S                    0.997
      H     2      S                    1.002
      H     3      S                    0.998
      H     4      S                    1.003
      H     5      S                    0.997
      H     6      S                    1.003
      H     7      S                    1.004
      H     8      S                    0.997
  -------------------------------------------
                           Total:       8.000
  -------------------------------------------

     Atomic Populations (Mulliken)
     -----------------------------
Species          Ion     s      p      d      f     Total  Charge (e)
=====================================================================
  H               1     1.00   0.00   0.00   0.00   1.00     0.00
  H               2     1.00   0.00   0.00   0.00   1.00    -0.00
  H               3     1.00   0.00   0.00   0.00   1.00    -0.00
  H               4     1.00   0.00   0.00   0.00   1.00     0.00
  H               5     1.00   0.00   0.00   0.00   1.00    -0.00
  H               6     1.00   0.00   0.00   0.00   1.00     0.00
  H               7     1.00   0.00   0.00   0.00   1.00    -0.00
  H               8     1.00   0.00   0.00   0.00   1.00     0.00
=====================================================================

                 Bond                   Population      Length (A)
======================================================================
               H 7 -- H 8                    1.48        0.73080
               H 3 -- H 4                    1.48        0.73080
               H 5 -- H 6                    1.48        0.73080
               H 1 -- H 2                    1.48        0.73080
               H 5 -- H 8                   -0.27        1.50852
               H 2 -- H 4                   -0.27        1.50852
               H 1 -- H 3                   -0.27        1.50852
               H 6 -- H 7                   -0.27        1.50852
               H 4 -- H 5                   -0.32        1.52686
               H 1 -- H 7                   -0.32        1.52686
               H 2 -- H 8                   -0.32        1.52686
               H 3 -- H 6                   -0.32        1.52686
               H 3 -- H 5                   -0.27        1.54069
               H 2 -- H 7                   -0.27        1.54069
               H 1 -- H 6                   -0.06        1.58455
               H 4 -- H 8                   -0.06        1.58455
               H 1 -- H 5                   -0.17        1.59562
               H 4 -- H 7                   -0.17        1.59562
               H 3 -- H 8                   -0.17        1.59562
               H 2 -- H 6                   -0.17        1.59562
               H 1 -- H 4                   -0.46        1.65916
               H 6 -- H 8                   -0.46        1.65916
               H 5 -- H 7                   -0.28        1.66405
               H 2 -- H 3                   -0.28        1.66405
               H 4 -- H 6                   -0.45        1.81861
               H 1 -- H 8                   -0.45        1.81861
======================================================================


Writing analysis data to Pca21.castep_bin

Writing model to Pca21.check
 
 A BibTeX formatted list of references used in this run has been written to 
 Pca21.bib
 
Initialisation time =      3.15 s
Calculation time    =    316.92 s
Finalisation time   =      2.12 s
Total time          =    322.19 s
Peak Memory Use     = 538112 kB
  
Overall parallel efficiency rating: Good (78%)                                  
  
Data was distributed by:-
k-point (32-way); efficiency rating: Good (78%)                                 
  
Parallel notes:
1) Calculation only took 320.1 s, so efficiency estimates may be inaccurate.    
