 +-------------------------------------------------+
 |                                                 |
 |      CCC   AA    SSS  TTTTT  EEEEE  PPPP        |
 |     C     A  A  S       T    E      P   P       |
 |     C     AAAA   SS     T    EEE    PPPP        |
 |     C     A  A     S    T    E      P           |
 |      CCC  A  A  SSS     T    EEEEE  P           |
 |                                                 |
 +-------------------------------------------------+
 |                                                 |
 | Welcome to Academic Release CASTEP version 18.1 |          
 | Ab Initio Total Energy Program                  |
 |                                                 |
 | Authors:                                        |
 | M. Segall, M. Probert, C. Pickard, P. Hasnip,   |
 | S. Clark, K. Refson, J. R. Yates, M. Payne      |
 |                                                 |
 | Contributors:                                   |
 | P. Lindan, P. Haynes, J. White, V. Milman,      |
 | N. Govind, M. Gibson, P. Tulip, V. Cocula,      |
 | B. Montanari, D. Quigley, M. Glover,            |
 | L. Bernasconi, A. Perlov, M. Plummer,           |
 | E. McNellis, J. Meyer, J. Gale, D. Jochym       |
 | J. Aarons, B. Walker, R. Gillen, D. Jones       |
 | T. Green, I. J. Bush, C. J. Armstrong,          |
 | E. J. Higgins, E. L. Brown, M. S. McFly,        |
 | J. Wilkins, B-C. Shih, P. J. P. Byrne           |
 |                                                 |
 | Copyright (c) 2000 - 2017                       |
 |                                                 |
 |     Distributed under the terms of an           |
 |     Agreement between the United Kingdom        |
 |     Car-Parrinello (UKCP) Consortium,           |
 |     Daresbury Laboratory and Accelrys, Inc.     |
 |                                                 |
 | Please cite                                     |
 |                                                 |
 |     "First principles methods using CASTEP"     |
 |                                                 |
 |         Zeitschrift fuer Kristallographie       |
 |           220(5-6) pp. 567-570 (2005)           |
 |                                                 |
 | S. J. Clark, M. D. Segall, C. J. Pickard,       |
 | P. J. Hasnip, M. J. Probert, K. Refson,         |
 | M. C. Payne                                     |
 |                                                 |
 |       in all publications arising from          |
 |              your use of CASTEP                 |
 |                                                 |
 +-------------------------------------------------+


 Compiled for linux_x86_64_gfortran4.8 on Thu, 19 Jul 2018 15:42:32 +0100
 from code version 70483bd0ad64+  Sun, 10 Dec 2017 12:18:29 +0000
 Compiler: GNU Fortran 4.8.5; Optimisation: fast
 MATHLIBS: Intel MKL(2018.0.0) (LAPACK version 3.7.0)
 FFT Lib : mkl
 Fundamental constants values: CODATA 2014

 Run started: Wed, 15 Jul 2020 15:01:54 +0100
 +-------------------------------------------------+
 |                                                 |
 |  D D D D    F F F F F  P P P P     T T T T T    |
 |  D       D  F          P       P       T        |
 |  D       D  F F F F    P P P P         T        |
 |  D       D  F          P               T        |
 |  D D D D    F          P               T        |
 |                                                 |
 +-------------------------------------------------+
 |                                                 |
 | Welcome to Castep Linear Response (DFPT)        |
 |                                                 |
 | Copyright (c) 2006 - 2017                       |
 |                                                 |
 | Please cite the following publications in all   |
 | work arising from your use of CASTEP LR.        |
 |                                                 |
 | K. Refson, S. J. Clark and P. R. Tulip          |
 | Variational density functional perturbation     |
 | theory for dielectrics and lattice dynamics     |
 | Phys. Rev. B 73(15), 155114 (2006)              |
 +-------------------------------------------------+


 Atomic calculation performed for H: 1s1

 Converged in 41 iterations to an ae energy of -12.488 eV

   ============================================================                
   | Pseudopotential Report - Date of generation 15-07-2020   |                
   ------------------------------------------------------------                
   | Element: H Ionic charge:  1.00 Level of theory: PBE      |                
   | Atomic Solver: Koelling-Harmon                           |                
   |                                                          |                
   |               Reference Electronic Structure             |                
   |         Orbital         Occupation         Energy        |                
   |            1s              1.000           -0.239        |                
   |                                                          |                
   |                 Pseudopotential Definition               |                
   |        Beta     l      e      Rc     scheme   norm       |                
   |         loc     0   -0.239   0.702     qc      1         |                
   |                                                          |                
   | No charge augmentation                                   |                
   | No partial core correction                               |                
   ------------------------------------------------------------                
   | "0|0.7|2|6|8|10L(qc=10)"                                 |                
   ------------------------------------------------------------                
   |      Author: Chris J. Pickard, Cambridge University      |                
   ============================================================                

 Pseudo atomic calculation performed for H 1s1

 Converged in 24 iterations to a total energy of -12.4850 eV

 Calculation parallelised over 16 processes.
 Data is distributed by G-vector(4-way) and k-point(4-way)

 ************************************ Title ************************************
 

 ***************************** General Parameters ******************************
  
 output verbosity                               : normal  (1)
 write checkpoint data to                       : Pca21_30GPa.check
 type of calculation                            : phonon calculation
 stress calculation                             : off
 density difference calculation                 : off
 electron localisation func (ELF) calculation   : off
 Hirshfeld analysis                             : off
 unlimited duration calculation
 timing information                             : on
 memory usage estimate                          : on
 write extra output files                       : on
 write final potential to formatted file        : off
 write final density to formatted file          : off
 write structure in CELL formatted file         : on
 write BibTeX reference list                    : on
 write OTFG pseudopotential files               : on
 write electrostatic potential file             : on
 write bands file                               : on
 checkpoint writing                             : both castep_bin and check files
  
 output         length unit                     : A
 output           mass unit                     : amu
 output           time unit                     : ps
 output         charge unit                     : e
 output           spin unit                     : hbar/2
 output         energy unit                     : eV
 output          force unit                     : eV/A
 output       velocity unit                     : A/ps
 output       pressure unit                     : GPa
 output     inv_length unit                     : 1/A
 output      frequency unit                     : cm-1
 output force constant unit                     : eV/A**2
 output         volume unit                     : A**3
 output   IR intensity unit                     : (D/A)**2/amu
 output         dipole unit                     : D
 output         efield unit                     : eV/A/e
 output        entropy unit                     : J/mol/K
  
 wavefunctions paging                           : none
 random number generator seed                   : randomised (150154934)
 data distribution                              : optimal for this architecture
 optimization strategy                          : maximize speed(+++)

 *********************** Exchange-Correlation Parameters ***********************
  
 using functional                               : Perdew Burke Ernzerhof
 relativistic treatment                         : Koelling-Harmon
 DFT+D: Semi-empirical dispersion correction    : off

 ************************* Pseudopotential Parameters **************************
  
 pseudopotential representation                 : reciprocal space
 <beta|phi> representation                      : reciprocal space
 spin-orbit coupling                            : off

 **************************** Basis Set Parameters *****************************
  
 plane wave basis set cut-off                   :  1300.0000   eV
 size of standard grid                          :     2.0000
 size of   fine   gmax                          :    36.9437   1/A
 finite basis set correction                    : none

 **************************** Electronic Parameters ****************************
  
 number of  electrons                           :  8.000    
 net charge of system                           :  0.000    
 treating system as non-spin-polarized
 number of bands                                :          4

 ********************* Electronic Minimization Parameters **********************
  
 Method: Treating system as non-metallic,
         and number of  SD  steps               :          1
         and number of  CG  steps               :          4
  
 total energy / atom convergence tol.           : 0.1000E-10   eV
 eigen-energy convergence tolerance             : 0.2000E-10   eV
 max force / atom convergence tol.              : ignored
 convergence tolerance window                   :          3   cycles
 max. number of SCF cycles                      :        100
 periodic dipole correction                     : NONE

 ************************** Density Mixing Parameters **************************
  
 density-mixing scheme                          : Broyden
 max. length of mixing history                  :         20
 charge density mixing amplitude                : 0.8000    
 cut-off energy for mixing                      :  1300.       eV

 *********************** Population Analysis Parameters ************************
  
 Population analysis with cutoff                :  3.000       A
 Population analysis output                     : summary and pdos components

 ****************************** Phonon Parameters ******************************
  
 phonon calculation method                      : linear response
 phonon convergence tolerance                   : 0.1000E-04   eV/A**2
 max. number of phonon cycles                   :         50
 max. number of phonon CG steps                 :          0
 convergence tolerance window                   :          2   cycles
 DFPT solver method                             : AllBands (Gonze variational method)
 preconditioning scheme                         : TPA     
 fine phonon calculation method                 : interpolation
 non-periodic force constant method             : Weighted cumulant sum
 LO/TO splitting term                           : included
 acoustic phonon sum rule                       : correct D(q) in recip-space
 Born effective charges                         : calculated
 Born charge sum rule                           : explicitly enforced
 Raman intensities                              : calculated
 Raman frequency window start                   :  0.000       eV
 Raman frequency window stop                    :  1.000       eV
 Raman tensor calculated using                  : finite displacement method
 phonon k-points                                : use reduced set
 phonon DOS                                     : not calculated
 backups results every                          :      14400   seconds
 band convergence tolerance                     : 0.1000E-08   eV

 *******************************************************************************
  

                           -------------------------------
                                      Unit Cell
                           -------------------------------
        Real Lattice(A)                      Reciprocal Lattice(1/A)
     3.7626858     0.0000000     0.0000000        1.669867131   0.000000000   0.000000000
     0.0000000     2.1851138     0.0000000        0.000000000   2.875449983   0.000000000
     0.0000000     0.0000000     3.5066925        0.000000000   0.000000000   1.791769678

                       Lattice parameters(A)       Cell Angles
                    a =      3.762686          alpha =   90.000000
                    b =      2.185114          beta  =   90.000000
                    c =      3.506693          gamma =   90.000000

                       Current cell volume =            28.831663       A**3
                                   density =             0.279676   AMU/A**3
                                           =             0.464413     g/cm^3

                           -------------------------------
                                     Cell Contents
                           -------------------------------
                         Total number of ions in cell =    8
                      Total number of species in cell =    1
                        Max number of any one species =    8

            xxxxxxxxxxxxxxxxxxxxxxxxxxxxxxxxxxxxxxxxxxxxxxxxxxxxxxxxxxxx
            x  Element    Atom        Fractional coordinates of atoms  x
            x            Number           u          v          w      x
            x----------------------------------------------------------x
            x  H            1         0.359974   0.148943   0.381613   x 
            x  H            2         0.472752   0.354738   0.497287   x 
            x  H            3         0.972752   0.645262   0.497287   x 
            x  H            4         0.859974   0.851057   0.381613   x 
            x  H            5         0.027248   0.354738  -0.002713   x 
            x  H            6         0.140026   0.148943   0.881613   x 
            x  H            7         0.527248   0.645262  -0.002713   x 
            x  H            8         0.640026   0.851057   0.881613   x 
            xxxxxxxxxxxxxxxxxxxxxxxxxxxxxxxxxxxxxxxxxxxxxxxxxxxxxxxxxxxx


                         No user defined ionic velocities

                           -------------------------------
                                   Details of Species
                           -------------------------------

                               Mass of species in AMU
                                    H    1.0078250

                          Electric Quadrupole Moment (Barn)
                                    H    0.0028600 Isotope  2

                          Files used for pseudopotentials:
                                    H 0|0.7|2|6|8|10L(qc=10)

                           -------------------------------
                              k-Points For BZ Sampling
                           -------------------------------
                       MP grid size for SCF calculation is  7 13  9
                            with an offset of   0.000  0.000  0.000
                       Number of kpoints used =           140

                           -------------------------------
                               Symmetry and Constraints
                           -------------------------------

                      Maximum deviation from symmetry = 0.428186E-14     ANG

                      Number of symmetry operations   =           4
                      Number of ionic constraints     =           3
                      Point group of crystal =     6: C2v, mm2, 2 mm
                      Space group of crystal =    29: Pca2_1, P 2c -2ac

             Set iprint > 1 for details on symmetry rotations/translations

                         Centre of mass is constrained
             Set iprint > 1 for details of linear ionic constraints

                         Number of cell constraints= 3
                         Cell constraints are:  1 2 3 0 0 0

                         External pressure/stress (GPa)
                         30.00000   0.00000   0.00000
                                   30.00000   0.00000
                                             30.00000
  
+---------------- MEMORY AND SCRATCH DISK ESTIMATES PER PROCESS --------------+
|                                                     Memory          Disk    |
| Baseline code, static data and system overhead      411.0 MB         0.0 MB |
| BLAS internal memory storage                          0.0 MB         0.0 MB |
| Model and support data                               10.9 MB         0.0 MB |
| Electronic energy minimisation requirements           6.8 MB         0.0 MB |
| Force calculation requirements                        2.3 MB         0.0 MB |
|                                               ----------------------------- |
| Approx. total storage required per process          428.6 MB         0.0 MB |
|                                                                             |
| Requirements will fluctuate during execution and may exceed these estimates |
+-----------------------------------------------------------------------------+
Calculating total energy with cut-off of 1300.000 eV.
------------------------------------------------------------------------ <-- SCF
SCF loop      Energy                           Energy gain       Timer   <-- SCF
                                               per atom          (sec)   <-- SCF
------------------------------------------------------------------------ <-- SCF
Initial   2.13851990E+002                                          2.70  <-- SCF
      1  -9.82318745E+001                    3.90104830E+001       4.56  <-- SCF
      2  -1.25578508E+002                    3.41832915E+000       5.90  <-- SCF
      3  -1.25735167E+002                    1.95823701E-002       6.93  <-- SCF
      4  -1.24746516E+002                   -1.23581387E-001       8.70  <-- SCF
      5  -1.24719835E+002                   -3.33503905E-003      10.53  <-- SCF
      6  -1.24721800E+002                    2.45570525E-004      12.29  <-- SCF
      7  -1.24722042E+002                    3.02782838E-005      14.04  <-- SCF
      8  -1.24722043E+002                    1.24525581E-007      15.81  <-- SCF
      9  -1.24722043E+002                    1.39974424E-008      17.57  <-- SCF
     10  -1.24722043E+002                   -4.70078606E-012      18.79  <-- SCF
     11  -1.24722043E+002                    8.54056695E-012      19.98  <-- SCF
------------------------------------------------------------------------ <-- SCF
 
Final energy =  -124.7220431672     eV
(energy not corrected for finite basis set)
 

Writing analysis data to Pca21_30GPa.castep_bin

Writing model to Pca21_30GPa.check

 ************************** Forces **************************
 *                                                          *
 *               Cartesian components (eV/A)                *
 * -------------------------------------------------------- *
 *                         x            y            z      *
 *                                                          *
 * H               1      0.00000      0.00000      0.00000 *
 * H               2     -0.00000     -0.00000     -0.00000 *
 * H               3     -0.00000      0.00000     -0.00000 *
 * H               4      0.00000     -0.00000      0.00000 *
 * H               5      0.00000     -0.00000     -0.00000 *
 * H               6     -0.00000      0.00000      0.00000 *
 * H               7      0.00000      0.00000     -0.00000 *
 * H               8     -0.00000     -0.00000      0.00000 *
 *                                                          *
 ************************************************************
 ???????????????????????????????????????????????????????????????????????????????? 
 ?                                                                              ? 
 ?     WARNING in PHONON calculation:  Prerequisite GEOMETRY OPTIMISATION       ? 
 ?     has not been performed or is not converged to sufficient accuracy.       ? 
 ?                                                                              ? 
 ?        Maximum force |F|max     = 0.1269E-05 eV/A                            ? 
 ?        Parameter GEOM_FORCE_TOL = 0.1000E-05 eV/A                            ? 
 ?                                                                              ? 
 ?   This could be because of any of the following                              ? 
 ?     (a) No geometry optimisation was performed                               ? 
 ?     (b) A geometry optimisation failed to converge                           ? 
 ?     (c) An error was made copying the optimised geometry to this .cell file  ? 
 ?     (d) Cutoff, k-point sampling or other convergence parameter differ       ? 
 ?         from the geometry optimisation run to this one.                      ? 
 ?   Please check your input parameters and if necessary run or re-run a        ? 
 ?   geometry optimisation calculation.                                         ? 
 ?                                                                              ? 
 ?   Typically a force tolerance convergence of 0.025 eV/A is necessary to      ? 
 ?   obtain well converged phonon frequencies althout a smaller value can be    ? 
 ?   required in the presence of weak forces, e.g. in molecular crystals        ? 
 ?                                                                              ? 
 ???????????????????????????????????????????????????????????????????????????????? 

 Efield perturbation    1:  X                                            23.59s
  Parallel strategy changed for perturbation using 224 k-points
  Data is distributed by G-vector(1-way) and k-point(16-way) and band(1-way)
  +---------------- MEMORY AND SCRATCH DISK ESTIMATES PER PROCESS --------------+
  |                                                     Memory          Disk    |
  | Baseline code, static data and system overhead      411.0 MB         0.0 MB |
  | BLAS internal memory storage                          0.0 MB         0.0 MB |
  | Model and support data                               10.9 MB         0.0 MB |
  | DFPT E-field response requirements                   23.5 MB         0.0 MB |
  |                                               ----------------------------- |
  | Approx. total storage required per process          445.4 MB         0.0 MB |
  |                                                                             |
  | Requirements will fluctuate during execution and may exceed these estimates |
  +-----------------------------------------------------------------------------+

 Efield perturbation    2:  Y                                            64.86s
  Parallel strategy changed for perturbation using 236 k-points
  Data is distributed by G-vector(1-way) and k-point(16-way) and band(1-way)
  +---------------- MEMORY AND SCRATCH DISK ESTIMATES PER PROCESS --------------+
  |                                                     Memory          Disk    |
  | Baseline code, static data and system overhead      411.0 MB         0.0 MB |
  | BLAS internal memory storage                          0.0 MB         0.0 MB |
  | Model and support data                               10.9 MB         0.0 MB |
  | DFPT E-field response requirements                   24.8 MB         0.0 MB |
  |                                               ----------------------------- |
  | Approx. total storage required per process          446.7 MB         0.0 MB |
  |                                                                             |
  | Requirements will fluctuate during execution and may exceed these estimates |
  +-----------------------------------------------------------------------------+

 Efield perturbation    3:  Z                                           102.04s
  Parallel strategy changed for perturbation using 140 k-points
  Data is distributed by G-vector(4-way) and k-point(4-way) and band(1-way)
 Perturbation    1 (of    6): H     1 X at q=( 0.000, 0.000, 0.000):    145.46s
  Parallel strategy changed for perturbation using 410 k-points
  Data is distributed by G-vector(1-way) and k-point(16-way) and band(1-way)
  +---------------- MEMORY AND SCRATCH DISK ESTIMATES PER PROCESS --------------+
  |                                                     Memory          Disk    |
  | Baseline code, static data and system overhead      411.0 MB         0.0 MB |
  | BLAS internal memory storage                          0.0 MB         0.0 MB |
  | Model and support data                               10.9 MB         0.0 MB |
  | DFPT phonon calculation requirements                 54.1 MB         0.0 MB |
  |                                               ----------------------------- |
  | Approx. total storage required per process          476.0 MB         0.0 MB |
  |                                                                             |
  | Requirements will fluctuate during execution and may exceed these estimates |
  +-----------------------------------------------------------------------------+
 Perturbation    2 (of    6): H     2 X at q=( 0.000, 0.000, 0.000):    205.17s
 Perturbation    3 (of    6): H     1 Y at q=( 0.000, 0.000, 0.000):    260.91s
 Perturbation    4 (of    6): H     2 Y at q=( 0.000, 0.000, 0.000):    314.08s
 Perturbation    5 (of    6): H     1 Z at q=( 0.000, 0.000, 0.000):    367.59s
 Perturbation    6 (of    6): H     2 Z at q=( 0.000, 0.000, 0.000):    425.26s

 Phonon calculation: q-point   1 (of    1) ( 0.000, 0.000, 0.000):      479.00s
 -------------------------------------------------------------------------------
 
 ==============================================================================
 +                           Vibrational Frequencies                          +
 +                           -----------------------                          +
 +                                                                            +
 + Performing frequency calculation at  1 wavevector  (q-pt )                 +
 + ========================================================================== +
 +                                                                            +
 +============================================================================+
 +                       Raman Intensity Progress Report                      +
 +----------------------------------------------------------------------------+
 + RAMAN: Not a continuation; generating Raman intensities from beginning     +
 +----------------------------------------------------------------------------+
 + Mode     1: not Raman active; calculation not required                     +
 + Mode     2: not Raman active; calculation not required                     +
 + Mode     3: not Raman active; calculation not required                     +
 + Mode     4: performing Raman intensity calculation                         +

 Efield perturbation    1:  X                                           509.68s
  Parallel strategy changed for perturbation using 410 k-points
  Data is distributed by G-vector(1-way) and k-point(16-way) and band(1-way)

 Efield perturbation    2:  Y                                           560.69s
  Parallel strategy changed for perturbation using 236 k-points
  Data is distributed by G-vector(4-way) and k-point(4-way) and band(1-way)

 Efield perturbation    3:  Z                                           622.47s

 Efield perturbation    1:  X                                           697.56s
  Parallel strategy changed for perturbation using 410 k-points
  Data is distributed by G-vector(1-way) and k-point(16-way) and band(1-way)

 Efield perturbation    2:  Y                                           751.66s
  Parallel strategy changed for perturbation using 236 k-points
  Data is distributed by G-vector(4-way) and k-point(4-way) and band(1-way)

 Efield perturbation    3:  Z                                           819.39s
 + Mode number:   4 completed;                   time taken:   385.36 seconds +
 + Mode     5: performing Raman intensity calculation                         +

 Efield perturbation    1:  X                                           884.74s
  Parallel strategy changed for perturbation using 224 k-points
  Data is distributed by G-vector(1-way) and k-point(16-way) and band(1-way)

 Efield perturbation    2:  Y                                           925.36s
  Parallel strategy changed for perturbation using 236 k-points
  Data is distributed by G-vector(1-way) and k-point(16-way) and band(1-way)

 Efield perturbation    3:  Z                                           960.96s
  Parallel strategy changed for perturbation using 140 k-points
  Data is distributed by G-vector(4-way) and k-point(4-way) and band(1-way)

 Efield perturbation    1:  X                                          1013.56s
  Parallel strategy changed for perturbation using 224 k-points
  Data is distributed by G-vector(1-way) and k-point(16-way) and band(1-way)

 Efield perturbation    2:  Y                                          1050.23s
  Parallel strategy changed for perturbation using 236 k-points
  Data is distributed by G-vector(1-way) and k-point(16-way) and band(1-way)

 Efield perturbation    3:  Z                                          1079.38s
  Parallel strategy changed for perturbation using 140 k-points
  Data is distributed by G-vector(4-way) and k-point(4-way) and band(1-way)
 + Mode number:   5 completed;                   time taken:   247.12 seconds +
 + Mode     6: performing Raman intensity calculation                         +

 Efield perturbation    1:  X                                          1143.19s
  Parallel strategy changed for perturbation using 410 k-points
  Data is distributed by G-vector(1-way) and k-point(16-way) and band(1-way)

 Efield perturbation    2:  Y                                          1197.51s

 Efield perturbation    3:  Z                                          1224.48s
  Parallel strategy changed for perturbation using 230 k-points
  Data is distributed by G-vector(8-way) and k-point(2-way) and band(1-way)

 Efield perturbation    1:  X                                          1310.97s
  Parallel strategy changed for perturbation using 410 k-points
  Data is distributed by G-vector(1-way) and k-point(16-way) and band(1-way)

 Efield perturbation    2:  Y                                          1365.16s

 Efield perturbation    3:  Z                                          1390.71s
  Parallel strategy changed for perturbation using 230 k-points
  Data is distributed by G-vector(8-way) and k-point(2-way) and band(1-way)
 + Mode number:   6 completed;                   time taken:   329.30 seconds +
 + Mode     7: performing Raman intensity calculation                         +

 Efield perturbation    1:  X                                          1455.31s
  Parallel strategy changed for perturbation using 224 k-points
  Data is distributed by G-vector(1-way) and k-point(16-way) and band(1-way)

 Efield perturbation    2:  Y                                          1483.68s
  Parallel strategy changed for perturbation using 236 k-points
  Data is distributed by G-vector(1-way) and k-point(16-way) and band(1-way)

 Efield perturbation    3:  Z                                          1511.53s
  Parallel strategy changed for perturbation using 140 k-points
  Data is distributed by G-vector(4-way) and k-point(4-way) and band(1-way)

 Efield perturbation    1:  X                                          1557.42s
  Parallel strategy changed for perturbation using 224 k-points
  Data is distributed by G-vector(1-way) and k-point(16-way) and band(1-way)

 Efield perturbation    2:  Y                                          1586.41s
  Parallel strategy changed for perturbation using 236 k-points
  Data is distributed by G-vector(1-way) and k-point(16-way) and band(1-way)

 Efield perturbation    3:  Z                                          1611.86s
  Parallel strategy changed for perturbation using 140 k-points
  Data is distributed by G-vector(4-way) and k-point(4-way) and band(1-way)
 + Mode number:   7 completed;                   time taken:   203.64 seconds +
 + Mode     8: performing Raman intensity calculation                         +

 Efield perturbation    1:  X                                          1660.26s

 Efield perturbation    2:  Y                                          1697.83s
  Parallel strategy changed for perturbation using 410 k-points
  Data is distributed by G-vector(1-way) and k-point(16-way) and band(1-way)

 Efield perturbation    3:  Z                                          1734.60s
  Parallel strategy changed for perturbation using 224 k-points
  Data is distributed by G-vector(1-way) and k-point(16-way) and band(1-way)

 Efield perturbation    1:  X                                          1779.54s

 Efield perturbation    2:  Y                                          1815.93s
  Parallel strategy changed for perturbation using 410 k-points
  Data is distributed by G-vector(1-way) and k-point(16-way) and band(1-way)

 Efield perturbation    3:  Z                                          1851.55s
  Parallel strategy changed for perturbation using 224 k-points
  Data is distributed by G-vector(1-way) and k-point(16-way) and band(1-way)
 + Mode number:   8 completed;                   time taken:   236.56 seconds +
 + Mode     9: performing Raman intensity calculation                         +

 Efield perturbation    1:  X                                          1909.55s
  Parallel strategy changed for perturbation using 410 k-points
  Data is distributed by G-vector(1-way) and k-point(16-way) and band(1-way)

 Efield perturbation    2:  Y                                          1964.27s

 Efield perturbation    3:  Z                                          1990.68s
  Parallel strategy changed for perturbation using 230 k-points
  Data is distributed by G-vector(8-way) and k-point(2-way) and band(1-way)

 Efield perturbation    1:  X                                          2070.80s
  Parallel strategy changed for perturbation using 410 k-points
  Data is distributed by G-vector(1-way) and k-point(16-way) and band(1-way)

 Efield perturbation    2:  Y                                          2125.06s

 Efield perturbation    3:  Z                                          2151.15s
  Parallel strategy changed for perturbation using 230 k-points
  Data is distributed by G-vector(8-way) and k-point(2-way) and band(1-way)
 + Mode number:   9 completed;                   time taken:   325.68 seconds +
 + Mode    10: performing Raman intensity calculation                         +

 Efield perturbation    1:  X                                          2222.61s

 Efield perturbation    2:  Y                                          2259.18s
  Parallel strategy changed for perturbation using 410 k-points
  Data is distributed by G-vector(1-way) and k-point(16-way) and band(1-way)

 Efield perturbation    3:  Z                                          2294.82s
  Parallel strategy changed for perturbation using 224 k-points
  Data is distributed by G-vector(1-way) and k-point(16-way) and band(1-way)

 Efield perturbation    1:  X                                          2338.85s

 Efield perturbation    2:  Y                                          2376.41s
  Parallel strategy changed for perturbation using 410 k-points
  Data is distributed by G-vector(1-way) and k-point(16-way) and band(1-way)

 Efield perturbation    3:  Z                                          2412.95s
  Parallel strategy changed for perturbation using 224 k-points
  Data is distributed by G-vector(1-way) and k-point(16-way) and band(1-way)
 + Mode number:  10 completed;                   time taken:   236.02 seconds +
 + Mode    11: performing Raman intensity calculation                         +

 Efield perturbation    1:  X                                          2458.85s
  Parallel strategy changed for perturbation using 224 k-points
  Data is distributed by G-vector(1-way) and k-point(16-way) and band(1-way)

 Efield perturbation    2:  Y                                          2486.92s
  Parallel strategy changed for perturbation using 236 k-points
  Data is distributed by G-vector(1-way) and k-point(16-way) and band(1-way)

 Efield perturbation    3:  Z                                          2512.29s
  Parallel strategy changed for perturbation using 140 k-points
  Data is distributed by G-vector(4-way) and k-point(4-way) and band(1-way)

 Efield perturbation    1:  X                                          2562.60s
  Parallel strategy changed for perturbation using 224 k-points
  Data is distributed by G-vector(1-way) and k-point(16-way) and band(1-way)

 Efield perturbation    2:  Y                                          2590.78s
  Parallel strategy changed for perturbation using 236 k-points
  Data is distributed by G-vector(1-way) and k-point(16-way) and band(1-way)

 Efield perturbation    3:  Z                                          2616.62s
  Parallel strategy changed for perturbation using 140 k-points
  Data is distributed by G-vector(4-way) and k-point(4-way) and band(1-way)
 + Mode number:  11 completed;                   time taken:   206.67 seconds +
 + Mode    12: performing Raman intensity calculation                         +

 Efield perturbation    1:  X                                          2673.21s
  Parallel strategy changed for perturbation using 410 k-points
  Data is distributed by G-vector(1-way) and k-point(16-way) and band(1-way)

 Efield perturbation    2:  Y                                          2708.88s
  Parallel strategy changed for perturbation using 236 k-points
  Data is distributed by G-vector(4-way) and k-point(4-way) and band(1-way)

 Efield perturbation    3:  Z                                          2758.82s

 Efield perturbation    1:  X                                          2816.37s
  Parallel strategy changed for perturbation using 410 k-points
  Data is distributed by G-vector(1-way) and k-point(16-way) and band(1-way)

 Efield perturbation    2:  Y                                          2852.65s
  Parallel strategy changed for perturbation using 236 k-points
  Data is distributed by G-vector(4-way) and k-point(4-way) and band(1-way)

 Efield perturbation    3:  Z                                          2903.56s
 + Mode number:  12 completed;                   time taken:   288.31 seconds +
 + Mode    13: performing Raman intensity calculation                         +

 Efield perturbation    1:  X                                          2966.69s
  Parallel strategy changed for perturbation using 410 k-points
  Data is distributed by G-vector(1-way) and k-point(16-way) and band(1-way)

 Efield perturbation    2:  Y                                          3020.96s

 Efield perturbation    3:  Z                                          3047.36s
  Parallel strategy changed for perturbation using 230 k-points
  Data is distributed by G-vector(8-way) and k-point(2-way) and band(1-way)

 Efield perturbation    1:  X                                          3124.63s
  Parallel strategy changed for perturbation using 410 k-points
  Data is distributed by G-vector(1-way) and k-point(16-way) and band(1-way)

 Efield perturbation    2:  Y                                          3176.97s

 Efield perturbation    3:  Z                                          3202.43s
  Parallel strategy changed for perturbation using 230 k-points
  Data is distributed by G-vector(8-way) and k-point(2-way) and band(1-way)
 + Mode number:  13 completed;                   time taken:   315.75 seconds +
 + Mode    14: performing Raman intensity calculation                         +

 Efield perturbation    1:  X                                          3269.31s

 Efield perturbation    2:  Y                                          3306.96s
  Parallel strategy changed for perturbation using 410 k-points
  Data is distributed by G-vector(1-way) and k-point(16-way) and band(1-way)

 Efield perturbation    3:  Z                                          3343.25s
  Parallel strategy changed for perturbation using 224 k-points
  Data is distributed by G-vector(1-way) and k-point(16-way) and band(1-way)

 Efield perturbation    1:  X                                          3388.63s

 Efield perturbation    2:  Y                                          3425.99s
  Parallel strategy changed for perturbation using 410 k-points
  Data is distributed by G-vector(1-way) and k-point(16-way) and band(1-way)

 Efield perturbation    3:  Z                                          3462.35s
  Parallel strategy changed for perturbation using 224 k-points
  Data is distributed by G-vector(1-way) and k-point(16-way) and band(1-way)
 + Mode number:  14 completed;                   time taken:   238.54 seconds +
 + Mode    15: performing Raman intensity calculation                         +

 Efield perturbation    1:  X                                          3519.71s
  Parallel strategy changed for perturbation using 410 k-points
  Data is distributed by G-vector(1-way) and k-point(16-way) and band(1-way)

 Efield perturbation    2:  Y                                          3572.78s

 Efield perturbation    3:  Z                                          3598.45s
  Parallel strategy changed for perturbation using 230 k-points
  Data is distributed by G-vector(8-way) and k-point(2-way) and band(1-way)

 Efield perturbation    1:  X                                          3676.07s
  Parallel strategy changed for perturbation using 410 k-points
  Data is distributed by G-vector(1-way) and k-point(16-way) and band(1-way)

 Efield perturbation    2:  Y                                          3730.36s

 Efield perturbation    3:  Z                                          3756.84s
  Parallel strategy changed for perturbation using 230 k-points
  Data is distributed by G-vector(8-way) and k-point(2-way) and band(1-way)
 + Mode number:  15 completed;                   time taken:   312.92 seconds +
 + Mode    16: performing Raman intensity calculation                         +

 Efield perturbation    1:  X                                          3819.55s
  Parallel strategy changed for perturbation using 224 k-points
  Data is distributed by G-vector(1-way) and k-point(16-way) and band(1-way)

 Efield perturbation    2:  Y                                          3848.13s
  Parallel strategy changed for perturbation using 236 k-points
  Data is distributed by G-vector(1-way) and k-point(16-way) and band(1-way)

 Efield perturbation    3:  Z                                          3872.91s
  Parallel strategy changed for perturbation using 140 k-points
  Data is distributed by G-vector(4-way) and k-point(4-way) and band(1-way)

 Efield perturbation    1:  X                                          3917.76s
  Parallel strategy changed for perturbation using 224 k-points
  Data is distributed by G-vector(1-way) and k-point(16-way) and band(1-way)

 Efield perturbation    2:  Y                                          3944.85s
  Parallel strategy changed for perturbation using 236 k-points
  Data is distributed by G-vector(1-way) and k-point(16-way) and band(1-way)

 Efield perturbation    3:  Z                                          3970.34s
  Parallel strategy changed for perturbation using 140 k-points
  Data is distributed by G-vector(4-way) and k-point(4-way) and band(1-way)
 + Mode number:  16 completed;                   time taken:   197.06 seconds +
 + Mode    17: performing Raman intensity calculation                         +

 Efield perturbation    1:  X                                          4025.52s
  Parallel strategy changed for perturbation using 410 k-points
  Data is distributed by G-vector(1-way) and k-point(16-way) and band(1-way)

 Efield perturbation    2:  Y                                          4061.89s
  Parallel strategy changed for perturbation using 236 k-points
  Data is distributed by G-vector(4-way) and k-point(4-way) and band(1-way)

 Efield perturbation    3:  Z                                          4118.59s

 Efield perturbation    1:  X                                          4180.95s
  Parallel strategy changed for perturbation using 410 k-points
  Data is distributed by G-vector(1-way) and k-point(16-way) and band(1-way)

 Efield perturbation    2:  Y                                          4217.21s
  Parallel strategy changed for perturbation using 236 k-points
  Data is distributed by G-vector(4-way) and k-point(4-way) and band(1-way)

 Efield perturbation    3:  Z                                          4270.52s
 + Mode number:  17 completed;                   time taken:   305.62 seconds +
 + Mode    18: performing Raman intensity calculation                         +

 Efield perturbation    1:  X                                          4336.77s
  Parallel strategy changed for perturbation using 410 k-points
  Data is distributed by G-vector(1-way) and k-point(16-way) and band(1-way)

 Efield perturbation    2:  Y                                          4390.83s

 Efield perturbation    3:  Z                                          4417.27s
  Parallel strategy changed for perturbation using 230 k-points
  Data is distributed by G-vector(8-way) and k-point(2-way) and band(1-way)

 Efield perturbation    1:  X                                          4496.80s
  Parallel strategy changed for perturbation using 410 k-points
  Data is distributed by G-vector(1-way) and k-point(16-way) and band(1-way)

 Efield perturbation    2:  Y                                          4550.78s

 Efield perturbation    3:  Z                                          4576.63s
  Parallel strategy changed for perturbation using 230 k-points
  Data is distributed by G-vector(8-way) and k-point(2-way) and band(1-way)
 + Mode number:  18 completed;                   time taken:   316.79 seconds +
 + Mode    19: performing Raman intensity calculation                         +

 Efield perturbation    1:  X                                          4648.25s
  Parallel strategy changed for perturbation using 410 k-points
  Data is distributed by G-vector(1-way) and k-point(16-way) and band(1-way)

 Efield perturbation    2:  Y                                          4684.01s
  Parallel strategy changed for perturbation using 236 k-points
  Data is distributed by G-vector(4-way) and k-point(4-way) and band(1-way)

 Efield perturbation    3:  Z                                          4734.85s

 Efield perturbation    1:  X                                          4792.07s
  Parallel strategy changed for perturbation using 410 k-points
  Data is distributed by G-vector(1-way) and k-point(16-way) and band(1-way)

 Efield perturbation    2:  Y                                          4828.70s
  Parallel strategy changed for perturbation using 236 k-points
  Data is distributed by G-vector(4-way) and k-point(4-way) and band(1-way)

 Efield perturbation    3:  Z                                          4878.21s
 + Mode number:  19 completed;                   time taken:   289.21 seconds +
 + Mode    20: performing Raman intensity calculation                         +

 Efield perturbation    1:  X                                          4929.26s

 Efield perturbation    2:  Y                                          4965.76s
  Parallel strategy changed for perturbation using 410 k-points
  Data is distributed by G-vector(1-way) and k-point(16-way) and band(1-way)

 Efield perturbation    3:  Z                                          5001.66s
  Parallel strategy changed for perturbation using 224 k-points
  Data is distributed by G-vector(1-way) and k-point(16-way) and band(1-way)

 Efield perturbation    1:  X                                          5045.91s

 Efield perturbation    2:  Y                                          5083.36s
  Parallel strategy changed for perturbation using 410 k-points
  Data is distributed by G-vector(1-way) and k-point(16-way) and band(1-way)

 Efield perturbation    3:  Z                                          5120.31s
  Parallel strategy changed for perturbation using 224 k-points
  Data is distributed by G-vector(1-way) and k-point(16-way) and band(1-way)
 + Mode number:  20 completed;                   time taken:   236.37 seconds +
 + Mode    21: performing Raman intensity calculation                         +

 Efield perturbation    1:  X                                          5165.87s
  Parallel strategy changed for perturbation using 224 k-points
  Data is distributed by G-vector(1-way) and k-point(16-way) and band(1-way)

 Efield perturbation    2:  Y                                          5194.37s
  Parallel strategy changed for perturbation using 236 k-points
  Data is distributed by G-vector(1-way) and k-point(16-way) and band(1-way)

 Efield perturbation    3:  Z                                          5222.31s
  Parallel strategy changed for perturbation using 140 k-points
  Data is distributed by G-vector(4-way) and k-point(4-way) and band(1-way)

 Efield perturbation    1:  X                                          5271.49s
  Parallel strategy changed for perturbation using 224 k-points
  Data is distributed by G-vector(1-way) and k-point(16-way) and band(1-way)

 Efield perturbation    2:  Y                                          5299.86s
  Parallel strategy changed for perturbation using 236 k-points
  Data is distributed by G-vector(1-way) and k-point(16-way) and band(1-way)

 Efield perturbation    3:  Z                                          5324.65s
  Parallel strategy changed for perturbation using 140 k-points
  Data is distributed by G-vector(4-way) and k-point(4-way) and band(1-way)
 + Mode number:  21 completed;                   time taken:   205.10 seconds +
 + Mode    22: performing Raman intensity calculation                         +

 Efield perturbation    1:  X                                          5370.13s

 Efield perturbation    2:  Y                                          5406.44s
  Parallel strategy changed for perturbation using 410 k-points
  Data is distributed by G-vector(1-way) and k-point(16-way) and band(1-way)

 Efield perturbation    3:  Z                                          5442.52s
  Parallel strategy changed for perturbation using 224 k-points
  Data is distributed by G-vector(1-way) and k-point(16-way) and band(1-way)

 Efield perturbation    1:  X                                          5487.50s

 Efield perturbation    2:  Y                                          5524.81s
  Parallel strategy changed for perturbation using 410 k-points
  Data is distributed by G-vector(1-way) and k-point(16-way) and band(1-way)

 Efield perturbation    3:  Z                                          5561.35s
  Parallel strategy changed for perturbation using 224 k-points
  Data is distributed by G-vector(1-way) and k-point(16-way) and band(1-way)
 + Mode number:  22 completed;                   time taken:   236.25 seconds +
 + Mode    23: performing Raman intensity calculation                         +

 Efield perturbation    1:  X                                          5619.47s
  Parallel strategy changed for perturbation using 410 k-points
  Data is distributed by G-vector(1-way) and k-point(16-way) and band(1-way)

 Efield perturbation    2:  Y                                          5674.06s

 Efield perturbation    3:  Z                                          5700.80s
  Parallel strategy changed for perturbation using 230 k-points
  Data is distributed by G-vector(8-way) and k-point(2-way) and band(1-way)

 Efield perturbation    1:  X                                          5775.16s
  Parallel strategy changed for perturbation using 410 k-points
  Data is distributed by G-vector(1-way) and k-point(16-way) and band(1-way)

 Efield perturbation    2:  Y                                          5828.27s

 Efield perturbation    3:  Z                                          5854.64s
  Parallel strategy changed for perturbation using 230 k-points
  Data is distributed by G-vector(8-way) and k-point(2-way) and band(1-way)
 + Mode number:  23 completed;                   time taken:   311.87 seconds +
 + Mode    24: performing Raman intensity calculation                         +

 Efield perturbation    1:  X                                          5928.58s
  Parallel strategy changed for perturbation using 410 k-points
  Data is distributed by G-vector(1-way) and k-point(16-way) and band(1-way)

 Efield perturbation    2:  Y                                          5965.16s
  Parallel strategy changed for perturbation using 236 k-points
  Data is distributed by G-vector(4-way) and k-point(4-way) and band(1-way)

 Efield perturbation    3:  Z                                          6014.13s

 Efield perturbation    1:  X                                          6071.13s
  Parallel strategy changed for perturbation using 410 k-points
  Data is distributed by G-vector(1-way) and k-point(16-way) and band(1-way)

 Efield perturbation    2:  Y                                          6107.31s
  Parallel strategy changed for perturbation using 236 k-points
  Data is distributed by G-vector(4-way) and k-point(4-way) and band(1-way)

 Efield perturbation    3:  Z                                          6156.20s
 + Mode number:  24 completed;                   time taken:   287.72 seconds +
 +----------------------------------------------------------------------------+
 +   E N D    O F    R A M A N    I N T E N S I T Y    C A L C U L A T I O N  +
 +         Raman intensity calculation completed in    5711.86 seconds        +
 +============================================================================+
 + -------------------------------------------------------------------------- +
 +  q-pt=    1 (  0.000000  0.000000  0.000000)     1.0000000000              +
 + -------------------------------------------------------------------------- +
 +  Acoustic sum rule correction <   6.503404 cm-1 applied                    +
 +     N      Frequency irrep.    ir intensity active  raman activity  active + 
 +                (cm-1)         ((D/A)**2/amu)              (A**4/amu)       + 
 +                                                                            +
 +     1      -0.172531   a          0.0000000  N            0.0000000  N     + 
 +     2      -0.140871   b          0.0000000  N            0.0000000  N     + 
 +     3      -0.099611   c          0.0000000  N            0.0000000  N     + 
 +     4     244.369242   c          0.0188253  Y           39.7454260  Y     + 
 +     5     312.759118   a          0.0050847  Y          173.0222101  Y     + 
 +     6     345.369765   d          0.0000000  N           45.4220299  Y     + 
 +     7     348.158616   a          0.0026509  Y          195.2332182  Y     + 
 +     8     422.456231   b          0.0890687  Y           29.8754165  Y     + 
 +     9     477.148679   d          0.0000000  N            0.3269928  Y     + 
 +    10     489.103107   b          0.2911876  Y            6.3047121  Y     + 
 +    11     558.410089   a          0.2906414  Y            1.3847936  Y     + 
 +    12     568.019431   c          0.0201057  Y           13.2932172  Y     + 
 +    13     576.926954   d          0.0000000  N            3.7348419  Y     + 
 +    14     602.650065   b          0.0406247  Y            8.7046873  Y     + 
 +    15     620.399041   d          0.0000000  N            0.3926684  Y     + 
 +    16     745.508966   a          0.3338026  Y            0.7817605  Y     + 
 +    17     802.966684   c          0.3086833  Y            0.1635613  Y     + 
 +    18     897.725447   d          0.0000000  N            3.3423655  Y     + 
 +    19     976.489243   c          0.2288511  Y            0.0085579  Y     + 
 +    20    1032.327188   b          0.1896697  Y            0.1250165  Y     + 
 +    21    4293.319540   a          0.0400160  Y         5391.0478967  Y     + 
 +    22    4400.407016   b          0.0021362  Y           72.7033578  Y     + 
 +    23    4404.332381   d          0.0000000  N          109.5801700  Y     + 
 +    24    4437.059331   c          0.0217741  Y           82.6989160  Y     + 
 + .......................................................................... +
 +        Character table from group theory analysis of eigenvectors          +
 +                           Point Group =   6, C2v                           +
 + .......................................................................... +
 +  Rep  Mul |    E   2   m   m                                               +
 +           | ----------------                                               +
 + a A1    6 |    1   1   1   1                                               +
 + b B1    6 |    1  -1  -1   1                                               +
 + c B2    6 |    1  -1   1  -1                                               +
 + d A2    6 |    1   1  -1  -1                                               +
 + -------------------------------------------------------------------------- +
 +  q-pt=    1 (  0.000000  0.000000  0.000000)     1.0000000000              +
 +  q->0 along (  0.000000  0.000000  1.000000)                               +
 + -------------------------------------------------------------------------- +
 +  Acoustic sum rule correction <   6.503404 cm-1 applied                    +
 +     N      Frequency irrep.    ir intensity active            raman active + 
 +                (cm-1)         ((D/A)**2/amu)                               + 
 +                                                                            +
 +     1      -0.170605   a          0.0000000  N                       N     + 
 +     2      -0.140871   b          0.0000000  N                       N     + 
 +     3      -0.099611   c          0.0000000  N                       N     + 
 +     4     244.369242   c          0.0188253  Y                       Y     + 
 +     5     312.938221   a          0.0046025  Y                       Y     + 
 +     6     345.369765   d          0.0000000  N                       Y     + 
 +     7     348.242744   a          0.0024129  Y                       Y     + 
 +     8     422.456231   b          0.0890687  Y                       Y     + 
 +     9     477.148679   d          0.0000000  N                       Y     + 
 +    10     489.103107   b          0.2911876  Y                       Y     + 
 +    11     564.222627   a          0.2727736  Y                       Y     + 
 +    12     568.019431   c          0.0201057  Y                       Y     + 
 +    13     576.926954   d          0.0000000  N                       Y     + 
 +    14     602.650065   b          0.0406247  Y                       Y     + 
 +    15     620.399041   d          0.0000000  N                       Y     + 
 +    16     750.820367   a          0.3523254  Y                       Y     + 
 +    17     802.966684   c          0.3086833  Y                       Y     + 
 +    18     897.725447   d          0.0000000  N                       Y     + 
 +    19     976.489243   c          0.2288511  Y                       Y     + 
 +    20    1032.327188   b          0.1896697  Y                       Y     + 
 +    21    4293.427581   a          0.0400812  Y                       Y     + 
 +    22    4400.407016   b          0.0021362  Y                       Y     + 
 +    23    4404.332381   d          0.0000000  N                       Y     + 
 +    24    4437.059331   c          0.0217741  Y                       Y     + 
 + .......................................................................... +
 +        Character table from group theory analysis of eigenvectors          +
 +                           Point Group =   6, C2v                           +
 + (Due to LO/TO splitting this character table may not contain some symmetry +
 +  operations of the full crystallographic point group.  Additional          +
 +  representations may be also be present corresponding to split LO modes.   +
 +  A conventional analysis can be generated by specifying an additional null +
 +  (all zero) field direction or one along any unique crystallographic axis  +
 +  in %BLOCK PHONON_GAMMA_DIRECTIONS in <seedname>.cell.)                    +
 + .......................................................................... +
 +  Rep  Mul |    E   2   m   m                                               +
 +           | ----------------                                               +
 + a A1    6 |    1   1   1   1                                               +
 + b B1    6 |    1  -1  -1   1                                               +
 + c B2    6 |    1  -1   1  -1                                               +
 + d A2    6 |    1   1  -1  -1                                               +
 ==============================================================================
 ===================================================
                   Born Effective Charges
                   ----------------------
   H       1         0.01008     0.03989     0.03163
                     0.02989    -0.00814     0.03354
                     0.03244     0.02815    -0.00824
   H       2        -0.01008     0.04354     0.04227
                     0.05787     0.00814     0.05739
                     0.03455     0.04606     0.00824
   H       3        -0.01008    -0.04354     0.04227
                    -0.05787     0.00814    -0.05739
                     0.03455    -0.04606     0.00824
   H       4         0.01008    -0.03989     0.03163
                    -0.02989    -0.00814    -0.03354
                     0.03244    -0.02815    -0.00824
   H       5        -0.01008    -0.04354    -0.04227
                    -0.05787     0.00814     0.05739
                    -0.03455     0.04606     0.00824
   H       6         0.01008    -0.03989    -0.03163
                    -0.02989    -0.00814     0.03354
                    -0.03244     0.02815    -0.00824
   H       7        -0.01008     0.04354    -0.04227
                     0.05787     0.00814    -0.05739
                    -0.03455    -0.04606     0.00824
   H       8         0.01008     0.03989    -0.03163
                     0.02989    -0.00814    -0.03354
                    -0.03244    -0.02815    -0.00824
 ===================================================
  
 ==============================================================================
 +                      Raman Susceptibility Tensors ((A/amu)*0.5)            +
 +----------------------------------------------------------------------------+
 + Mode number:   1 Raman tensor       Depolarisation Ratio                   +
 +     0.0000    0.0000    0.0000      0.000000                               +
 +     0.0000    0.0000    0.0000                                             +
 +     0.0000    0.0000    0.0000                                             +
 +                                                                            +
 + Mode number:   2 Raman tensor       Depolarisation Ratio                   +
 +     0.0000    0.0000    0.0000      0.000000                               +
 +     0.0000    0.0000    0.0000                                             +
 +     0.0000    0.0000    0.0000                                             +
 +                                                                            +
 + Mode number:   3 Raman tensor       Depolarisation Ratio                   +
 +     0.0000    0.0000    0.0000      0.000000                               +
 +     0.0000    0.0000    0.0000                                             +
 +     0.0000    0.0000    0.0000                                             +
 +                                                                            +
 + Mode number:   4 Raman tensor       Depolarisation Ratio                   +
 +     0.0000    0.0000    0.0000      0.750000                               +
 +     0.0000    0.0000   -0.2562                                             +
 +     0.0000   -0.2562    0.0000                                             +
 +                                                                            +
 + Mode number:   5 Raman tensor       Depolarisation Ratio                   +
 +     0.6241    0.0000    0.0000      0.749310                               +
 +     0.0000   -0.2632    0.0000                                             +
 +     0.0000    0.0000   -0.3357                                             +
 +                                                                            +
 + Mode number:   6 Raman tensor       Depolarisation Ratio                   +
 +     0.0000    0.2739    0.0000      0.750000                               +
 +     0.2739    0.0000    0.0000                                             +
 +     0.0000    0.0000    0.0000                                             +
 +                                                                            +
 + Mode number:   7 Raman tensor       Depolarisation Ratio                   +
 +     0.0133    0.0000    0.0000      0.748097                               +
 +     0.0000    0.5830    0.0000                                             +
 +     0.0000    0.0000   -0.5519                                             +
 +                                                                            +
 + Mode number:   8 Raman tensor       Depolarisation Ratio                   +
 +     0.0000    0.0000    0.2221      0.750000                               +
 +     0.0000    0.0000    0.0000                                             +
 +     0.2221    0.0000    0.0000                                             +
 +                                                                            +
 + Mode number:   9 Raman tensor       Depolarisation Ratio                   +
 +     0.0000   -0.0232    0.0000      0.750000                               +
 +    -0.0232    0.0000    0.0000                                             +
 +     0.0000    0.0000    0.0000                                             +
 +                                                                            +
 + Mode number:  10 Raman tensor       Depolarisation Ratio                   +
 +     0.0000    0.0000    0.1020      0.750000                               +
 +     0.0000    0.0000    0.0000                                             +
 +     0.1020    0.0000    0.0000                                             +
 +                                                                            +
 + Mode number:  11 Raman tensor       Depolarisation Ratio                   +
 +    -0.0454    0.0000    0.0000      0.749576                               +
 +     0.0000   -0.0029    0.0000                                             +
 +     0.0000    0.0000    0.0500                                             +
 +                                                                            +
 + Mode number:  12 Raman tensor       Depolarisation Ratio                   +
 +     0.0000    0.0000    0.0000      0.750000                               +
 +     0.0000    0.0000   -0.1482                                             +
 +     0.0000   -0.1482    0.0000                                             +
 +                                                                            +
 + Mode number:  13 Raman tensor       Depolarisation Ratio                   +
 +     0.0000   -0.0785    0.0000      0.750000                               +
 +    -0.0785    0.0000    0.0000                                             +
 +     0.0000    0.0000    0.0000                                             +
 +                                                                            +
 + Mode number:  14 Raman tensor       Depolarisation Ratio                   +
 +     0.0000    0.0000    0.1199      0.750000                               +
 +     0.0000    0.0000    0.0000                                             +
 +     0.1199    0.0000    0.0000                                             +
 +                                                                            +
 + Mode number:  15 Raman tensor       Depolarisation Ratio                   +
 +     0.0000   -0.0255    0.0000      0.750000                               +
 +    -0.0255    0.0000    0.0000                                             +
 +     0.0000    0.0000    0.0000                                             +
 +                                                                            +
 + Mode number:  16 Raman tensor       Depolarisation Ratio                   +
 +    -0.0061    0.0000    0.0000      0.629766                               +
 +     0.0000   -0.0426    0.0000                                             +
 +     0.0000    0.0000    0.0256                                             +
 +                                                                            +
 + Mode number:  17 Raman tensor       Depolarisation Ratio                   +
 +     0.0000    0.0000    0.0000      0.750000                               +
 +     0.0000    0.0000    0.0164                                             +
 +     0.0000    0.0164    0.0000                                             +
 +                                                                            +
 + Mode number:  18 Raman tensor       Depolarisation Ratio                   +
 +     0.0000    0.0743    0.0000      0.750000                               +
 +     0.0743    0.0000    0.0000                                             +
 +     0.0000    0.0000    0.0000                                             +
 +                                                                            +
 + Mode number:  19 Raman tensor       Depolarisation Ratio                   +
 +     0.0000    0.0000    0.0000      0.750000                               +
 +     0.0000    0.0000    0.0038                                             +
 +     0.0000    0.0038    0.0000                                             +
 +                                                                            +
 + Mode number:  20 Raman tensor       Depolarisation Ratio                   +
 +     0.0000    0.0000   -0.0144      0.750000                               +
 +     0.0000    0.0000    0.0000                                             +
 +    -0.0144    0.0000    0.0000                                             +
 +                                                                            +
 + Mode number:  21 Raman tensor       Depolarisation Ratio                   +
 +     2.0115    0.0000    0.0000      0.000029                               +
 +     0.0000    2.0603    0.0000                                             +
 +     0.0000    0.0000    2.0432                                             +
 +                                                                            +
 + Mode number:  22 Raman tensor       Depolarisation Ratio                   +
 +     0.0000    0.0000    0.3465      0.750000                               +
 +     0.0000    0.0000    0.0000                                             +
 +     0.3465    0.0000    0.0000                                             +
 +                                                                            +
 + Mode number:  23 Raman tensor       Depolarisation Ratio                   +
 +     0.0000    0.4254    0.0000      0.750000                               +
 +     0.4254    0.0000    0.0000                                             +
 +     0.0000    0.0000    0.0000                                             +
 +                                                                            +
 + Mode number:  24 Raman tensor       Depolarisation Ratio                   +
 +    -0.0000    0.0000    0.0000      0.750000                               +
 +     0.0000   -0.0000    0.3696                                             +
 +     0.0000    0.3696   -0.0000                                             +
 +                                                                            +
 +----------------------------------------------------------------------------+
  

 ******************** Symmetrised Forces ********************
 *                                                          *
 *               Cartesian components (eV/A)                *
 * -------------------------------------------------------- *
 *                         x            y            z      *
 *                                                          *
 * H               1      0.00000      0.00000      0.00000 *
 * H               2     -0.00000     -0.00000     -0.00000 *
 * H               3     -0.00000      0.00000     -0.00000 *
 * H               4      0.00000     -0.00000      0.00000 *
 * H               5      0.00000     -0.00000     -0.00000 *
 * H               6     -0.00000      0.00000      0.00000 *
 * H               7      0.00000      0.00000     -0.00000 *
 * H               8     -0.00000     -0.00000      0.00000 *
 *                                                          *
 ************************************************************

 Pseudo atomic calculation performed for H 1s1

 Converged in 24 iterations to a total energy of -12.4850 eV

Charge spilling parameter for spin component 1 = 0.77%

            Orbital Populations       
     Ion    Atom   Orbital             Charge
  -------------------------------------------
      H     1      S                    1.003
      H     2      S                    1.000
      H     3      S                    1.003
      H     4      S                    0.996
      H     5      S                    1.001
      H     6      S                    0.996
      H     7      S                    0.999
      H     8      S                    1.001
  -------------------------------------------
                           Total:       8.000
  -------------------------------------------

     Atomic Populations (Mulliken)
     -----------------------------
Species          Ion     s      p      d      f     Total  Charge (e)
=====================================================================
  H               1     1.00   0.00   0.00   0.00   1.00     0.00
  H               2     1.00   0.00   0.00   0.00   1.00    -0.00
  H               3     1.00   0.00   0.00   0.00   1.00    -0.00
  H               4     1.00   0.00   0.00   0.00   1.00     0.00
  H               5     1.00   0.00   0.00   0.00   1.00    -0.00
  H               6     1.00   0.00   0.00   0.00   1.00     0.00
  H               7     1.00   0.00   0.00   0.00   1.00    -0.00
  H               8     1.00   0.00   0.00   0.00   1.00     0.00
=====================================================================

                 Bond                   Population      Length (A)
======================================================================
               H 5 -- H 6                    1.23        0.73947
               H 1 -- H 2                    1.23        0.73947
               H 3 -- H 4                    1.23        0.73947
               H 7 -- H 8                    1.23        0.73947
               H 1 -- H 7                   -0.18        1.84083
               H 3 -- H 6                   -0.18        1.84083
               H 4 -- H 5                   -0.18        1.84083
               H 2 -- H 8                   -0.18        1.84083
               H 1 -- H 3                   -0.17        1.86106
               H 2 -- H 4                   -0.17        1.86106
               H 6 -- H 7                   -0.17        1.86106
               H 5 -- H 8                   -0.17        1.86106
               H 3 -- H 5                   -0.17        1.87597
               H 2 -- H 7                   -0.17        1.87597
               H 1 -- H 5                   -0.08        1.89365
               H 4 -- H 7                   -0.08        1.89365
               H 3 -- H 8                   -0.08        1.89365
               H 2 -- H 6                   -0.08        1.89365
               H 4 -- H 8                   -0.07        1.93885
               H 1 -- H 6                   -0.07        1.93885
               H 5 -- H 7                   -0.16        1.98556
               H 2 -- H 3                   -0.16        1.98556
               H 6 -- H 8                   -0.20        1.99076
               H 1 -- H 4                   -0.20        1.99076
               H 4 -- H 6                   -0.18        2.14669
               H 1 -- H 8                   -0.18        2.14669
======================================================================


Writing analysis data to Pca21_30GPa.castep_bin

Writing model to Pca21_30GPa.check
 
 A BibTeX formatted list of references used in this run has been written to 
 Pca21_30GPa.bib
 
Initialisation time =      2.53 s
Calculation time    =   6190.04 s
Finalisation time   =      0.60 s
Total time          =   6193.18 s
Peak Memory Use     = 513220 kB
  
Overall parallel efficiency rating: Satisfactory (67%)                          
  
Data was distributed by:-
G-vector (4-way); efficiency rating: Good (70%)                                 
k-point (4-way); efficiency rating: Excellent (96%)                             
