 +-------------------------------------------------+
 |                                                 |
 |      CCC   AA    SSS  TTTTT  EEEEE  PPPP        |
 |     C     A  A  S       T    E      P   P       |
 |     C     AAAA   SS     T    EEE    PPPP        |
 |     C     A  A     S    T    E      P           |
 |      CCC  A  A  SSS     T    EEEEE  P           |
 |                                                 |
 +-------------------------------------------------+
 |                                                 |
 | Welcome to Academic Release CASTEP version 18.1 |          
 | Ab Initio Total Energy Program                  |
 |                                                 |
 | Authors:                                        |
 | M. Segall, M. Probert, C. Pickard, P. Hasnip,   |
 | S. Clark, K. Refson, J. R. Yates, M. Payne      |
 |                                                 |
 | Contributors:                                   |
 | P. Lindan, P. Haynes, J. White, V. Milman,      |
 | N. Govind, M. Gibson, P. Tulip, V. Cocula,      |
 | B. Montanari, D. Quigley, M. Glover,            |
 | L. Bernasconi, A. Perlov, M. Plummer,           |
 | E. McNellis, J. Meyer, J. Gale, D. Jochym       |
 | J. Aarons, B. Walker, R. Gillen, D. Jones       |
 | T. Green, I. J. Bush, C. J. Armstrong,          |
 | E. J. Higgins, E. L. Brown, M. S. McFly,        |
 | J. Wilkins, B-C. Shih, P. J. P. Byrne           |
 |                                                 |
 | Copyright (c) 2000 - 2017                       |
 |                                                 |
 |     Distributed under the terms of an           |
 |     Agreement between the United Kingdom        |
 |     Car-Parrinello (UKCP) Consortium,           |
 |     Daresbury Laboratory and Accelrys, Inc.     |
 |                                                 |
 | Please cite                                     |
 |                                                 |
 |     "First principles methods using CASTEP"     |
 |                                                 |
 |         Zeitschrift fuer Kristallographie       |
 |           220(5-6) pp. 567-570 (2005)           |
 |                                                 |
 | S. J. Clark, M. D. Segall, C. J. Pickard,       |
 | P. J. Hasnip, M. J. Probert, K. Refson,         |
 | M. C. Payne                                     |
 |                                                 |
 |       in all publications arising from          |
 |              your use of CASTEP                 |
 |                                                 |
 +-------------------------------------------------+


 Compiled for linux_x86_64_gfortran4.8 on Thu, 19 Jul 2018 15:42:32 +0100
 from code version 70483bd0ad64+  Sun, 10 Dec 2017 12:18:29 +0000
 Compiler: GNU Fortran 4.8.5; Optimisation: fast
 MATHLIBS: Intel MKL(2018.0.0) (LAPACK version 3.7.0)
 FFT Lib : mkl
 Fundamental constants values: CODATA 2014

 Run started: Thu, 06 Aug 2020 17:43:15 +0100
 +-------------------------------------------------+
 |                                                 |
 |  D D D D    F F F F F  P P P P     T T T T T    |
 |  D       D  F          P       P       T        |
 |  D       D  F F F F    P P P P         T        |
 |  D       D  F          P               T        |
 |  D D D D    F          P               T        |
 |                                                 |
 +-------------------------------------------------+
 |                                                 |
 | Welcome to Castep Linear Response (DFPT)        |
 |                                                 |
 | Copyright (c) 2006 - 2017                       |
 |                                                 |
 | Please cite the following publications in all   |
 | work arising from your use of CASTEP LR.        |
 |                                                 |
 | K. Refson, S. J. Clark and P. R. Tulip          |
 | Variational density functional perturbation     |
 | theory for dielectrics and lattice dynamics     |
 | Phys. Rev. B 73(15), 155114 (2006)              |
 +-------------------------------------------------+


 Atomic calculation performed for H: 1s1

 Converged in 41 iterations to an ae energy of -12.488 eV

   ============================================================                
   | Pseudopotential Report - Date of generation  6-08-2020   |                
   ------------------------------------------------------------                
   | Element: H Ionic charge:  1.00 Level of theory: PBE      |                
   | Atomic Solver: Koelling-Harmon                           |                
   |                                                          |                
   |               Reference Electronic Structure             |                
   |         Orbital         Occupation         Energy        |                
   |            1s              1.000           -0.239        |                
   |                                                          |                
   |                 Pseudopotential Definition               |                
   |        Beta     l      e      Rc     scheme   norm       |                
   |         loc     0   -0.239   0.702     qc      1         |                
   |                                                          |                
   | No charge augmentation                                   |                
   | No partial core correction                               |                
   ------------------------------------------------------------                
   | "0|0.7|2|6|8|10L(qc=10)"                                 |                
   ------------------------------------------------------------                
   |      Author: Chris J. Pickard, Cambridge University      |                
   ============================================================                

 Pseudo atomic calculation performed for H 1s1

 Converged in 24 iterations to a total energy of -12.4843 eV

 Calculation parallelised over 8 processes.
 Data is distributed by k-point(8-way)

 ************************************ Title ************************************
 

 ***************************** General Parameters ******************************
  
 output verbosity                               : normal  (1)
 write checkpoint data to                       : Hibam.check
 type of calculation                            : phonon calculation
 stress calculation                             : on
 density difference calculation                 : off
 electron localisation func (ELF) calculation   : off
 Hirshfeld analysis                             : off
 unlimited duration calculation
 timing information                             : on
 memory usage estimate                          : on
 write extra output files                       : on
 write final potential to formatted file        : off
 write final density to formatted file          : off
 write structure in CELL formatted file         : on
 write BibTeX reference list                    : on
 write OTFG pseudopotential files               : on
 write electrostatic potential file             : on
 write bands file                               : on
 checkpoint writing                             : both castep_bin and check files
  
 output         length unit                     : A
 output           mass unit                     : amu
 output           time unit                     : ps
 output         charge unit                     : e
 output           spin unit                     : hbar/2
 output         energy unit                     : eV
 output          force unit                     : eV/A
 output       velocity unit                     : A/ps
 output       pressure unit                     : GPa
 output     inv_length unit                     : 1/A
 output      frequency unit                     : cm-1
 output force constant unit                     : eV/A**2
 output         volume unit                     : A**3
 output   IR intensity unit                     : (D/A)**2/amu
 output         dipole unit                     : D
 output         efield unit                     : eV/A/e
 output        entropy unit                     : J/mol/K
  
 wavefunctions paging                           : none
 random number generator seed                   : randomised (174315535)
 data distribution                              : optimal for this architecture
 optimization strategy                          : maximize speed(+++)

 *********************** Exchange-Correlation Parameters ***********************
  
 using functional                               : Perdew Burke Ernzerhof
 relativistic treatment                         : Koelling-Harmon
 DFT+D: Semi-empirical dispersion correction    : off

 ************************* Pseudopotential Parameters **************************
  
 pseudopotential representation                 : reciprocal space
 <beta|phi> representation                      : reciprocal space
 spin-orbit coupling                            : off

 **************************** Basis Set Parameters *****************************
  
 plane wave basis set cut-off                   :  1200.0000   eV
 size of standard grid                          :     2.0000
 size of   fine   gmax                          :    35.4943   1/A
 finite basis set correction                    : automatic
 number of sample energies                      :          3
           sample  spacing                      :     5.0000   eV

 **************************** Electronic Parameters ****************************
  
 number of  electrons                           :  16.00    
 net charge of system                           :  0.000    
 treating system as non-spin-polarized
 number of bands                                :          8

 ********************* Electronic Minimization Parameters **********************
  
 Method: Treating system as non-metallic,
         and number of  SD  steps               :          1
         and number of  CG  steps               :          4
  
 total energy / atom convergence tol.           : 0.1000E-10   eV
 eigen-energy convergence tolerance             : 0.2000E-10   eV
 max force / atom convergence tol.              : ignored
 convergence tolerance window                   :          3   cycles
 max. number of SCF cycles                      :        100
 periodic dipole correction                     : NONE

 ************************** Density Mixing Parameters **************************
  
 density-mixing scheme                          : Broyden
 max. length of mixing history                  :         20
 charge density mixing amplitude                : 0.8000    
 cut-off energy for mixing                      :  1200.       eV

 *********************** Population Analysis Parameters ************************
  
 Population analysis with cutoff                :  3.000       A
 Population analysis output                     : summary and pdos components

 ****************************** Phonon Parameters ******************************
  
 phonon calculation method                      : linear response
 phonon convergence tolerance                   : 0.1000E-04   eV/A**2
 max. number of phonon cycles                   :         50
 max. number of phonon CG steps                 :          0
 convergence tolerance window                   :          2   cycles
 DFPT solver method                             : AllBands (Gonze variational method)
 preconditioning scheme                         : TPA     
 fine phonon calculation method                 : interpolation
 non-periodic force constant method             : Weighted cumulant sum
 LO/TO splitting term                           : included
 acoustic phonon sum rule                       : correct D(q) in recip-space
 Born effective charges                         : calculated
 Born charge sum rule                           : explicitly enforced
 Raman intensities                              : calculated
 Raman frequency window start                   :  0.000       eV
 Raman frequency window stop                    :  1.000       eV
 Raman tensor calculated using                  : finite displacement method
 phonon k-points                                : use reduced set
 phonon DOS                                     : not calculated
 backups results every                          :      14400   seconds
 band convergence tolerance                     : 0.1000E-08   eV

 *******************************************************************************
  

                           -------------------------------
                                      Unit Cell
                           -------------------------------
        Real Lattice(A)                      Reciprocal Lattice(1/A)
     3.0886099     0.0000000     0.0000000        2.034308490  -0.000000000   0.000000000
     0.0000000     3.0836199     0.0000000       -0.000000000   2.037600464   0.000000000
     0.0000000     0.0000000     6.1034973        0.000000000   0.000000000   1.029440175

                       Lattice parameters(A)       Cell Angles
                    a =      3.088610          alpha =   90.000000
                    b =      3.083620          beta  =   90.000000
                    c =      6.103497          gamma =   90.000000

                       Current cell volume =            58.130311       A**3
                                   density =             0.277429   AMU/A**3
                                           =             0.460682     g/cm^3

                           -------------------------------
                                     Cell Contents
                           -------------------------------
                         Total number of ions in cell =   16
                      Total number of species in cell =    1
                        Max number of any one species =   16

            xxxxxxxxxxxxxxxxxxxxxxxxxxxxxxxxxxxxxxxxxxxxxxxxxxxxxxxxxxxx
            x  Element    Atom        Fractional coordinates of atoms  x
            x            Number           u          v          w      x
            x----------------------------------------------------------x
            x  H            1         0.436118   0.398698   0.000000   x 
            x  H            2        -0.436118   0.398698   0.500000   x 
            x  H            3         0.436118  -0.398698   0.500000   x 
            x  H            4        -0.436118  -0.398698   0.000000   x 
            x  H            5         0.380598  -0.000000   0.250000   x 
            x  H            6        -0.380598   0.000000   0.750000   x 
            x  H            7         0.380598  -0.000000   0.750000   x 
            x  H            8        -0.380598   0.000000   0.250000   x 
            x  H            9         0.936118   0.898698   0.500000   x 
            x  H           10        -0.936118   0.898698   0.000000   x 
            x  H           11         0.936118  -0.898698   0.000000   x 
            x  H           12        -0.936118  -0.898698   0.500000   x 
            x  H           13         0.880598   0.500000   0.750000   x 
            x  H           14        -0.880598   0.500000   0.250000   x 
            x  H           15         0.880598   0.500000   0.250000   x 
            x  H           16        -0.880598   0.500000   0.750000   x 
            xxxxxxxxxxxxxxxxxxxxxxxxxxxxxxxxxxxxxxxxxxxxxxxxxxxxxxxxxxxx


                         No user defined ionic velocities

                           -------------------------------
                                   Details of Species
                           -------------------------------

                               Mass of species in AMU
                                    H    1.0079400

                          Electric Quadrupole Moment (Barn)
                                    H    0.0028600 Isotope  2

                          Files used for pseudopotentials:
                                    H 0|0.7|2|6|8|10L(qc=10)

                           -------------------------------
                              k-Points For BZ Sampling
                           -------------------------------
                       MP grid size for SCF calculation is  8  8  8
                            with an offset of   0.000  0.000  0.000
                       Number of kpoints used =            64

                           -------------------------------
                               Symmetry and Constraints
                           -------------------------------

                      Cell is a supercell containing 2 primitive cells
                      Maximum deviation from symmetry = 0.617228E-14     ANG

                      Number of symmetry operations   =          16
                      Number of ionic constraints     =           3
                      Point group of crystal =     8: D2h, mmm, 2/m 2/m 2/m
                      Space group of crystal =    72: Ibam, -I 2 2c

             Set iprint > 1 for details on symmetry rotations/translations

                         Centre of mass is constrained
             Set iprint > 1 for details of linear ionic constraints

                         Number of cell constraints= 3
                         Cell constraints are:  1 2 3 0 0 0

                         External pressure/stress (GPa)
                         30.00000   0.00000   0.00000
                                   30.00000   0.00000
                                             30.00000
  
+---------------- MEMORY AND SCRATCH DISK ESTIMATES PER PROCESS --------------+
|                                                     Memory          Disk    |
| Baseline code, static data and system overhead      383.0 MB         0.0 MB |
| BLAS internal memory storage                          0.0 MB         0.0 MB |
| Model and support data                               46.0 MB         0.0 MB |
| Electronic energy minimisation requirements          32.9 MB         0.0 MB |
| Force calculation requirements                       10.7 MB         0.0 MB |
| Stress calculation requirements                      13.5 MB         0.0 MB |
|                                               ----------------------------- |
| Approx. total storage required per process          461.9 MB         0.0 MB |
|                                                                             |
| Requirements will fluctuate during execution and may exceed these estimates |
+-----------------------------------------------------------------------------+
Calculating finite basis set correction with  3 cut-off energies.
Calculating total energy with cut-off of 1190.000 eV.
------------------------------------------------------------------------ <-- SCF
SCF loop      Energy                           Energy gain       Timer   <-- SCF
                                               per atom          (sec)   <-- SCF
------------------------------------------------------------------------ <-- SCF
Initial   4.26632075E+002                                          4.55  <-- SCF
      1  -1.96060160E+002                    3.89182647E+001       9.11  <-- SCF
      2  -2.50402646E+002                    3.39640535E+000      11.86  <-- SCF
      3  -2.51493974E+002                    6.82080541E-002      14.27  <-- SCF
      4  -2.49481782E+002                   -1.25762051E-001      18.75  <-- SCF
      5  -2.49427402E+002                   -3.39869778E-003      22.93  <-- SCF
      6  -2.49431689E+002                    2.67939961E-004      27.25  <-- SCF
      7  -2.49432244E+002                    3.46573406E-005      31.60  <-- SCF
      8  -2.49432246E+002                    1.51192258E-007      35.98  <-- SCF
      9  -2.49432247E+002                    1.72369154E-008      39.99  <-- SCF
     10  -2.49432247E+002                   -3.92980881E-011      42.98  <-- SCF
     11  -2.49432247E+002                    5.29291592E-012      46.00  <-- SCF
     12  -2.49432247E+002                    8.30794451E-013      48.95  <-- SCF
------------------------------------------------------------------------ <-- SCF
 
Final energy =  -249.4322466910     eV
(energy not corrected for finite basis set)
 
Calculating total energy with cut-off of 1195.000 eV.
------------------------------------------------------------------------ <-- SCF
SCF loop      Energy                           Energy gain       Timer   <-- SCF
                                               per atom          (sec)   <-- SCF
------------------------------------------------------------------------ <-- SCF
Initial  -2.49432247E+002                                         50.82  <-- SCF
      1  -2.49433359E+002                    6.95011445E-005      53.81  <-- SCF
      2  -2.49433359E+002                    6.50889689E-011      57.77  <-- SCF
      3  -2.49433359E+002                    3.65906377E-008      62.06  <-- SCF
      4  -2.49433359E+002                    2.74545240E-009      66.29  <-- SCF
      5  -2.49433359E+002                    4.92978322E-011      69.38  <-- SCF
      6  -2.49433359E+002                    2.67666867E-012      72.33  <-- SCF
      7  -2.49433359E+002                   -5.13582024E-014      75.45  <-- SCF
------------------------------------------------------------------------ <-- SCF
 
Final energy =  -249.4333593406     eV
(energy not corrected for finite basis set)
 
Calculating total energy with cut-off of 1200.000 eV.
------------------------------------------------------------------------ <-- SCF
SCF loop      Energy                           Energy gain       Timer   <-- SCF
                                               per atom          (sec)   <-- SCF
------------------------------------------------------------------------ <-- SCF
Initial  -2.49433359E+002                                         77.30  <-- SCF
      1  -2.49434454E+002                    6.83868062E-005      80.51  <-- SCF
      2  -2.49434454E+002                    6.53820127E-011      84.49  <-- SCF
      3  -2.49434454E+002                    3.62338130E-008      88.59  <-- SCF
      4  -2.49434454E+002                    2.69886145E-009      92.82  <-- SCF
      5  -2.49434454E+002                    4.78567814E-011      95.83  <-- SCF
      6  -2.49434454E+002                    1.99088561E-012      99.21  <-- SCF
      7  -2.49434454E+002                    1.57095678E-013     102.36  <-- SCF
------------------------------------------------------------------------ <-- SCF
 
Final energy =  -249.4344541542     eV
(energy not corrected for finite basis set)
 
 For future reference: finite basis dEtot/dlog(Ecut) =      -0.261717eV
 Total energy corrected for finite basis set =    -249.434449 eV

 Efield perturbation    1:  X                                           110.89s
  +---------------- MEMORY AND SCRATCH DISK ESTIMATES PER PROCESS --------------+
  |                                                     Memory          Disk    |
  | Baseline code, static data and system overhead      383.0 MB         0.0 MB |
  | BLAS internal memory storage                          0.0 MB         0.0 MB |
  | Model and support data                               46.1 MB         0.0 MB |
  | DFPT E-field response requirements                   46.9 MB         0.0 MB |
  |                                               ----------------------------- |
  | Approx. total storage required per process          476.0 MB         0.0 MB |
  |                                                                             |
  | Requirements will fluctuate during execution and may exceed these estimates |
  +-----------------------------------------------------------------------------+

 Efield perturbation    2:  Y                                           174.80s

 Efield perturbation    3:  Z                                           240.44s
 Perturbation    1 (of    6): H     1 X at q=( 0.000, 0.000, 0.000):    307.81s
  Parallel strategy changed for perturbation using 128 k-points
  Data is distributed by G-vector(1-way) and k-point(8-way) and band(1-way)
  +---------------- MEMORY AND SCRATCH DISK ESTIMATES PER PROCESS --------------+
  |                                                     Memory          Disk    |
  | Baseline code, static data and system overhead      383.0 MB         0.0 MB |
  | BLAS internal memory storage                          0.0 MB         0.0 MB |
  | Model and support data                               46.1 MB         0.0 MB |
  | DFPT phonon calculation requirements                117.1 MB         0.0 MB |
  |                                               ----------------------------- |
  | Approx. total storage required per process          546.2 MB         0.0 MB |
  |                                                                             |
  | Requirements will fluctuate during execution and may exceed these estimates |
  +-----------------------------------------------------------------------------+
 Perturbation    2 (of    6): H     5 X at q=( 0.000, 0.000, 0.000):    436.45s
 Perturbation    3 (of    6): H     1 Y at q=( 0.000, 0.000, 0.000):    552.49s
 Perturbation    4 (of    6): H     5 Y at q=( 0.000, 0.000, 0.000):    667.81s
  Parallel strategy changed for perturbation using 256 k-points
  Data is distributed by G-vector(1-way) and k-point(8-way) and band(1-way)
  +---------------- MEMORY AND SCRATCH DISK ESTIMATES PER PROCESS --------------+
  |                                                     Memory          Disk    |
  | Baseline code, static data and system overhead      383.0 MB         0.0 MB |
  | BLAS internal memory storage                          0.0 MB         0.0 MB |
  | Model and support data                               46.1 MB         0.0 MB |
  | DFPT phonon calculation requirements                224.8 MB         0.0 MB |
  |                                               ----------------------------- |
  | Approx. total storage required per process          653.9 MB         0.0 MB |
  |                                                                             |
  | Requirements will fluctuate during execution and may exceed these estimates |
  +-----------------------------------------------------------------------------+
 Perturbation    5 (of    6): H     1 Z at q=( 0.000, 0.000, 0.000):    884.78s
 Perturbation    6 (of    6): H     5 Z at q=( 0.000, 0.000, 0.000):   1093.96s

 Phonon calculation: q-point   1 (of    1) ( 0.000, 0.000, 0.000):     1303.16s
 -------------------------------------------------------------------------------
 
 ==============================================================================
 +                           Vibrational Frequencies                          +
 +                           -----------------------                          +
 +                                                                            +
 + Performing frequency calculation at  1 wavevector  (q-pt )                 +
 + ========================================================================== +
 +                                                                            +
 +============================================================================+
 +                       Raman Intensity Progress Report                      +
 +----------------------------------------------------------------------------+
 + RAMAN: Not a continuation; generating Raman intensities from beginning     +
 +----------------------------------------------------------------------------+
 + Mode     1: not Raman active; calculation not required                     +
 + Mode     2: not Raman active; calculation not required                     +
 + Mode     3: not Raman active; calculation not required                     +
 + Mode     4: frequency out of range; calculation not required               +
 + Mode     5: not Raman active; calculation not required                     +
 + Mode     6: not Raman active; calculation not required                     +
 + Mode     7: not Raman active; calculation not required                     +
 + Mode     8: not Raman active; calculation not required                     +
 + Mode     9: not Raman active; calculation not required                     +
 + Mode    10: performing Raman intensity calculation                         +

 Efield perturbation    1:  X                                          1360.97s

 Efield perturbation    2:  Y                                          1423.86s

 Efield perturbation    3:  Z                                          1489.50s

 Efield perturbation    1:  X                                          1598.96s

 Efield perturbation    2:  Y                                          1669.88s

 Efield perturbation    3:  Z                                          1735.48s
 + Mode number:  10 completed;                   time taken:   488.69 seconds +
 + Mode    11: performing Raman intensity calculation                         +

 Efield perturbation    1:  X                                          1893.01s

 Efield perturbation    2:  Y                                          2003.12s

 Efield perturbation    3:  Z                                          2134.28s

 Efield perturbation    1:  X                                          2299.55s

 Efield perturbation    2:  Y                                          2410.80s

 Efield perturbation    3:  Z                                          2549.97s
 + Mode number:  11 completed;                   time taken:   831.41 seconds +
 + Mode    12: not Raman active; calculation not required                     +
 + Mode    13: not Raman active; calculation not required                     +
 + Mode    14: performing Raman intensity calculation                         +

 Efield perturbation    1:  X                                          2719.91s

 Efield perturbation    2:  Y                                          2881.39s

 Efield perturbation    3:  Z                                          2963.67s

 Efield perturbation    1:  X                                          3130.73s

 Efield perturbation    2:  Y                                          3296.12s

 Efield perturbation    3:  Z                                          3379.10s
 + Mode number:  14 completed;                   time taken:   828.82 seconds +
 + Mode    15: not Raman active; calculation not required                     +
 + Mode    16: performing Raman intensity calculation                         +

 Efield perturbation    1:  X                                          3543.47s

 Efield perturbation    2:  Y                                          3709.40s

 Efield perturbation    3:  Z                                          3787.12s

 Efield perturbation    1:  X                                          3950.08s

 Efield perturbation    2:  Y                                          4116.41s

 Efield perturbation    3:  Z                                          4192.98s
 + Mode number:  16 completed;                   time taken:   811.19 seconds +
 + Mode    17: not Raman active; calculation not required                     +
 + Mode    18: not Raman active; calculation not required                     +
 + Mode    19: not Raman active; calculation not required                     +
 + Mode    20: not Raman active; calculation not required                     +
 + Mode    21: not Raman active; calculation not required                     +
 + Mode    22: performing Raman intensity calculation                         +

 Efield perturbation    1:  X                                          4359.05s

 Efield perturbation    2:  Y                                          4525.22s

 Efield perturbation    3:  Z                                          4605.63s

 Efield perturbation    1:  X                                          4770.75s

 Efield perturbation    2:  Y                                          4932.37s

 Efield perturbation    3:  Z                                          5014.94s
 + Mode number:  22 completed;                   time taken:   830.77 seconds +
 + Mode    23: not Raman active; calculation not required                     +
 + Mode    24: not Raman active; calculation not required                     +
 + Mode    25: not Raman active; calculation not required                     +
 + Mode    26: not Raman active; calculation not required                     +
 + Mode    27: not Raman active; calculation not required                     +
 + Mode    28: not Raman active; calculation not required                     +
 + Mode    29: not Raman active; calculation not required                     +
 + Mode    30: not Raman active; calculation not required                     +
 + Mode    31: not Raman active; calculation not required                     +
 + Mode    32: not Raman active; calculation not required                     +
 + Mode    33: performing Raman intensity calculation                         +

 Efield perturbation    1:  X                                          5196.83s

 Efield perturbation    2:  Y                                          5311.71s

 Efield perturbation    3:  Z                                          5454.41s

 Efield perturbation    1:  X                                          5621.66s

 Efield perturbation    2:  Y                                          5735.20s

 Efield perturbation    3:  Z                                          5879.62s
 + Mode number:  33 completed;                   time taken:   863.91 seconds +
 + Mode    34: performing Raman intensity calculation                         +

 Efield perturbation    1:  X                                          6060.54s

 Efield perturbation    2:  Y                                          6234.78s

 Efield perturbation    3:  Z                                          6318.57s

 Efield perturbation    1:  X                                          6476.18s

 Efield perturbation    2:  Y                                          6651.20s

 Efield perturbation    3:  Z                                          6734.44s
 + Mode number:  34 completed;                   time taken:   851.55 seconds +
 + Mode    35: not Raman active; calculation not required                     +
 + Mode    36: not Raman active; calculation not required                     +
 + Mode    37: performing Raman intensity calculation                         +

 Efield perturbation    1:  X                                          6908.94s

 Efield perturbation    2:  Y                                          7073.50s

 Efield perturbation    3:  Z                                          7151.27s

 Efield perturbation    1:  X                                          7315.65s

 Efield perturbation    2:  Y                                          7483.56s

 Efield perturbation    3:  Z                                          7567.86s
 + Mode number:  37 completed;                   time taken:   832.72 seconds +
 + Mode    38: not Raman active; calculation not required                     +
 + Mode    39: not Raman active; calculation not required                     +
 + Mode    40: not Raman active; calculation not required                     +
 + Mode    41: performing Raman intensity calculation                         +

 Efield perturbation    1:  X                                          7700.88s

 Efield perturbation    2:  Y                                          7765.97s

 Efield perturbation    3:  Z                                          7823.87s

 Efield perturbation    1:  X                                          7926.46s

 Efield perturbation    2:  Y                                          7988.35s

 Efield perturbation    3:  Z                                          8050.06s
 + Mode number:  41 completed;                   time taken:   442.55 seconds +
 + Mode    42: not Raman active; calculation not required                     +
 + Mode    43: not Raman active; calculation not required                     +
 + Mode    44: performing Raman intensity calculation                         +

 Efield perturbation    1:  X                                          8130.13s

 Efield perturbation    2:  Y                                          8176.32s

 Efield perturbation    3:  Z                                          8226.85s

 Efield perturbation    1:  X                                          8328.47s

 Efield perturbation    2:  Y                                          8395.04s

 Efield perturbation    3:  Z                                          8452.76s
 + Mode number:  44 completed;                   time taken:   417.26 seconds +
 + Mode    45: not Raman active; calculation not required                     +
 + Mode    46: performing Raman intensity calculation                         +

 Efield perturbation    1:  X                                          8592.88s

 Efield perturbation    2:  Y                                          8757.70s

 Efield perturbation    3:  Z                                          8839.27s

 Efield perturbation    1:  X                                          9002.08s

 Efield perturbation    2:  Y                                          9168.83s

 Efield perturbation    3:  Z                                          9244.08s
 + Mode number:  46 completed;                   time taken:   815.56 seconds +
 + Mode    47: not Raman active; calculation not required                     +
 + Mode    48: not Raman active; calculation not required                     +
 +----------------------------------------------------------------------------+
 +   E N D    O F    R A M A N    I N T E N S I T Y    C A L C U L A T I O N  +
 +         Raman intensity calculation completed in    8014.56 seconds        +
 +============================================================================+
 + -------------------------------------------------------------------------- +
 +  q-pt=    1 (  0.000000  0.000000  0.000000)     1.0000000000              +
 + -------------------------------------------------------------------------- +
 +  Acoustic sum rule correction <   5.932923 cm-1 applied                    +
 +     N      Frequency irrep.    ir intensity active  raman activity  active + 
 +                (cm-1)         ((D/A)**2/amu)              (A**4/amu)       + 
 +                                                                            +
 +     1    -259.071477   a          0.0000000  N            0.0000000  N     + 
 +     2    -256.329141   b          0.0000000  Y            0.0000000  N     + 
 +     3    -154.522149   c          0.0000000  N            0.0000000  N     + 
 +     4    -123.753184   d          0.0000000  N            0.0000000  Y     + 
 +     5      -0.172522   b          0.0000000  N            0.0000000  N     + 
 +     6      -0.140863   e          0.0000000  N            0.0000000  N     + 
 +     7      -0.099605   f          0.0000000  N            0.0000000  N     + 
 +     8     111.559825   g          0.0000000  N            0.0000000  N     + 
 +     9     246.770642   a          0.0000000  N            0.0000000  N     + 
 +    10     255.112738   h          0.0000000  N          125.2851825  Y     + 
 +    11     293.348136   i          0.0000000  N          169.5263301  Y     + 
 +    12     321.130633   f          0.2294094  Y            0.0000000  N     + 
 +    13     381.673231   j          0.0000000  N            0.0000000  N     + 
 +    14     383.418745   d          0.0000000  N          214.5940015  Y     + 
 +    15     502.144565   c          0.0000000  N            0.0000000  N     + 
 +    16     516.659660   k          0.0000000  N          369.6607628  Y     + 
 +    17     528.128418   g          0.0000000  N            0.0000000  N     + 
 +    18     536.720711   l          0.0000000  N            0.0000000  N     + 
 +    19     539.593903   j          0.0000000  N            0.0000000  N     + 
 +    20     540.089036   c          0.0000000  N            0.0000000  N     + 
 +    21     548.885283   m          0.0000000  N            0.0000000  N     + 
 +    22     588.716126   k          0.0000000  N          116.6146090  Y     + 
 +    23     650.434126   n          0.0000000  N            0.0000000  N     + 
 +    24     694.658276   e          0.0409252  Y            0.0000000  N     + 
 +    25     698.824682   o          0.0000000  N            0.0000000  N     + 
 +    26     699.630763   l          0.0000000  N            0.0000000  N     + 
 +    27     710.784957   f          0.5040476  Y            0.0000000  N     + 
 +    28     720.900636   m          0.0000000  N            0.0000000  N     + 
 +    29     724.357466   g          0.0000000  N            0.0000000  N     + 
 +    30     737.747015   p          0.0000000  N            0.0000000  N     + 
 +    31     738.472583   a          0.0000000  N            0.0000000  N     + 
 +    32     744.680105   m          0.0000000  N            0.0000000  N     + 
 +    33     754.772382   i          0.0000000  N            3.7220416  Y     + 
 +    34     765.338639   k          0.0000000  N            9.0236337  Y     + 
 +    35     783.981379   e          1.5001535  Y            0.0000000  N     + 
 +    36     871.312470   f          1.1120818  Y            0.0000000  N     + 
 +    37     919.770896   d          0.0000000  N            6.4911286  Y     + 
 +    38     923.579834   l          0.0000000  N            0.0000000  N     + 
 +    39     979.036776   g          0.0000000  N            0.0000000  N     + 
 +    40    1008.317744   b          0.0048218  Y            0.0000000  N     + 
 +    41    4321.112660   h          0.0000000  N        10463.4028003  Y     + 
 +    42    4357.850901   a          0.0000000  N            0.0000000  N     + 
 +    43    4386.590438   p          0.0000000  N            0.0000000  N     + 
 +    44    4418.538500   h          0.0000000  N          517.4218388  Y     + 
 +    45    4460.364648   n          0.0000000  N            0.0000000  N     + 
 +    46    4470.917738   k          0.0000000  N          252.3118349  Y     + 
 +    47    4487.007734   o          0.0000000  N            0.0000000  N     + 
 +    48    4503.091177   n          0.0000000  N            0.0000000  N     + 
 + .......................................................................... +
 +        Character table from group theory analysis of eigenvectors          +
 +                           Point Group =   8, D2h                           +
 + .......................................................................... +
 +  Rep  Mul |    E   I   2   m   2   m   2   m                               +
 +           | --------------------------------                               +
 + a Ag    4 |    1   1   1   1   1   1   1   1                               +
 + b B1u   3 |    1  -1   1  -1  -1   1  -1   1                               +
 + c B3g   3 |    1   1  -1  -1  -1  -1   1   1                               +
 + d B2g   3 |    1   1  -1  -1   1   1  -1  -1                               +
 + e B3u   3 |    1  -1  -1   1  -1   1   1  -1                               +
 + f B2u   4 |    1  -1  -1   1   1  -1  -1   1                               +
 + g B3u   4 |    1  -1  -1   1  -1   1   1  -1                               +
 + h Ag    3 |    1   1   1   1   1   1   1   1                               +
 + i B3g   2 |    1   1  -1  -1  -1  -1   1   1                               +
 + j B2g   2 |    1   1  -1  -1   1   1  -1  -1                               +
 + k B1g   4 |    1   1   1   1  -1  -1  -1  -1                               +
 + l B2u   3 |    1  -1  -1   1   1  -1  -1   1                               +
 + m Au    3 |    1  -1   1  -1   1  -1   1  -1                               +
 + n B1g   3 |    1   1   1   1  -1  -1  -1  -1                               +
 + o Au    2 |    1  -1   1  -1   1  -1   1  -1                               +
 + p B1u   2 |    1  -1   1  -1  -1   1  -1   1                               +
 + -------------------------------------------------------------------------- +
 +  q-pt=    1 (  0.000000  0.000000  0.000000)     1.0000000000              +
 +  q->0 along (  0.000000  0.000000  1.000000)                               +
 + -------------------------------------------------------------------------- +
 +  Acoustic sum rule correction <   5.932923 cm-1 applied                    +
 +     N      Frequency irrep.    ir intensity active            raman active + 
 +                (cm-1)         ((D/A)**2/amu)                               + 
 +                                                                            +
 +     1    -259.071477   a          0.0000000  N                       N     + 
 +     2    -256.327558   b          0.0000000  Y                       N     + 
 +     3    -154.522149   c          0.0000000  N                       N     + 
 +     4    -123.753184   d          0.0000000  N                       Y     + 
 +     5      -0.172522   b          0.0000000  N                       N     + 
 +     6      -0.140863   e          0.0000000  N                       N     + 
 +     7      -0.099605   f          0.0000000  N                       N     + 
 +     8     111.559825   g          0.0000000  N                       N     + 
 +     9     246.770642   a          0.0000000  N                       N     + 
 +    10     255.112738   h          0.0000000  N                       Y     + 
 +    11     293.348136   i          0.0000000  N                       Y     + 
 +    12     321.130633   f          0.2294094  Y                       N     + 
 +    13     381.673231   j          0.0000000  N                       N     + 
 +    14     383.418745   d          0.0000000  N                       Y     + 
 +    15     502.144565   c          0.0000000  N                       N     + 
 +    16     516.659660   k          0.0000000  N                       Y     + 
 +    17     528.128418   g          0.0000000  N                       N     + 
 +    18     536.720711   l          0.0000000  N                       N     + 
 +    19     539.593903   j          0.0000000  N                       N     + 
 +    20     540.089036   c          0.0000000  N                       N     + 
 +    21     548.885283   m          0.0000000  N                       N     + 
 +    22     588.716126   k          0.0000000  N                       Y     + 
 +    23     650.434126   n          0.0000000  N                       N     + 
 +    24     694.658276   e          0.0409252  Y                       N     + 
 +    25     698.824682   o          0.0000000  N                       N     + 
 +    26     699.630763   l          0.0000000  N                       N     + 
 +    27     710.784957   f          0.5040476  Y                       N     + 
 +    28     720.900636   m          0.0000000  N                       N     + 
 +    29     724.357466   g          0.0000000  N                       N     + 
 +    30     737.747015   p          0.0000000  N                       N     + 
 +    31     738.472583   a          0.0000000  N                       N     + 
 +    32     744.680105   m          0.0000000  N                       N     + 
 +    33     754.772382   i          0.0000000  N                       Y     + 
 +    34     765.338639   k          0.0000000  N                       Y     + 
 +    35     783.981379   e          1.5001535  Y                       N     + 
 +    36     871.312470   f          1.1120818  Y                       N     + 
 +    37     919.770896   d          0.0000000  N                       Y     + 
 +    38     923.579834   l          0.0000000  N                       N     + 
 +    39     979.036776   g          0.0000000  N                       N     + 
 +    40    1008.349125   b          0.0048218  Y                       N     + 
 +    41    4321.112660   h          0.0000000  N                       Y     + 
 +    42    4357.850901   a          0.0000000  N                       N     + 
 +    43    4386.590438   p          0.0000000  N                       N     + 
 +    44    4418.538500   h          0.0000000  N                       Y     + 
 +    45    4460.364648   n          0.0000000  N                       N     + 
 +    46    4470.917738   k          0.0000000  N                       Y     + 
 +    47    4487.007734   o          0.0000000  N                       N     + 
 +    48    4503.091177   n          0.0000000  N                       N     + 
 + .......................................................................... +
 +        Character table from group theory analysis of eigenvectors          +
 +                           Point Group =   8, D2h                           +
 + (Due to LO/TO splitting this character table may not contain some symmetry +
 +  operations of the full crystallographic point group.  Additional          +
 +  representations may be also be present corresponding to split LO modes.   +
 +  A conventional analysis can be generated by specifying an additional null +
 +  (all zero) field direction or one along any unique crystallographic axis  +
 +  in %BLOCK PHONON_GAMMA_DIRECTIONS in <seedname>.cell.)                    +
 + .......................................................................... +
 +  Rep  Mul |    E   I   2   m   2   m   2   m                               +
 +           | --------------------------------                               +
 + a Ag    4 |    1   1   1   1   1   1   1   1                               +
 + b B1u   3 |    1  -1   1  -1  -1   1  -1   1                               +
 + c B3g   3 |    1   1  -1  -1  -1  -1   1   1                               +
 + d B2g   3 |    1   1  -1  -1   1   1  -1  -1                               +
 + e B3u   3 |    1  -1  -1   1  -1   1   1  -1                               +
 + f B2u   4 |    1  -1  -1   1   1  -1  -1   1                               +
 + g B3u   4 |    1  -1  -1   1  -1   1   1  -1                               +
 + h Ag    3 |    1   1   1   1   1   1   1   1                               +
 + i B3g   2 |    1   1  -1  -1  -1  -1   1   1                               +
 + j B2g   2 |    1   1  -1  -1   1   1  -1  -1                               +
 + k B1g   4 |    1   1   1   1  -1  -1  -1  -1                               +
 + l B2u   3 |    1  -1  -1   1   1  -1  -1   1                               +
 + m Au    3 |    1  -1   1  -1   1  -1   1  -1                               +
 + n B1g   3 |    1   1   1   1  -1  -1  -1  -1                               +
 + o Au    2 |    1  -1   1  -1   1  -1   1  -1                               +
 + p B1u   2 |    1  -1   1  -1  -1   1  -1   1                               +
 ==============================================================================
 ===================================================
                   Born Effective Charges
                   ----------------------
   H       1        -0.03094     0.09002     0.00000
                     0.08063     0.02982     0.00000
                     0.00000     0.00000    -0.00363
   H       2        -0.03094    -0.09002     0.00000
                    -0.08063     0.02982     0.00000
                     0.00000     0.00000    -0.00363
   H       3        -0.03094    -0.09002     0.00000
                    -0.08063     0.02982     0.00000
                     0.00000     0.00000    -0.00363
   H       4        -0.03094     0.09002     0.00000
                     0.08063     0.02982     0.00000
                     0.00000     0.00000    -0.00363
   H       5         0.03094     0.00000     0.00000
                     0.00000    -0.02982     0.00060
                     0.00000    -0.01404     0.00363
   H       6         0.03094     0.00000     0.00000
                     0.00000    -0.02982     0.00060
                     0.00000    -0.01404     0.00363
   H       7         0.03094     0.00000     0.00000
                     0.00000    -0.02982    -0.00060
                     0.00000     0.01404     0.00363
   H       8         0.03094     0.00000     0.00000
                     0.00000    -0.02982    -0.00060
                     0.00000     0.01404     0.00363
   H       9        -0.03094     0.09002     0.00000
                     0.08063     0.02982     0.00000
                     0.00000     0.00000    -0.00363
   H      10        -0.03094    -0.09002     0.00000
                    -0.08063     0.02982     0.00000
                     0.00000     0.00000    -0.00363
   H      11        -0.03094    -0.09002     0.00000
                    -0.08063     0.02982     0.00000
                     0.00000     0.00000    -0.00363
   H      12        -0.03094     0.09002     0.00000
                     0.08063     0.02982     0.00000
                     0.00000     0.00000    -0.00363
   H      13         0.03094     0.00000     0.00000
                     0.00000    -0.02982     0.00060
                     0.00000    -0.01404     0.00363
   H      14         0.03094     0.00000     0.00000
                     0.00000    -0.02982     0.00060
                     0.00000    -0.01404     0.00363
   H      15         0.03094     0.00000     0.00000
                     0.00000    -0.02982    -0.00060
                     0.00000     0.01404     0.00363
   H      16         0.03094     0.00000     0.00000
                     0.00000    -0.02982    -0.00060
                     0.00000     0.01404     0.00363
 ===================================================
  
 ==============================================================================
 +                      Raman Susceptibility Tensors ((A/amu)*0.5)            +
 +----------------------------------------------------------------------------+
 + Mode number:   1 Raman tensor       Depolarisation Ratio                   +
 +     0.0000    0.0000    0.0000      0.000000                               +
 +     0.0000    0.0000    0.0000                                             +
 +     0.0000    0.0000    0.0000                                             +
 +                                                                            +
 + Mode number:   2 Raman tensor       Depolarisation Ratio                   +
 +     0.0000    0.0000    0.0000      0.000000                               +
 +     0.0000    0.0000    0.0000                                             +
 +     0.0000    0.0000    0.0000                                             +
 +                                                                            +
 + Mode number:   3 Raman tensor       Depolarisation Ratio                   +
 +     0.0000    0.0000    0.0000      0.000000                               +
 +     0.0000    0.0000    0.0000                                             +
 +     0.0000    0.0000    0.0000                                             +
 +                                                                            +
 + Mode number:   4 is outside of the requested Raman frequency range         +
 +                                                                            +
 + Mode number:   5 Raman tensor       Depolarisation Ratio                   +
 +     0.0000    0.0000    0.0000      0.000000                               +
 +     0.0000    0.0000    0.0000                                             +
 +     0.0000    0.0000    0.0000                                             +
 +                                                                            +
 + Mode number:   6 Raman tensor       Depolarisation Ratio                   +
 +     0.0000    0.0000    0.0000      0.000000                               +
 +     0.0000    0.0000    0.0000                                             +
 +     0.0000    0.0000    0.0000                                             +
 +                                                                            +
 + Mode number:   7 Raman tensor       Depolarisation Ratio                   +
 +     0.0000    0.0000    0.0000      0.000000                               +
 +     0.0000    0.0000    0.0000                                             +
 +     0.0000    0.0000    0.0000                                             +
 +                                                                            +
 + Mode number:   8 Raman tensor       Depolarisation Ratio                   +
 +     0.0000    0.0000    0.0000      0.000000                               +
 +     0.0000    0.0000    0.0000                                             +
 +     0.0000    0.0000    0.0000                                             +
 +                                                                            +
 + Mode number:   9 Raman tensor       Depolarisation Ratio                   +
 +     0.0000    0.0000    0.0000      0.000000                               +
 +     0.0000    0.0000    0.0000                                             +
 +     0.0000    0.0000    0.0000                                             +
 +                                                                            +
 + Mode number:  10 Raman tensor       Depolarisation Ratio                   +
 +    -0.3574    0.0000    0.0000      0.728126                               +
 +     0.0000    0.2766    0.0000                                             +
 +     0.0000    0.0000   -0.0045                                             +
 +                                                                            +
 + Mode number:  11 Raman tensor       Depolarisation Ratio                   +
 +    -0.0000    0.0000    0.0000      0.750000                               +
 +     0.0000   -0.0000    0.3727                                             +
 +     0.0000    0.3727   -0.0000                                             +
 +                                                                            +
 + Mode number:  12 Raman tensor       Depolarisation Ratio                   +
 +     0.0000    0.0000    0.0000      0.000000                               +
 +     0.0000    0.0000    0.0000                                             +
 +     0.0000    0.0000    0.0000                                             +
 +                                                                            +
 + Mode number:  13 Raman tensor       Depolarisation Ratio                   +
 +     0.0000    0.0000    0.0000      0.000000                               +
 +     0.0000    0.0000    0.0000                                             +
 +     0.0000    0.0000    0.0000                                             +
 +                                                                            +
 + Mode number:  14 Raman tensor       Depolarisation Ratio                   +
 +    -0.0000    0.0000    0.4193      0.750000                               +
 +     0.0000   -0.0000    0.0000                                             +
 +     0.4193    0.0000   -0.0000                                             +
 +                                                                            +
 + Mode number:  15 Raman tensor       Depolarisation Ratio                   +
 +     0.0000    0.0000    0.0000      0.000000                               +
 +     0.0000    0.0000    0.0000                                             +
 +     0.0000    0.0000    0.0000                                             +
 +                                                                            +
 + Mode number:  16 Raman tensor       Depolarisation Ratio                   +
 +    -0.0000   -0.5503    0.0000      0.750000                               +
 +    -0.5503   -0.0000    0.0000                                             +
 +     0.0000    0.0000   -0.0000                                             +
 +                                                                            +
 + Mode number:  17 Raman tensor       Depolarisation Ratio                   +
 +     0.0000    0.0000    0.0000      0.000000                               +
 +     0.0000    0.0000    0.0000                                             +
 +     0.0000    0.0000    0.0000                                             +
 +                                                                            +
 + Mode number:  18 Raman tensor       Depolarisation Ratio                   +
 +     0.0000    0.0000    0.0000      0.000000                               +
 +     0.0000    0.0000    0.0000                                             +
 +     0.0000    0.0000    0.0000                                             +
 +                                                                            +
 + Mode number:  19 Raman tensor       Depolarisation Ratio                   +
 +     0.0000    0.0000    0.0000      0.000000                               +
 +     0.0000    0.0000    0.0000                                             +
 +     0.0000    0.0000    0.0000                                             +
 +                                                                            +
 + Mode number:  20 Raman tensor       Depolarisation Ratio                   +
 +     0.0000    0.0000    0.0000      0.000000                               +
 +     0.0000    0.0000    0.0000                                             +
 +     0.0000    0.0000    0.0000                                             +
 +                                                                            +
 + Mode number:  21 Raman tensor       Depolarisation Ratio                   +
 +     0.0000    0.0000    0.0000      0.000000                               +
 +     0.0000    0.0000    0.0000                                             +
 +     0.0000    0.0000    0.0000                                             +
 +                                                                            +
 + Mode number:  22 Raman tensor       Depolarisation Ratio                   +
 +    -0.0000   -0.3091    0.0000      0.750000                               +
 +    -0.3091   -0.0000    0.0000                                             +
 +     0.0000    0.0000   -0.0000                                             +
 +                                                                            +
 + Mode number:  23 Raman tensor       Depolarisation Ratio                   +
 +     0.0000    0.0000    0.0000      0.000000                               +
 +     0.0000    0.0000    0.0000                                             +
 +     0.0000    0.0000    0.0000                                             +
 +                                                                            +
 + Mode number:  24 Raman tensor       Depolarisation Ratio                   +
 +     0.0000    0.0000    0.0000      0.000000                               +
 +     0.0000    0.0000    0.0000                                             +
 +     0.0000    0.0000    0.0000                                             +
 +                                                                            +
 + Mode number:  25 Raman tensor       Depolarisation Ratio                   +
 +     0.0000    0.0000    0.0000      0.000000                               +
 +     0.0000    0.0000    0.0000                                             +
 +     0.0000    0.0000    0.0000                                             +
 +                                                                            +
 + Mode number:  26 Raman tensor       Depolarisation Ratio                   +
 +     0.0000    0.0000    0.0000      0.000000                               +
 +     0.0000    0.0000    0.0000                                             +
 +     0.0000    0.0000    0.0000                                             +
 +                                                                            +
 + Mode number:  27 Raman tensor       Depolarisation Ratio                   +
 +     0.0000    0.0000    0.0000      0.000000                               +
 +     0.0000    0.0000    0.0000                                             +
 +     0.0000    0.0000    0.0000                                             +
 +                                                                            +
 + Mode number:  28 Raman tensor       Depolarisation Ratio                   +
 +     0.0000    0.0000    0.0000      0.000000                               +
 +     0.0000    0.0000    0.0000                                             +
 +     0.0000    0.0000    0.0000                                             +
 +                                                                            +
 + Mode number:  29 Raman tensor       Depolarisation Ratio                   +
 +     0.0000    0.0000    0.0000      0.000000                               +
 +     0.0000    0.0000    0.0000                                             +
 +     0.0000    0.0000    0.0000                                             +
 +                                                                            +
 + Mode number:  30 Raman tensor       Depolarisation Ratio                   +
 +     0.0000    0.0000    0.0000      0.000000                               +
 +     0.0000    0.0000    0.0000                                             +
 +     0.0000    0.0000    0.0000                                             +
 +                                                                            +
 + Mode number:  31 Raman tensor       Depolarisation Ratio                   +
 +     0.0000    0.0000    0.0000      0.000000                               +
 +     0.0000    0.0000    0.0000                                             +
 +     0.0000    0.0000    0.0000                                             +
 +                                                                            +
 + Mode number:  32 Raman tensor       Depolarisation Ratio                   +
 +     0.0000    0.0000    0.0000      0.000000                               +
 +     0.0000    0.0000    0.0000                                             +
 +     0.0000    0.0000    0.0000                                             +
 +                                                                            +
 + Mode number:  33 Raman tensor       Depolarisation Ratio                   +
 +    -0.0000    0.0000    0.0000      0.750000                               +
 +     0.0000   -0.0000    0.0552                                             +
 +     0.0000    0.0552   -0.0000                                             +
 +                                                                            +
 + Mode number:  34 Raman tensor       Depolarisation Ratio                   +
 +    -0.0000    0.0860    0.0000      0.750000                               +
 +     0.0860   -0.0000    0.0000                                             +
 +     0.0000    0.0000   -0.0000                                             +
 +                                                                            +
 + Mode number:  35 Raman tensor       Depolarisation Ratio                   +
 +     0.0000    0.0000    0.0000      0.000000                               +
 +     0.0000    0.0000    0.0000                                             +
 +     0.0000    0.0000    0.0000                                             +
 +                                                                            +
 + Mode number:  36 Raman tensor       Depolarisation Ratio                   +
 +     0.0000    0.0000    0.0000      0.000000                               +
 +     0.0000    0.0000    0.0000                                             +
 +     0.0000    0.0000    0.0000                                             +
 +                                                                            +
 + Mode number:  37 Raman tensor       Depolarisation Ratio                   +
 +    -0.0000    0.0000    0.0729      0.750000                               +
 +     0.0000   -0.0000    0.0000                                             +
 +     0.0729    0.0000   -0.0000                                             +
 +                                                                            +
 + Mode number:  38 Raman tensor       Depolarisation Ratio                   +
 +     0.0000    0.0000    0.0000      0.000000                               +
 +     0.0000    0.0000    0.0000                                             +
 +     0.0000    0.0000    0.0000                                             +
 +                                                                            +
 + Mode number:  39 Raman tensor       Depolarisation Ratio                   +
 +     0.0000    0.0000    0.0000      0.000000                               +
 +     0.0000    0.0000    0.0000                                             +
 +     0.0000    0.0000    0.0000                                             +
 +                                                                            +
 + Mode number:  40 Raman tensor       Depolarisation Ratio                   +
 +     0.0000    0.0000    0.0000      0.000000                               +
 +     0.0000    0.0000    0.0000                                             +
 +     0.0000    0.0000    0.0000                                             +
 +                                                                            +
 + Mode number:  41 Raman tensor       Depolarisation Ratio                   +
 +     2.5251    0.0000    0.0000      0.017362                               +
 +     0.0000    1.9959    0.0000                                             +
 +     0.0000    0.0000    1.3583                                             +
 +                                                                            +
 + Mode number:  42 Raman tensor       Depolarisation Ratio                   +
 +     0.0000    0.0000    0.0000      0.000000                               +
 +     0.0000    0.0000    0.0000                                             +
 +     0.0000    0.0000    0.0000                                             +
 +                                                                            +
 + Mode number:  43 Raman tensor       Depolarisation Ratio                   +
 +     0.0000    0.0000    0.0000      0.000000                               +
 +     0.0000    0.0000    0.0000                                             +
 +     0.0000    0.0000    0.0000                                             +
 +                                                                            +
 + Mode number:  44 Raman tensor       Depolarisation Ratio                   +
 +    -0.8078    0.0000    0.0000      0.235583                               +
 +     0.0000    0.0422    0.0000                                             +
 +     0.0000    0.0000   -0.2284                                             +
 +                                                                            +
 + Mode number:  45 Raman tensor       Depolarisation Ratio                   +
 +     0.0000    0.0000    0.0000      0.000000                               +
 +     0.0000    0.0000    0.0000                                             +
 +     0.0000    0.0000    0.0000                                             +
 +                                                                            +
 + Mode number:  46 Raman tensor       Depolarisation Ratio                   +
 +    -0.0000   -0.4546    0.0000      0.750000                               +
 +    -0.4546   -0.0000    0.0000                                             +
 +     0.0000    0.0000   -0.0000                                             +
 +                                                                            +
 + Mode number:  47 Raman tensor       Depolarisation Ratio                   +
 +     0.0000    0.0000    0.0000      0.000000                               +
 +     0.0000    0.0000    0.0000                                             +
 +     0.0000    0.0000    0.0000                                             +
 +                                                                            +
 + Mode number:  48 Raman tensor       Depolarisation Ratio                   +
 +     0.0000    0.0000    0.0000      0.000000                               +
 +     0.0000    0.0000    0.0000                                             +
 +     0.0000    0.0000    0.0000                                             +
 +                                                                            +
 +----------------------------------------------------------------------------+
  

 ******************** Symmetrised Forces ********************
 *                                                          *
 *               Cartesian components (eV/A)                *
 * -------------------------------------------------------- *
 *                         x            y            z      *
 *                                                          *
 * H               1     -0.00000      0.00000      0.00000 *
 * H               2      0.00000      0.00000      0.00000 *
 * H               3     -0.00000     -0.00000      0.00000 *
 * H               4      0.00000     -0.00000      0.00000 *
 * H               5      0.00000      0.00000     -0.00000 *
 * H               6     -0.00000      0.00000      0.00000 *
 * H               7      0.00000      0.00000      0.00000 *
 * H               8     -0.00000      0.00000     -0.00000 *
 * H               9     -0.00000      0.00000      0.00000 *
 * H              10      0.00000      0.00000      0.00000 *
 * H              11     -0.00000     -0.00000      0.00000 *
 * H              12      0.00000     -0.00000      0.00000 *
 * H              13      0.00000      0.00000      0.00000 *
 * H              14     -0.00000      0.00000     -0.00000 *
 * H              15      0.00000      0.00000      0.00000 *
 * H              16     -0.00000      0.00000      0.00000 *
 *                                                          *
 ************************************************************

 *********** Symmetrised Stress Tensor ***********
 *                                               *
 *          Cartesian components (GPa)           *
 * --------------------------------------------- *
 *             x             y             z     *
 *                                               *
 *  x    -29.997945      0.000000      0.000000  *
 *  y      0.000000    -29.997943      0.000000  *
 *  z      0.000000      0.000000    -29.997943  *
 *                                               *
 *  Pressure:   29.9979                          *
 *                                               *
 *************************************************

 Pseudo atomic calculation performed for H 1s1

 Converged in 24 iterations to a total energy of -12.4843 eV

Charge spilling parameter for spin component 1 = 0.78%

            Orbital Populations       
     Ion    Atom   Orbital             Charge
  -------------------------------------------
      H     1      S                    0.998
      H     2      S                    1.001
      H     3      S                    1.001
      H     4      S                    0.998
      H     5      S                    1.001
      H     6      S                    1.001
      H     7      S                    1.000
      H     8      S                    1.000
      H     9      S                    0.998
      H    10      S                    1.001
      H    11      S                    1.001
      H    12      S                    0.998
      H    13      S                    1.001
      H    14      S                    1.001
      H    15      S                    1.000
      H    16      S                    1.000
  -------------------------------------------
                           Total:      16.000
  -------------------------------------------

     Atomic Populations (Mulliken)
     -----------------------------
Species          Ion     s      p      d      f     Total  Charge (e)
=====================================================================
  H               1     1.00   0.00   0.00   0.00   1.00     0.00
  H               2     1.00   0.00   0.00   0.00   1.00     0.00
  H               3     1.00   0.00   0.00   0.00   1.00     0.00
  H               4     1.00   0.00   0.00   0.00   1.00     0.00
  H               5     1.00   0.00   0.00   0.00   1.00    -0.00
  H               6     1.00   0.00   0.00   0.00   1.00    -0.00
  H               7     1.00   0.00   0.00   0.00   1.00    -0.00
  H               8     1.00   0.00   0.00   0.00   1.00    -0.00
  H               9     1.00   0.00   0.00   0.00   1.00     0.00
  H              10     1.00   0.00   0.00   0.00   1.00     0.00
  H              11     1.00   0.00   0.00   0.00   1.00     0.00
  H              12     1.00   0.00   0.00   0.00   1.00     0.00
  H              13     1.00   0.00   0.00   0.00   1.00    -0.00
  H              14     1.00   0.00   0.00   0.00   1.00    -0.00
  H              15     1.00   0.00   0.00   0.00   1.00    -0.00
  H              16     1.00   0.00   0.00   0.00   1.00    -0.00
=====================================================================

                 Bond                   Population      Length (A)
======================================================================
              H 6  -- H 7                    1.31        0.73757
              H 5  -- H 8                    1.31        0.73757
              H 14 -- H 15                   1.31        0.73757
              H 13 -- H 16                   1.31        0.73757
              H 2  -- H 3                    1.31        0.73894
              H 1  -- H 4                    1.31        0.73894
              H 10 -- H 11                   1.31        0.73894
              H 9  -- H 12                   1.31        0.73894
              H 8  -- H 15                  -0.18        1.74011
              H 7  -- H 16                  -0.18        1.74011
              H 6  -- H 13                  -0.18        1.74011
              H 5  -- H 14                  -0.18        1.74011
              H 4  -- H 10                  -0.19        1.79607
              H 3  -- H 9                   -0.19        1.79607
              H 2  -- H 12                  -0.19        1.79607
              H 1  -- H 11                  -0.19        1.79607
              H 4  -- H 15                  -0.08        1.83923
              H 4  -- H 13                  -0.08        1.83923
              H 3  -- H 16                  -0.08        1.83923
              H 3  -- H 14                  -0.08        1.83923
              H 2  -- H 15                  -0.08        1.83923
              H 2  -- H 13                  -0.08        1.83923
              H 1  -- H 16                  -0.08        1.83923
              H 1  -- H 14                  -0.08        1.83923
              H 8  -- H 11                  -0.08        1.83923
              H 8  -- H 9                   -0.08        1.83923
              H 7  -- H 12                  -0.08        1.83923
              H 7  -- H 10                  -0.08        1.83923
              H 6  -- H 11                  -0.08        1.83923
              H 6  -- H 9                   -0.08        1.83923
              H 5  -- H 12                  -0.08        1.83923
              H 5  -- H 10                  -0.08        1.83923
              H 4  -- H 11                  -0.20        1.92327
              H 3  -- H 12                  -0.20        1.92327
              H 2  -- H 9                   -0.20        1.92327
              H 1  -- H 10                  -0.20        1.92327
              H 12 -- H 16                  -0.09        1.96703
              H 12 -- H 14                  -0.09        1.96703
              H 11 -- H 15                  -0.09        1.96703
              H 11 -- H 13                  -0.09        1.96703
              H 10 -- H 16                  -0.09        1.96703
              H 10 -- H 14                  -0.09        1.96703
              H 9  -- H 15                  -0.09        1.96703
              H 9  -- H 13                  -0.09        1.96703
              H 4  -- H 8                   -0.09        1.96703
              H 4  -- H 6                   -0.09        1.96703
              H 3  -- H 7                   -0.09        1.96703
              H 3  -- H 5                   -0.09        1.96703
              H 2  -- H 8                   -0.09        1.96703
              H 2  -- H 6                   -0.09        1.96703
              H 1  -- H 7                   -0.09        1.96703
              H 1  -- H 5                   -0.09        1.96703
              H 4  -- H 7                   -0.09        2.03967
              H 4  -- H 5                   -0.09        2.03967
              H 3  -- H 8                   -0.09        2.03967
              H 3  -- H 6                   -0.09        2.03967
              H 2  -- H 7                   -0.09        2.03967
              H 2  -- H 5                   -0.09        2.03967
              H 1  -- H 8                   -0.09        2.03967
              H 1  -- H 6                   -0.09        2.03967
              H 12 -- H 15                  -0.09        2.03967
              H 12 -- H 13                  -0.09        2.03967
              H 11 -- H 16                  -0.09        2.03967
              H 11 -- H 14                  -0.09        2.03967
              H 10 -- H 15                  -0.09        2.03967
              H 10 -- H 13                  -0.09        2.03967
              H 9  -- H 16                  -0.09        2.03967
              H 9  -- H 14                  -0.09        2.03967
              H 4  -- H 16                  -0.09        2.07618
              H 4  -- H 14                  -0.09        2.07618
              H 3  -- H 15                  -0.09        2.07618
              H 3  -- H 13                  -0.09        2.07618
              H 2  -- H 16                  -0.09        2.07618
              H 2  -- H 14                  -0.09        2.07618
              H 1  -- H 15                  -0.09        2.07618
              H 1  -- H 13                  -0.09        2.07618
              H 8  -- H 12                  -0.09        2.07618
              H 8  -- H 10                  -0.09        2.07618
              H 7  -- H 11                  -0.09        2.07618
              H 7  -- H 9                   -0.09        2.07618
              H 6  -- H 12                  -0.09        2.07618
              H 6  -- H 10                  -0.09        2.07618
              H 5  -- H 11                  -0.09        2.07618
              H 5  -- H 9                   -0.09        2.07618
              H 8  -- H 14                  -0.21        2.18221
              H 7  -- H 13                  -0.21        2.18221
              H 6  -- H 16                  -0.21        2.18221
              H 5  -- H 15                  -0.21        2.18221
======================================================================


Writing analysis data to Hibam.castep_bin

Writing model to Hibam.check
 
 A BibTeX formatted list of references used in this run has been written to 
 Hibam.bib
 
Initialisation time =      3.02 s
Calculation time    =   9332.91 s
Finalisation time   =      1.01 s
Total time          =   9336.94 s
Peak Memory Use     = 635216 kB
  
Overall parallel efficiency rating: Excellent (91%)                             
  
Data was distributed by:-
k-point (8-way); efficiency rating: Excellent (92%)                             
