 +-------------------------------------------------+
 |                                                 |
 |      CCC   AA    SSS  TTTTT  EEEEE  PPPP        |
 |     C     A  A  S       T    E      P   P       |
 |     C     AAAA   SS     T    EEE    PPPP        |
 |     C     A  A     S    T    E      P           |
 |      CCC  A  A  SSS     T    EEEEE  P           |
 |                                                 |
 +-------------------------------------------------+
 |                                                 |
 | Welcome to Academic Release CASTEP version 18.1 |          
 | Ab Initio Total Energy Program                  |
 |                                                 |
 | Authors:                                        |
 | M. Segall, M. Probert, C. Pickard, P. Hasnip,   |
 | S. Clark, K. Refson, J. R. Yates, M. Payne      |
 |                                                 |
 | Contributors:                                   |
 | P. Lindan, P. Haynes, J. White, V. Milman,      |
 | N. Govind, M. Gibson, P. Tulip, V. Cocula,      |
 | B. Montanari, D. Quigley, M. Glover,            |
 | L. Bernasconi, A. Perlov, M. Plummer,           |
 | E. McNellis, J. Meyer, J. Gale, D. Jochym       |
 | J. Aarons, B. Walker, R. Gillen, D. Jones       |
 | T. Green, I. J. Bush, C. J. Armstrong,          |
 | E. J. Higgins, E. L. Brown, M. S. McFly,        |
 | J. Wilkins, B-C. Shih, P. J. P. Byrne           |
 |                                                 |
 | Copyright (c) 2000 - 2017                       |
 |                                                 |
 |     Distributed under the terms of an           |
 |     Agreement between the United Kingdom        |
 |     Car-Parrinello (UKCP) Consortium,           |
 |     Daresbury Laboratory and Accelrys, Inc.     |
 |                                                 |
 | Please cite                                     |
 |                                                 |
 |     "First principles methods using CASTEP"     |
 |                                                 |
 |         Zeitschrift fuer Kristallographie       |
 |           220(5-6) pp. 567-570 (2005)           |
 |                                                 |
 | S. J. Clark, M. D. Segall, C. J. Pickard,       |
 | P. J. Hasnip, M. J. Probert, K. Refson,         |
 | M. C. Payne                                     |
 |                                                 |
 |       in all publications arising from          |
 |              your use of CASTEP                 |
 |                                                 |
 +-------------------------------------------------+


 Compiled for linux_x86_64_gfortran4.8 on Thu, 19 Jul 2018 15:42:32 +0100
 from code version 70483bd0ad64+  Sun, 10 Dec 2017 12:18:29 +0000
 Compiler: GNU Fortran 4.8.5; Optimisation: fast
 MATHLIBS: Intel MKL(2018.0.0) (LAPACK version 3.7.0)
 FFT Lib : mkl
 Fundamental constants values: CODATA 2014

 Run started: Fri, 31 Jul 2020 14:30:45 +0100

 Atomic calculation performed for H: 1s1

 Converged in 41 iterations to an ae energy of -12.488 eV

   ============================================================                
   | Pseudopotential Report - Date of generation 31-07-2020   |                
   ------------------------------------------------------------                
   | Element: H Ionic charge:  1.00 Level of theory: PBE      |                
   | Atomic Solver: Koelling-Harmon                           |                
   |                                                          |                
   |               Reference Electronic Structure             |                
   |         Orbital         Occupation         Energy        |                
   |            1s              1.000           -0.239        |                
   |                                                          |                
   |                 Pseudopotential Definition               |                
   |        Beta     l      e      Rc     scheme   norm       |                
   |         loc     0   -0.239   0.702     qc      1         |                
   |                                                          |                
   | No charge augmentation                                   |                
   | No partial core correction                               |                
   ------------------------------------------------------------                
   | "0|0.7|2|6|8|10L(qc=10)"                                 |                
   ------------------------------------------------------------                
   |      Author: Chris J. Pickard, Cambridge University      |                
   ============================================================                

 Pseudo atomic calculation performed for H 1s1

 Converged in 24 iterations to a total energy of -12.4843 eV

 Calculation parallelised over 8 processes.
 Data is distributed by k-point(8-way)

 ************************************ Title ************************************
 

 ***************************** General Parameters ******************************
  
 output verbosity                               : normal  (1)
 write checkpoint data to                       : Cmca4.check
 type of calculation                            : geometry optimization
 stress calculation                             : on
 density difference calculation                 : off
 electron localisation func (ELF) calculation   : off
 Hirshfeld analysis                             : off
 unlimited duration calculation
 timing information                             : on
 memory usage estimate                          : on
 write extra output files                       : on
 write final potential to formatted file        : off
 write final density to formatted file          : off
 write structure in CELL formatted file         : on
 write BibTeX reference list                    : on
 write OTFG pseudopotential files               : on
 write electrostatic potential file             : on
 write bands file                               : on
 checkpoint writing                             : both castep_bin and check files
  
 output         length unit                     : A
 output           mass unit                     : amu
 output           time unit                     : ps
 output         charge unit                     : e
 output           spin unit                     : hbar/2
 output         energy unit                     : eV
 output          force unit                     : eV/A
 output       velocity unit                     : A/ps
 output       pressure unit                     : GPa
 output     inv_length unit                     : 1/A
 output      frequency unit                     : cm-1
 output force constant unit                     : eV/A**2
 output         volume unit                     : A**3
 output   IR intensity unit                     : (D/A)**2/amu
 output         dipole unit                     : D
 output         efield unit                     : eV/A/e
 output        entropy unit                     : J/mol/K
  
 wavefunctions paging                           : none
 random number generator seed                   : randomised (143045708)
 data distribution                              : optimal for this architecture
 optimization strategy                          : minimize memory(---)

 *********************** Exchange-Correlation Parameters ***********************
  
 using functional                               : Perdew Burke Ernzerhof
 relativistic treatment                         : Koelling-Harmon
 DFT+D: Semi-empirical dispersion correction    : off

 ************************* Pseudopotential Parameters **************************
  
 pseudopotential representation                 : reciprocal space
 <beta|phi> representation                      : reciprocal space
 spin-orbit coupling                            : off

 **************************** Basis Set Parameters *****************************
  
 plane wave basis set cut-off                   :  1200.0000   eV
 size of standard grid                          :     2.0000
 size of   fine   gmax                          :    35.4943   1/A
 finite basis set correction                    : automatic
 number of sample energies                      :          3
           sample  spacing                      :     5.0000   eV

 **************************** Electronic Parameters ****************************
  
 number of  electrons                           :  8.000    
 net charge of system                           :  0.000    
 treating system as non-spin-polarized
 number of bands                                :          4

 ********************* Electronic Minimization Parameters **********************
  
 Method: Treating system as non-metallic,
         and number of  SD  steps               :          1
         and number of  CG  steps               :          4
  
 total energy / atom convergence tol.           : 0.1000E-10   eV
 eigen-energy convergence tolerance             : 0.2000E-10   eV
 max force / atom convergence tol.              : ignored
 convergence tolerance window                   :          3   cycles
 max. number of SCF cycles                      :        100
 periodic dipole correction                     : NONE

 ************************** Density Mixing Parameters **************************
  
 density-mixing scheme                          : Broyden
 max. length of mixing history                  :         20
 charge density mixing amplitude                : 0.8000    
 cut-off energy for mixing                      :  1200.       eV

 *********************** Population Analysis Parameters ************************
  
 Population analysis with cutoff                :  3.000       A
 Population analysis output                     : summary and pdos components

 ********************** Geometry Optimization Parameters ***********************
  
 optimization method                            : LBFGS
 max. no. of LBFGS updates                      : unbounded
 variable cell method                           : fixed basis quality
 max. number of steps                           :         60
 estimated bulk modulus                         :  500.0       GPa
 estimated <frequency>                          :  1668.       cm-1
 geom line minimiser                            : on
 with line minimiser tolerance                  :     0.4000
 total energy convergence tolerance             : 0.1000E-08   eV/atom
        max ionic |force| tolerance             : 0.1000E-03   eV/A
 max ionic |displacement| tolerance             : 0.1000E-03   A
   max |stress component| tolerance             : 0.1000E-03   GPa
 convergence tolerance window                   :          2   steps
 backup results every                           :      14400   seconds
 write geom trajectory file                     : on

 *******************************************************************************
  

                           -------------------------------
                                      Unit Cell
                           -------------------------------
        Real Lattice(A)                      Reciprocal Lattice(1/A)
     1.6241320     0.0000000     0.0000000        3.868642003  -0.000000000   0.000000000
     0.0000000     2.8041912     0.0000000       -0.000000000   2.240640845   0.000000000
     0.0000000     0.0000000     2.5435356        0.000000000   0.000000000   2.470256529

                       Lattice parameters(A)       Cell Angles
                    a =      1.624132          alpha =   90.000000
                    b =      2.804191          beta  =   90.000000
                    c =      2.543536          gamma =   90.000000

                       Current cell volume =            11.584219       A**3
                                   density =             0.696078   AMU/A**3
                                           =             1.155865     g/cm^3

                           -------------------------------
                                     Cell Contents
                           -------------------------------
                         Total number of ions in cell =    8
                      Total number of species in cell =    1
                        Max number of any one species =    8

            xxxxxxxxxxxxxxxxxxxxxxxxxxxxxxxxxxxxxxxxxxxxxxxxxxxxxxxxxxxx
            x  Element    Atom        Fractional coordinates of atoms  x
            x            Number           u          v          w      x
            x----------------------------------------------------------x
            x  H            1        -0.000000   0.372989   0.439474   x 
            x  H            2         0.000000   0.127011   0.939474   x 
            x  H            3         0.000000   0.872989   0.060526   x 
            x  H            4        -0.000000   0.627011   0.560526   x 
            x  H            5         0.500000   0.872989   0.439474   x 
            x  H            6         0.500000   0.627011   0.939474   x 
            x  H            7         0.500000   0.372989   0.060526   x 
            x  H            8         0.500000   0.127011   0.560526   x 
            xxxxxxxxxxxxxxxxxxxxxxxxxxxxxxxxxxxxxxxxxxxxxxxxxxxxxxxxxxxx


                         No user defined ionic velocities

                           -------------------------------
                                   Details of Species
                           -------------------------------

                               Mass of species in AMU
                                    H    1.0079400

                          Electric Quadrupole Moment (Barn)
                                    H    0.0028600 Isotope  2

                          Files used for pseudopotentials:
                                    H 0|0.7|2|6|8|10L(qc=10)

                           -------------------------------
                              k-Points For BZ Sampling
                           -------------------------------
                       MP grid size for SCF calculation is 11 11 11
                            with an offset of   0.000  0.000  0.000
                       Number of kpoints used =           216

                           -------------------------------
                               Symmetry and Constraints
                           -------------------------------

                      Cell is a supercell containing 2 primitive cells
                      Maximum deviation from symmetry = 0.317688E-15     ANG

                      Number of symmetry operations   =          16
                      Number of ionic constraints     =           3
                      Point group of crystal =     8: D2h, mmm, 2/m 2/m 2/m
                      Space group of crystal =    64: Cmce, -C 2bc 2

             Set iprint > 1 for details on symmetry rotations/translations

                         Centre of mass is constrained
             Set iprint > 1 for details of linear ionic constraints

                         Number of cell constraints= 3
                         Cell constraints are:  1 2 3 0 0 0

                         External pressure/stress (GPa)
                        300.00000   0.00000   0.00000
                                  300.00000   0.00000
                                            300.00000
  
+---------------- MEMORY AND SCRATCH DISK ESTIMATES PER PROCESS --------------+
|                                                     Memory          Disk    |
| Baseline code, static data and system overhead      382.0 MB         0.0 MB |
| BLAS internal memory storage                          0.0 MB         0.0 MB |
| Model and support data                               16.1 MB         0.0 MB |
| Electronic energy minimisation requirements           4.5 MB         3.7 MB |
| Force calculation requirements                        1.9 MB         0.0 MB |
| Stress calculation requirements                       2.5 MB         0.0 MB |
|                                               ----------------------------- |
| Approx. total storage required per process          402.5 MB         3.7 MB |
|                                                                             |
| Requirements will fluctuate during execution and may exceed these estimates |
+-----------------------------------------------------------------------------+
Calculating finite basis set correction with  3 cut-off energies.
Calculating total energy with cut-off of 1190.000 eV.
------------------------------------------------------------------------ <-- SCF
SCF loop      Energy                           Energy gain       Timer   <-- SCF
                                               per atom          (sec)   <-- SCF
------------------------------------------------------------------------ <-- SCF
Initial   1.72940886E+002                                          5.31  <-- SCF
      1  -1.02316876E+002                    3.44072202E+001       6.47  <-- SCF
      2  -1.13491886E+002                    1.39687620E+000       7.33  <-- SCF
      3  -1.13430545E+002                   -7.66755407E-003       8.76  <-- SCF
      4  -1.13429725E+002                   -1.02525449E-004      10.25  <-- SCF
      5  -1.13429808E+002                    1.03572133E-005      11.64  <-- SCF
      6  -1.13429814E+002                    7.90025899E-007      13.04  <-- SCF
      7  -1.13429814E+002                    1.37081386E-009      14.57  <-- SCF
      8  -1.13429814E+002                    6.44001647E-011      15.66  <-- SCF
      9  -1.13429814E+002                    2.09360202E-012      16.65  <-- SCF
     10  -1.13429814E+002                    5.74003439E-014      17.75  <-- SCF
------------------------------------------------------------------------ <-- SCF
 
Final energy =  -113.4298142471     eV
(energy not corrected for finite basis set)
 
Calculating total energy with cut-off of 1195.000 eV.
------------------------------------------------------------------------ <-- SCF
SCF loop      Energy                           Energy gain       Timer   <-- SCF
                                               per atom          (sec)   <-- SCF
------------------------------------------------------------------------ <-- SCF
Initial  -1.13429814E+002                                         18.82  <-- SCF
      1  -1.13430502E+002                    8.59658149E-005      19.79  <-- SCF
      2  -1.13430502E+002                    1.70974477E-010      21.18  <-- SCF
      3  -1.13430502E+002                    2.54333311E-008      22.72  <-- SCF
      4  -1.13430502E+002                    1.10445210E-009      24.28  <-- SCF
      5  -1.13430502E+002                    4.13584583E-012      25.35  <-- SCF
      6  -1.13430502E+002                    7.25056975E-014      26.49  <-- SCF
------------------------------------------------------------------------ <-- SCF
 
Final energy =  -113.4305021873     eV
(energy not corrected for finite basis set)
 
Calculating total energy with cut-off of 1200.000 eV.
------------------------------------------------------------------------ <-- SCF
SCF loop      Energy                           Energy gain       Timer   <-- SCF
                                               per atom          (sec)   <-- SCF
------------------------------------------------------------------------ <-- SCF
Initial  -1.13430502E+002                                         27.51  <-- SCF
      1  -1.13431189E+002                    8.58060937E-005      28.51  <-- SCF
      2  -1.13431189E+002                    1.62337236E-010      30.01  <-- SCF
      3  -1.13431189E+002                    2.55414582E-008      31.44  <-- SCF
      4  -1.13431189E+002                    1.14550543E-009      32.98  <-- SCF
      5  -1.13431189E+002                    4.23856223E-012      34.07  <-- SCF
      6  -1.13431189E+002                    3.80654912E-013      35.29  <-- SCF
------------------------------------------------------------------------ <-- SCF
 
Final energy =  -113.4311888509     eV
(energy not corrected for finite basis set)
 
 For future reference: finite basis dEtot/dlog(Ecut) =      -0.165390eV
 Total energy corrected for finite basis set =    -113.431189 eV
 
+---------------- MEMORY AND SCRATCH DISK ESTIMATES PER PROCESS --------------+
|                                                     Memory          Disk    |
| Model and support data                               26.2 MB         0.0 MB |
| Electronic energy minimisation requirements           4.5 MB         3.7 MB |
| Geometry minimisation requirements                    6.9 MB         3.7 MB |
|                                               ----------------------------- |
| Approx. total storage required per process           37.6 MB         7.3 MB |
|                                                                             |
| Requirements will fluctuate during execution and may exceed these estimates |
+-----------------------------------------------------------------------------+
 

 ******************************** Symmetrised Forces ********************************
 *                                                                                  *
 *                           Cartesian components (eV/A)                            *
 * -------------------------------------------------------------------------------- *
 *                         x                    y                    z              *
 *                                                                                  *
 * H               1      0.00000              0.00008             -0.00018         *
 * H               2     -0.00000             -0.00008             -0.00018         *
 * H               3     -0.00000              0.00008              0.00018         *
 * H               4     -0.00000             -0.00008              0.00018         *
 * H               5      0.00000              0.00008             -0.00018         *
 * H               6     -0.00000             -0.00008             -0.00018         *
 * H               7     -0.00000              0.00008              0.00018         *
 * H               8     -0.00000             -0.00008              0.00018         *
 *                                                                                  *
 ************************************************************************************

 *********** Symmetrised Stress Tensor ***********
 *                                               *
 *          Cartesian components (GPa)           *
 * --------------------------------------------- *
 *             x             y             z     *
 *                                               *
 *  x   -301.524212      0.000000      0.000000  *
 *  y      0.000000   -301.525147      0.000000  *
 *  z      0.000000      0.000000   -301.523452  *
 *                                               *
 *  Pressure:  301.5243                          *
 *                                               *
 *************************************************
 LBFGS: finished iteration     0 with enthalpy= -9.17402870E+001 eV
  
 +-----------+-----------------+-----------------+------------+-----+ <-- LBFGS
 | Parameter |      value      |    tolerance    |    units   | OK? | <-- LBFGS
 +-----------+-----------------+-----------------+------------+-----+ <-- LBFGS
 |  dE/ion   |   0.000000E+000 |   1.000000E-009 |         eV | No  | <-- LBFGS
 |  |F|max   |   1.992208E-004 |   1.000000E-004 |       eV/A | No  | <-- LBFGS
 |  |dR|max  |   0.000000E+000 |   1.000000E-004 |          A | No  | <-- LBFGS
 |   Smax    |   1.525147E+000 |   1.000000E-004 |        GPa | No  | <-- LBFGS
 +-----------+-----------------+-----------------+------------+-----+ <-- LBFGS
  

================================================================================
 Starting LBFGS iteration          1 ...
================================================================================
  
 +------------+-------------+-------------+-----------------+ <-- min LBFGS
 |    Step    |   lambda    |   F.delta'  |    enthalpy     | <-- min LBFGS
 +------------+-------------+-------------+-----------------+ <-- min LBFGS
 |  previous  |    0.000000 |    0.007015 |      -91.740287 | <-- min LBFGS
 +------------+-------------+-------------+-----------------+ <-- min LBFGS
  

--------------------------------------------------------------------------------
 LBFGS: starting iteration         1 with trial guess (lambda=  1.000000)
--------------------------------------------------------------------------------
 
+---------------- MEMORY AND SCRATCH DISK ESTIMATES PER PROCESS --------------+
|                                                     Memory          Disk    |
| Model and support data                               26.2 MB         0.0 MB |
| Electronic energy minimisation requirements           4.5 MB         3.7 MB |
| Geometry minimisation requirements                    7.0 MB         3.7 MB |
|                                               ----------------------------- |
| Approx. total storage required per process           37.7 MB         7.3 MB |
|                                                                             |
| Requirements will fluctuate during execution and may exceed these estimates |
+-----------------------------------------------------------------------------+
 

                           -------------------------------
                                      Unit Cell
                           -------------------------------
        Real Lattice(A)              Reciprocal Lattice(1/A)
     1.6257824     0.0000000     0.0000000        3.864714906  -0.000000000   0.000000000
     0.0000000     2.8070424     0.0000000       -0.000000000   2.238364954   0.000000000
     0.0000000     0.0000000     2.5461189        0.000000000   0.000000000   2.467750197

                       Lattice parameters(A)       Cell Angles
                    a =      1.625782          alpha =   90.000000
                    b =      2.807042          beta  =   90.000000
                    c =      2.546119          gamma =   90.000000

                Current cell volume =            11.619570 A**3

                           -------------------------------
                                     Cell Contents
                           -------------------------------

            xxxxxxxxxxxxxxxxxxxxxxxxxxxxxxxxxxxxxxxxxxxxxxxxxxxxxxxxxxxxxxxxx
            x  Element         Atom        Fractional coordinates of atoms  x
            x                 Number           u          v          w      x
            x---------------------------------------------------------------x
            x  H                 1        -0.000000   0.372992   0.439467   x
            x  H                 2        -0.000000   0.127008   0.939467   x
            x  H                 3         0.000000   0.872992   0.060533   x
            x  H                 4        -0.000000   0.627008   0.560533   x
            x  H                 5         0.500000   0.872992   0.439467   x
            x  H                 6         0.500000   0.627008   0.939467   x
            x  H                 7         0.500000   0.372992   0.060533   x
            x  H                 8         0.500000   0.127008   0.560533   x
            xxxxxxxxxxxxxxxxxxxxxxxxxxxxxxxxxxxxxxxxxxxxxxxxxxxxxxxxxxxxxxxxx


------------------------------------------------------------------------ <-- SCF
SCF loop      Energy                           Energy gain       Timer   <-- SCF
                                               per atom          (sec)   <-- SCF
------------------------------------------------------------------------ <-- SCF
Initial  -1.13497061E+002                                         37.67  <-- SCF
      1  -1.13497419E+002                    4.47626906E-005      38.76  <-- SCF
      2  -1.13497419E+002                    3.12580853E-008      40.22  <-- SCF
      3  -1.13497419E+002                    4.47589876E-008      41.54  <-- SCF
      4  -1.13497419E+002                    4.70465605E-009      43.08  <-- SCF
      5  -1.13497419E+002                    4.45789197E-011      44.18  <-- SCF
      6  -1.13497419E+002                    3.66757987E-012      45.34  <-- SCF
      7  -1.13497419E+002                    2.38664588E-013      46.59  <-- SCF
------------------------------------------------------------------------ <-- SCF
 
Final energy =  -113.4974193752     eV
(energy not corrected for finite basis set)
 

 ******************************** Symmetrised Forces ********************************
 *                                                                                  *
 *                           Cartesian components (eV/A)                            *
 * -------------------------------------------------------------------------------- *
 *                         x                    y                    z              *
 *                                                                                  *
 * H               1      0.00000              0.01156              0.00584         *
 * H               2     -0.00000             -0.01156              0.00584         *
 * H               3     -0.00000              0.01156             -0.00584         *
 * H               4     -0.00000             -0.01156             -0.00584         *
 * H               5      0.00000              0.01156              0.00584         *
 * H               6     -0.00000             -0.01156              0.00584         *
 * H               7      0.00000              0.01156             -0.00584         *
 * H               8      0.00000             -0.01156             -0.00584         *
 *                                                                                  *
 ************************************************************************************

 *********** Symmetrised Stress Tensor ***********
 *                                               *
 *          Cartesian components (GPa)           *
 * --------------------------------------------- *
 *             x             y             z     *
 *                                               *
 *  x   -299.228469      0.000000      0.000000  *
 *  y      0.000000   -298.739067      0.000000  *
 *  z      0.000000      0.000000   -299.227759  *
 *                                               *
 *  Pressure:  299.0651                          *
 *                                               *
 *************************************************
  
 +------------+-------------+-------------+-----------------+ <-- min LBFGS
 |    Step    |   lambda    |   F.delta'  |    enthalpy     | <-- min LBFGS
 +------------+-------------+-------------+-----------------+ <-- min LBFGS
 |  previous  |    0.000000 |    0.007015 |      -91.740287 | <-- min LBFGS
 | trial step |    1.000000 |   -0.004314 |      -91.740331 | <-- min LBFGS
 +------------+-------------+-------------+-----------------+ <-- min LBFGS
  
 LBFGS: finished iteration     1 with enthalpy= -9.17403315E+001 eV
  
 +-----------+-----------------+-----------------+------------+-----+ <-- LBFGS
 | Parameter |      value      |    tolerance    |    units   | OK? | <-- LBFGS
 +-----------+-----------------+-----------------+------------+-----+ <-- LBFGS
 |  dE/ion   |   5.564152E-006 |   1.000000E-009 |         eV | No  | <-- LBFGS
 |  |F|max   |   1.295138E-002 |   1.000000E-004 |       eV/A | No  | <-- LBFGS
 |  |dR|max  |   1.934205E-005 |   1.000000E-004 |          A | Yes | <-- LBFGS
 |   Smax    |   1.260933E+000 |   1.000000E-004 |        GPa | No  | <-- LBFGS
 +-----------+-----------------+-----------------+------------+-----+ <-- LBFGS
  

================================================================================
 Starting LBFGS iteration          2 ...
================================================================================
  
 +------------+-------------+-------------+-----------------+ <-- min LBFGS
 |    Step    |   lambda    |   F.delta'  |    enthalpy     | <-- min LBFGS
 +------------+-------------+-------------+-----------------+ <-- min LBFGS
 |  previous  |    0.000000 |    0.005325 |      -91.740331 | <-- min LBFGS
 +------------+-------------+-------------+-----------------+ <-- min LBFGS
  

--------------------------------------------------------------------------------
 LBFGS: starting iteration         2 with trial guess (lambda=  1.000000)
--------------------------------------------------------------------------------

                           -------------------------------
                                      Unit Cell
                           -------------------------------
        Real Lattice(A)              Reciprocal Lattice(1/A)
     1.6255238     0.0000000     0.0000000        3.865329604  -0.000000000   0.000000000
     0.0000000     2.8060286     0.0000000       -0.000000000   2.239173646   0.000000000
     0.0000000     0.0000000     2.5457130        0.000000000   0.000000000   2.468143624

                       Lattice parameters(A)       Cell Angles
                    a =      1.625524          alpha =   90.000000
                    b =      2.806029          beta  =   90.000000
                    c =      2.545713          gamma =   90.000000

                Current cell volume =            11.611675 A**3

                           -------------------------------
                                     Cell Contents
                           -------------------------------

            xxxxxxxxxxxxxxxxxxxxxxxxxxxxxxxxxxxxxxxxxxxxxxxxxxxxxxxxxxxxxxxxx
            x  Element         Atom        Fractional coordinates of atoms  x
            x                 Number           u          v          w      x
            x---------------------------------------------------------------x
            x  H                 1         0.000000   0.373240   0.439604   x
            x  H                 2        -0.000000   0.126760   0.939604   x
            x  H                 3         0.000000   0.873240   0.060396   x
            x  H                 4        -0.000000   0.626760   0.560396   x
            x  H                 5         0.500000   0.873240   0.439604   x
            x  H                 6         0.500000   0.626760   0.939604   x
            x  H                 7         0.500000   0.373240   0.060396   x
            x  H                 8         0.500000   0.126760   0.560396   x
            xxxxxxxxxxxxxxxxxxxxxxxxxxxxxxxxxxxxxxxxxxxxxxxxxxxxxxxxxxxxxxxxx


------------------------------------------------------------------------ <-- SCF
SCF loop      Energy                           Energy gain       Timer   <-- SCF
                                               per atom          (sec)   <-- SCF
------------------------------------------------------------------------ <-- SCF
Initial  -1.13482195E+002                                         49.52  <-- SCF
      1  -1.13482668E+002                    5.91003848E-005      50.75  <-- SCF
      2  -1.13482670E+002                    1.86726971E-007      52.32  <-- SCF
      3  -1.13482649E+002                   -2.61447480E-006      53.98  <-- SCF
      4  -1.13482648E+002                   -1.33126152E-007      55.74  <-- SCF
      5  -1.13482648E+002                    1.56687833E-010      57.23  <-- SCF
      6  -1.13482648E+002                    8.79433689E-012      58.41  <-- SCF
      7  -1.13482648E+002                    1.72201032E-013      59.65  <-- SCF
------------------------------------------------------------------------ <-- SCF
 
Final energy =  -113.4826475680     eV
(energy not corrected for finite basis set)
 

 ******************************** Symmetrised Forces ********************************
 *                                                                                  *
 *                           Cartesian components (eV/A)                            *
 * -------------------------------------------------------------------------------- *
 *                         x                    y                    z              *
 *                                                                                  *
 * H               1      0.00000             -0.01710             -0.00740         *
 * H               2      0.00000              0.01710             -0.00740         *
 * H               3     -0.00000             -0.01710              0.00740         *
 * H               4     -0.00000              0.01710              0.00740         *
 * H               5      0.00000             -0.01710             -0.00740         *
 * H               6      0.00000              0.01710             -0.00740         *
 * H               7     -0.00000             -0.01710              0.00740         *
 * H               8     -0.00000              0.01710              0.00740         *
 *                                                                                  *
 ************************************************************************************

 *********** Symmetrised Stress Tensor ***********
 *                                               *
 *          Cartesian components (GPa)           *
 * --------------------------------------------- *
 *             x             y             z     *
 *                                               *
 *  x   -299.769017      0.000000      0.000000  *
 *  y      0.000000   -300.404247      0.000000  *
 *  z      0.000000      0.000000   -299.830234  *
 *                                               *
 *  Pressure:  300.0012                          *
 *                                               *
 *************************************************
  
 +------------+-------------+-------------+-----------------+ <-- min LBFGS
 |    Step    |   lambda    |   F.delta'  |    enthalpy     | <-- min LBFGS
 +------------+-------------+-------------+-----------------+ <-- min LBFGS
 |  previous  |    0.000000 |    0.005325 |      -91.740331 | <-- min LBFGS
 | trial step |    1.000000 |   -0.004933 |      -91.740342 | <-- min LBFGS
 +------------+-------------+-------------+-----------------+ <-- min LBFGS
  

--------------------------------------------------------------------------------
 LBFGS: improving iteration         2 with line minimization (lambda=  0.519149)
--------------------------------------------------------------------------------

                           -------------------------------
                                      Unit Cell
                           -------------------------------
        Real Lattice(A)              Reciprocal Lattice(1/A)
     1.6256481     0.0000000     0.0000000        3.865034001  -0.000000000   0.000000000
     0.0000000     2.8065161     0.0000000       -0.000000000   2.238784713   0.000000000
     0.0000000     0.0000000     2.5459082        0.000000000   0.000000000   2.467954429

                       Lattice parameters(A)       Cell Angles
                    a =      1.625648          alpha =   90.000000
                    b =      2.806516          beta  =   90.000000
                    c =      2.545908          gamma =   90.000000

                Current cell volume =            11.615471 A**3

                           -------------------------------
                                     Cell Contents
                           -------------------------------

            xxxxxxxxxxxxxxxxxxxxxxxxxxxxxxxxxxxxxxxxxxxxxxxxxxxxxxxxxxxxxxxxx
            x  Element         Atom        Fractional coordinates of atoms  x
            x                 Number           u          v          w      x
            x---------------------------------------------------------------x
            x  H                 1        -0.000000   0.373121   0.439538   x
            x  H                 2        -0.000000   0.126879   0.939538   x
            x  H                 3         0.000000   0.873121   0.060462   x
            x  H                 4        -0.000000   0.626879   0.560462   x
            x  H                 5         0.500000   0.873121   0.439538   x
            x  H                 6         0.500000   0.626879   0.939538   x
            x  H                 7         0.500000   0.373121   0.060462   x
            x  H                 8         0.500000   0.126879   0.560462   x
            xxxxxxxxxxxxxxxxxxxxxxxxxxxxxxxxxxxxxxxxxxxxxxxxxxxxxxxxxxxxxxxxx


------------------------------------------------------------------------ <-- SCF
SCF loop      Energy                           Energy gain       Timer   <-- SCF
                                               per atom          (sec)   <-- SCF
------------------------------------------------------------------------ <-- SCF
Initial  -1.13489644E+002                                         62.23  <-- SCF
      1  -1.13489786E+002                    1.77941631E-005      63.43  <-- SCF
      2  -1.13489786E+002                    4.30255093E-008      65.07  <-- SCF
      3  -1.13489781E+002                   -6.05575604E-007      66.70  <-- SCF
      4  -1.13489781E+002                   -3.07832365E-008      68.36  <-- SCF
      5  -1.13489781E+002                    3.56909296E-011      69.64  <-- SCF
      6  -1.13489781E+002                    2.36247731E-012      70.89  <-- SCF
      7  -1.13489781E+002                    1.51053536E-013      72.15  <-- SCF
------------------------------------------------------------------------ <-- SCF
 
Final energy =  -113.4897812130     eV
(energy not corrected for finite basis set)
 

 ******************************** Symmetrised Forces ********************************
 *                                                                                  *
 *                           Cartesian components (eV/A)                            *
 * -------------------------------------------------------------------------------- *
 *                         x                    y                    z              *
 *                                                                                  *
 * H               1     -0.00000             -0.00326             -0.00101         *
 * H               2     -0.00000              0.00326             -0.00101         *
 * H               3      0.00000             -0.00326              0.00101         *
 * H               4     -0.00000              0.00326              0.00101         *
 * H               5     -0.00000             -0.00326             -0.00101         *
 * H               6     -0.00000              0.00326             -0.00101         *
 * H               7      0.00000             -0.00326              0.00101         *
 * H               8     -0.00000              0.00326              0.00101         *
 *                                                                                  *
 ************************************************************************************

 *********** Symmetrised Stress Tensor ***********
 *                                               *
 *          Cartesian components (GPa)           *
 * --------------------------------------------- *
 *             x             y             z     *
 *                                               *
 *  x   -299.508599     -0.000000      0.000000  *
 *  y     -0.000000   -299.602025      0.000000  *
 *  z      0.000000      0.000000   -299.540144  *
 *                                               *
 *  Pressure:  299.5503                          *
 *                                               *
 *************************************************
  
 +------------+-------------+-------------+-----------------+ <-- min LBFGS
 |    Step    |   lambda    |   F.delta'  |    enthalpy     | <-- min LBFGS
 +------------+-------------+-------------+-----------------+ <-- min LBFGS
 |  previous  |    0.000000 |    0.005325 |      -91.740331 | <-- min LBFGS
 | trial step |    1.000000 |   -0.004933 |      -91.740342 | <-- min LBFGS
 |  line step |    0.519149 |    0.000017 |      -91.740368 | <-- min LBFGS
 +------------+-------------+-------------+-----------------+ <-- min LBFGS
  
 LBFGS: finished iteration     2 with enthalpy= -9.17403677E+001 eV
  
 +-----------+-----------------+-----------------+------------+-----+ <-- LBFGS
 | Parameter |      value      |    tolerance    |    units   | OK? | <-- LBFGS
 +-----------+-----------------+-----------------+------------+-----+ <-- LBFGS
 |  dE/ion   |   4.521351E-006 |   1.000000E-009 |         eV | No  | <-- LBFGS
 |  |F|max   |   3.412170E-003 |   1.000000E-004 |       eV/A | No  | <-- LBFGS
 |  |dR|max  |   4.044373E-004 |   1.000000E-004 |          A | No  | <-- LBFGS
 |   Smax    |   4.914007E-001 |   1.000000E-004 |        GPa | No  | <-- LBFGS
 +-----------+-----------------+-----------------+------------+-----+ <-- LBFGS
  

================================================================================
 Starting LBFGS iteration          3 ...
================================================================================
  
 +------------+-------------+-------------+-----------------+ <-- min LBFGS
 |    Step    |   lambda    |   F.delta'  |    enthalpy     | <-- min LBFGS
 +------------+-------------+-------------+-----------------+ <-- min LBFGS
 |  previous  |    0.000000 |    0.002303 |      -91.740368 | <-- min LBFGS
 +------------+-------------+-------------+-----------------+ <-- min LBFGS
  

--------------------------------------------------------------------------------
 LBFGS: starting iteration         3 with trial guess (lambda=  1.000000)
--------------------------------------------------------------------------------

                           -------------------------------
                                      Unit Cell
                           -------------------------------
        Real Lattice(A)              Reciprocal Lattice(1/A)
     1.6249944     0.0000000     0.0000000        3.866589017  -0.000000000   0.000000000
     0.0000000     2.8055368     0.0000000       -0.000000000   2.239566175   0.000000000
     0.0000000     0.0000000     2.5449381        0.000000000   0.000000000   2.468895169

                       Lattice parameters(A)       Cell Angles
                    a =      1.624994          alpha =   90.000000
                    b =      2.805537          beta  =   90.000000
                    c =      2.544938          gamma =   90.000000

                Current cell volume =            11.602325 A**3

                           -------------------------------
                                     Cell Contents
                           -------------------------------

            xxxxxxxxxxxxxxxxxxxxxxxxxxxxxxxxxxxxxxxxxxxxxxxxxxxxxxxxxxxxxxxxx
            x  Element         Atom        Fractional coordinates of atoms  x
            x                 Number           u          v          w      x
            x---------------------------------------------------------------x
            x  H                 1        -0.000000   0.373019   0.439506   x
            x  H                 2        -0.000000   0.126981   0.939506   x
            x  H                 3         0.000000   0.873019   0.060494   x
            x  H                 4        -0.000000   0.626981   0.560494   x
            x  H                 5         0.500000   0.873019   0.439506   x
            x  H                 6         0.500000   0.626981   0.939506   x
            x  H                 7         0.500000   0.373019   0.060494   x
            x  H                 8         0.500000   0.126981   0.560494   x
            xxxxxxxxxxxxxxxxxxxxxxxxxxxxxxxxxxxxxxxxxxxxxxxxxxxxxxxxxxxxxxxxx


------------------------------------------------------------------------ <-- SCF
SCF loop      Energy                           Energy gain       Timer   <-- SCF
                                               per atom          (sec)   <-- SCF
------------------------------------------------------------------------ <-- SCF
Initial  -1.13465106E+002                                         74.89  <-- SCF
      1  -1.13465197E+002                    1.13322166E-005      76.07  <-- SCF
      2  -1.13465197E+002                    3.16256681E-008      77.87  <-- SCF
      3  -1.13465192E+002                   -5.55870456E-007      79.57  <-- SCF
      4  -1.13465192E+002                   -2.87061174E-008      81.30  <-- SCF
      5  -1.13465192E+002                    3.96938483E-011      82.63  <-- SCF
      6  -1.13465192E+002                    2.81261685E-012      83.97  <-- SCF
      7  -1.13465192E+002                    5.04518812E-013      85.16  <-- SCF
------------------------------------------------------------------------ <-- SCF
 
Final energy =  -113.4651922563     eV
(energy not corrected for finite basis set)
 

 ******************************** Symmetrised Forces ********************************
 *                                                                                  *
 *                           Cartesian components (eV/A)                            *
 * -------------------------------------------------------------------------------- *
 *                         x                    y                    z              *
 *                                                                                  *
 * H               1     -0.00000              0.00222              0.00105         *
 * H               2     -0.00000             -0.00222              0.00105         *
 * H               3      0.00000              0.00222             -0.00105         *
 * H               4      0.00000             -0.00222             -0.00105         *
 * H               5     -0.00000              0.00222              0.00105         *
 * H               6     -0.00000             -0.00222              0.00105         *
 * H               7      0.00000              0.00222             -0.00105         *
 * H               8      0.00000             -0.00222             -0.00105         *
 *                                                                                  *
 ************************************************************************************

 *********** Symmetrised Stress Tensor ***********
 *                                               *
 *          Cartesian components (GPa)           *
 * --------------------------------------------- *
 *             x             y             z     *
 *                                               *
 *  x   -300.350974      0.000000      0.000000  *
 *  y      0.000000   -300.277370      0.000000  *
 *  z      0.000000      0.000000   -300.335573  *
 *                                               *
 *  Pressure:  300.3213                          *
 *                                               *
 *************************************************
  
 +------------+-------------+-------------+-----------------+ <-- min LBFGS
 |    Step    |   lambda    |   F.delta'  |    enthalpy     | <-- min LBFGS
 +------------+-------------+-------------+-----------------+ <-- min LBFGS
 |  previous  |    0.000000 |    0.002303 |      -91.740368 | <-- min LBFGS
 | trial step |    1.000000 |   -0.001643 |      -91.740386 | <-- min LBFGS
 +------------+-------------+-------------+-----------------+ <-- min LBFGS
  

--------------------------------------------------------------------------------
 LBFGS: improving iteration         3 with line minimization (lambda=  0.583617)
--------------------------------------------------------------------------------

                           -------------------------------
                                      Unit Cell
                           -------------------------------
        Real Lattice(A)              Reciprocal Lattice(1/A)
     1.6252666     0.0000000     0.0000000        3.865941382  -0.000000000   0.000000000
     0.0000000     2.8059446     0.0000000       -0.000000000   2.239240721   0.000000000
     0.0000000     0.0000000     2.5453420        0.000000000   0.000000000   2.468503373

                       Lattice parameters(A)       Cell Angles
                    a =      1.625267          alpha =   90.000000
                    b =      2.805945          beta  =   90.000000
                    c =      2.545342          gamma =   90.000000

                Current cell volume =            11.607798 A**3

                           -------------------------------
                                     Cell Contents
                           -------------------------------

            xxxxxxxxxxxxxxxxxxxxxxxxxxxxxxxxxxxxxxxxxxxxxxxxxxxxxxxxxxxxxxxxx
            x  Element         Atom        Fractional coordinates of atoms  x
            x                 Number           u          v          w      x
            x---------------------------------------------------------------x
            x  H                 1        -0.000000   0.373061   0.439520   x
            x  H                 2        -0.000000   0.126939   0.939520   x
            x  H                 3         0.000000   0.873061   0.060480   x
            x  H                 4        -0.000000   0.626939   0.560480   x
            x  H                 5         0.500000   0.873061   0.439520   x
            x  H                 6         0.500000   0.626939   0.939520   x
            x  H                 7         0.500000   0.373061   0.060480   x
            x  H                 8         0.500000   0.126939   0.560480   x
            xxxxxxxxxxxxxxxxxxxxxxxxxxxxxxxxxxxxxxxxxxxxxxxxxxxxxxxxxxxxxxxxx


------------------------------------------------------------------------ <-- SCF
SCF loop      Energy                           Energy gain       Timer   <-- SCF
                                               per atom          (sec)   <-- SCF
------------------------------------------------------------------------ <-- SCF
Initial  -1.13475379E+002                                         87.90  <-- SCF
      1  -1.13475435E+002                    7.02435972E-006      89.09  <-- SCF
      2  -1.13475435E+002                    8.82885565E-009      90.80  <-- SCF
      3  -1.13475434E+002                   -9.53236423E-008      92.45  <-- SCF
      4  -1.13475434E+002                   -5.00456982E-009      94.19  <-- SCF
      5  -1.13475434E+002                    6.93335732E-012      95.42  <-- SCF
      6  -1.13475434E+002                    4.95455600E-013      96.81  <-- SCF
------------------------------------------------------------------------ <-- SCF
 
Final energy =  -113.4754341344     eV
(energy not corrected for finite basis set)
 

 ******************************** Symmetrised Forces ********************************
 *                                                                                  *
 *                           Cartesian components (eV/A)                            *
 * -------------------------------------------------------------------------------- *
 *                         x                    y                    z              *
 *                                                                                  *
 * H               1      0.00000             -0.00006              0.00019         *
 * H               2     -0.00000              0.00006              0.00019         *
 * H               3     -0.00000             -0.00006             -0.00019         *
 * H               4     -0.00000              0.00006             -0.00019         *
 * H               5      0.00000             -0.00006              0.00019         *
 * H               6     -0.00000              0.00006              0.00019         *
 * H               7     -0.00000             -0.00006             -0.00019         *
 * H               8     -0.00000              0.00006             -0.00019         *
 *                                                                                  *
 ************************************************************************************

 *********** Symmetrised Stress Tensor ***********
 *                                               *
 *          Cartesian components (GPa)           *
 * --------------------------------------------- *
 *             x             y             z     *
 *                                               *
 *  x   -300.000018      0.000000      0.000000  *
 *  y      0.000000   -299.995264      0.000000  *
 *  z      0.000000      0.000000   -300.003937  *
 *                                               *
 *  Pressure:  299.9997                          *
 *                                               *
 *************************************************
  
 +------------+-------------+-------------+-----------------+ <-- min LBFGS
 |    Step    |   lambda    |   F.delta'  |    enthalpy     | <-- min LBFGS
 +------------+-------------+-------------+-----------------+ <-- min LBFGS
 |  previous  |    0.000000 |    0.002303 |      -91.740368 | <-- min LBFGS
 | trial step |    1.000000 |   -0.001643 |      -91.740386 | <-- min LBFGS
 |  line step |    0.583617 |  1.062E-006 |      -91.740388 | <-- min LBFGS
 +------------+-------------+-------------+-----------------+ <-- min LBFGS
  
 LBFGS: finished iteration     3 with enthalpy= -9.17403883E+001 eV
  
 +-----------+-----------------+-----------------+------------+-----+ <-- LBFGS
 | Parameter |      value      |    tolerance    |    units   | OK? | <-- LBFGS
 +-----------+-----------------+-----------------+------------+-----+ <-- LBFGS
 |  dE/ion   |   2.579127E-006 |   1.000000E-009 |         eV | No  | <-- LBFGS
 |  |F|max   |   1.981657E-004 |   1.000000E-004 |       eV/A | No  | <-- LBFGS
 |  |dR|max  |   1.737616E-004 |   1.000000E-004 |          A | No  | <-- LBFGS
 |   Smax    |   4.735629E-003 |   1.000000E-004 |        GPa | No  | <-- LBFGS
 +-----------+-----------------+-----------------+------------+-----+ <-- LBFGS
  

================================================================================
 Starting LBFGS iteration          4 ...
================================================================================
  
 +------------+-------------+-------------+-----------------+ <-- min LBFGS
 |    Step    |   lambda    |   F.delta'  |    enthalpy     | <-- min LBFGS
 +------------+-------------+-------------+-----------------+ <-- min LBFGS
 |  previous  |    0.000000 |    0.000055 |      -91.740388 | <-- min LBFGS
 +------------+-------------+-------------+-----------------+ <-- min LBFGS
  

--------------------------------------------------------------------------------
 LBFGS: starting iteration         4 with trial guess (lambda=  1.000000)
--------------------------------------------------------------------------------

                           -------------------------------
                                      Unit Cell
                           -------------------------------
        Real Lattice(A)              Reciprocal Lattice(1/A)
     1.6252666     0.0000000     0.0000000        3.865941249  -0.000000000   0.000000000
     0.0000000     2.8059372     0.0000000       -0.000000000   2.239246584   0.000000000
     0.0000000     0.0000000     2.5453489        0.000000000   0.000000000   2.468496694

                       Lattice parameters(A)       Cell Angles
                    a =      1.625267          alpha =   90.000000
                    b =      2.805937          beta  =   90.000000
                    c =      2.545349          gamma =   90.000000

                Current cell volume =            11.607799 A**3

                           -------------------------------
                                     Cell Contents
                           -------------------------------

            xxxxxxxxxxxxxxxxxxxxxxxxxxxxxxxxxxxxxxxxxxxxxxxxxxxxxxxxxxxxxxxxx
            x  Element         Atom        Fractional coordinates of atoms  x
            x                 Number           u          v          w      x
            x---------------------------------------------------------------x
            x  H                 1        -0.000000   0.373059   0.439526   x
            x  H                 2        -0.000000   0.126941   0.939526   x
            x  H                 3         0.000000   0.873059   0.060474   x
            x  H                 4        -0.000000   0.626941   0.560474   x
            x  H                 5         0.500000   0.873059   0.439526   x
            x  H                 6         0.500000   0.626941   0.939526   x
            x  H                 7         0.500000   0.373059   0.060474   x
            x  H                 8         0.500000   0.126941   0.560474   x
            xxxxxxxxxxxxxxxxxxxxxxxxxxxxxxxxxxxxxxxxxxxxxxxxxxxxxxxxxxxxxxxxx


------------------------------------------------------------------------ <-- SCF
SCF loop      Energy                           Energy gain       Timer   <-- SCF
                                               per atom          (sec)   <-- SCF
------------------------------------------------------------------------ <-- SCF
Initial  -1.13475436E+002                                         99.76  <-- SCF
      1  -1.13475436E+002                    2.01797102E-008     100.83  <-- SCF
      2  -1.13475436E+002                    6.29953669E-011     102.33  <-- SCF
      3  -1.13475436E+002                    1.31854632E-010     103.49  <-- SCF
      4  -1.13475436E+002                    8.92726401E-012     104.71  <-- SCF
      5  -1.13475436E+002                    3.08149214E-013     106.02  <-- SCF
------------------------------------------------------------------------ <-- SCF
 
Final energy =  -113.4754359339     eV
(energy not corrected for finite basis set)
 

 ******************************** Symmetrised Forces ********************************
 *                                                                                  *
 *                           Cartesian components (eV/A)                            *
 * -------------------------------------------------------------------------------- *
 *                         x                    y                    z              *
 *                                                                                  *
 * H               1     -0.00000             -0.00006              0.00012         *
 * H               2      0.00000              0.00006              0.00012         *
 * H               3     -0.00000             -0.00006             -0.00012         *
 * H               4     -0.00000              0.00006             -0.00012         *
 * H               5     -0.00000             -0.00006              0.00012         *
 * H               6      0.00000              0.00006              0.00012         *
 * H               7     -0.00000             -0.00006             -0.00012         *
 * H               8     -0.00000              0.00006             -0.00012         *
 *                                                                                  *
 ************************************************************************************

 *********** Symmetrised Stress Tensor ***********
 *                                               *
 *          Cartesian components (GPa)           *
 * --------------------------------------------- *
 *             x             y             z     *
 *                                               *
 *  x   -300.000454      0.000000      0.000000  *
 *  y      0.000000   -299.999980      0.000000  *
 *  z      0.000000      0.000000   -300.001307  *
 *                                               *
 *  Pressure:  300.0006                          *
 *                                               *
 *************************************************
  
 +------------+-------------+-------------+-----------------+ <-- min LBFGS
 |    Step    |   lambda    |   F.delta'  |    enthalpy     | <-- min LBFGS
 +------------+-------------+-------------+-----------------+ <-- min LBFGS
 |  previous  |    0.000000 |    0.000055 |      -91.740388 | <-- min LBFGS
 | trial step |    1.000000 |    0.000036 |      -91.740388 | <-- min LBFGS
 +------------+-------------+-------------+-----------------+ <-- min LBFGS
  

--------------------------------------------------------------------------------
 LBFGS: improving iteration         4 with line minimization (lambda=  2.973398)
--------------------------------------------------------------------------------

                           -------------------------------
                                      Unit Cell
                           -------------------------------
        Real Lattice(A)              Reciprocal Lattice(1/A)
     1.6252667     0.0000000     0.0000000        3.865940985  -0.000000000   0.000000000
     0.0000000     2.8059227     0.0000000       -0.000000000   2.239258155   0.000000000
     0.0000000     0.0000000     2.5453625        0.000000000   0.000000000   2.468483512

                       Lattice parameters(A)       Cell Angles
                    a =      1.625267          alpha =   90.000000
                    b =      2.805923          beta  =   90.000000
                    c =      2.545362          gamma =   90.000000

                Current cell volume =            11.607802 A**3

                           -------------------------------
                                     Cell Contents
                           -------------------------------

            xxxxxxxxxxxxxxxxxxxxxxxxxxxxxxxxxxxxxxxxxxxxxxxxxxxxxxxxxxxxxxxxx
            x  Element         Atom        Fractional coordinates of atoms  x
            x                 Number           u          v          w      x
            x---------------------------------------------------------------x
            x  H                 1        -0.000000   0.373053   0.439540   x
            x  H                 2        -0.000000   0.126947   0.939540   x
            x  H                 3         0.000000   0.873053   0.060460   x
            x  H                 4        -0.000000   0.626947   0.560460   x
            x  H                 5         0.500000   0.873053   0.439540   x
            x  H                 6         0.500000   0.626947   0.939540   x
            x  H                 7         0.500000   0.373053   0.060460   x
            x  H                 8         0.500000   0.126947   0.560460   x
            xxxxxxxxxxxxxxxxxxxxxxxxxxxxxxxxxxxxxxxxxxxxxxxxxxxxxxxxxxxxxxxxx


------------------------------------------------------------------------ <-- SCF
SCF loop      Energy                           Energy gain       Timer   <-- SCF
                                               per atom          (sec)   <-- SCF
------------------------------------------------------------------------ <-- SCF
Initial  -1.13475440E+002                                        108.76  <-- SCF
      1  -1.13475442E+002                    2.67406774E-007     109.99  <-- SCF
      2  -1.13475442E+002                    2.48748922E-010     111.62  <-- SCF
      3  -1.13475442E+002                    5.16439957E-010     113.25  <-- SCF
      4  -1.13475442E+002                    3.35701379E-011     114.59  <-- SCF
      5  -1.13475442E+002                    2.93043861E-013     115.89  <-- SCF
      6  -1.13475442E+002                    2.59812083E-013     117.00  <-- SCF
------------------------------------------------------------------------ <-- SCF
 
Final energy =  -113.4754422152     eV
(energy not corrected for finite basis set)
 

 ******************************** Symmetrised Forces ********************************
 *                                                                                  *
 *                           Cartesian components (eV/A)                            *
 * -------------------------------------------------------------------------------- *
 *                         x                    y                    z              *
 *                                                                                  *
 * H               1     -0.00000             -0.00006             -0.00001         *
 * H               2      0.00000              0.00006             -0.00001         *
 * H               3      0.00000             -0.00006              0.00001         *
 * H               4      0.00000              0.00006              0.00001         *
 * H               5     -0.00000             -0.00006             -0.00001         *
 * H               6      0.00000              0.00006             -0.00001         *
 * H               7      0.00000             -0.00006              0.00001         *
 * H               8      0.00000              0.00006              0.00001         *
 *                                                                                  *
 ************************************************************************************

 *********** Symmetrised Stress Tensor ***********
 *                                               *
 *          Cartesian components (GPa)           *
 * --------------------------------------------- *
 *             x             y             z     *
 *                                               *
 *  x   -300.001604      0.000000      0.000000  *
 *  y      0.000000   -300.009226      0.000000  *
 *  z      0.000000      0.000000   -299.996330  *
 *                                               *
 *  Pressure:  300.0024                          *
 *                                               *
 *************************************************
  
 +------------+-------------+-------------+-----------------+ <-- min LBFGS
 |    Step    |   lambda    |   F.delta'  |    enthalpy     | <-- min LBFGS
 +------------+-------------+-------------+-----------------+ <-- min LBFGS
 |  previous  |    0.000000 |    0.000055 |      -91.740388 | <-- min LBFGS
 | trial step |    1.000000 |    0.000036 |      -91.740388 | <-- min LBFGS
 |  line step |    2.973398 |  1.246E-007 |      -91.740389 | <-- min LBFGS
 +------------+-------------+-------------+-----------------+ <-- min LBFGS
  
 LBFGS: finished iteration     4 with enthalpy= -9.17403891E+001 eV
  
 +-----------+-----------------+-----------------+------------+-----+ <-- LBFGS
 | Parameter |      value      |    tolerance    |    units   | OK? | <-- LBFGS
 +-----------+-----------------+-----------------+------------+-----+ <-- LBFGS
 |  dE/ion   |   1.047543E-007 |   1.000000E-009 |         eV | No  | <-- LBFGS
 |  |F|max   |   5.876416E-005 |   1.000000E-004 |       eV/A | Yes | <-- LBFGS
 |  |dR|max  |   5.693586E-005 |   1.000000E-004 |          A | Yes | <-- LBFGS
 |   Smax    |   9.225573E-003 |   1.000000E-004 |        GPa | No  | <-- LBFGS
 +-----------+-----------------+-----------------+------------+-----+ <-- LBFGS
  

================================================================================
 Starting LBFGS iteration          5 ...
================================================================================
  
 +------------+-------------+-------------+-----------------+ <-- min LBFGS
 |    Step    |   lambda    |   F.delta'  |    enthalpy     | <-- min LBFGS
 +------------+-------------+-------------+-----------------+ <-- min LBFGS
 |  previous  |    0.000000 |    0.000023 |      -91.740389 | <-- min LBFGS
 +------------+-------------+-------------+-----------------+ <-- min LBFGS
  

--------------------------------------------------------------------------------
 LBFGS: starting iteration         5 with trial guess (lambda=  1.000000)
--------------------------------------------------------------------------------

                           -------------------------------
                                      Unit Cell
                           -------------------------------
        Real Lattice(A)              Reciprocal Lattice(1/A)
     1.6252676     0.0000000     0.0000000        3.865938908  -0.000000000   0.000000000
     0.0000000     2.8059342     0.0000000       -0.000000000   2.239249017   0.000000000
     0.0000000     0.0000000     2.5453556        0.000000000   0.000000000   2.468490170

                       Lattice parameters(A)       Cell Angles
                    a =      1.625268          alpha =   90.000000
                    b =      2.805934          beta  =   90.000000
                    c =      2.545356          gamma =   90.000000

                Current cell volume =            11.607824 A**3

                           -------------------------------
                                     Cell Contents
                           -------------------------------

            xxxxxxxxxxxxxxxxxxxxxxxxxxxxxxxxxxxxxxxxxxxxxxxxxxxxxxxxxxxxxxxxx
            x  Element         Atom        Fractional coordinates of atoms  x
            x                 Number           u          v          w      x
            x---------------------------------------------------------------x
            x  H                 1        -0.000000   0.373052   0.439542   x
            x  H                 2        -0.000000   0.126948   0.939542   x
            x  H                 3         0.000000   0.873052   0.060458   x
            x  H                 4        -0.000000   0.626948   0.560458   x
            x  H                 5         0.500000   0.873052   0.439542   x
            x  H                 6         0.500000   0.626948   0.939542   x
            x  H                 7         0.500000   0.373052   0.060458   x
            x  H                 8         0.500000   0.126948   0.560458   x
            xxxxxxxxxxxxxxxxxxxxxxxxxxxxxxxxxxxxxxxxxxxxxxxxxxxxxxxxxxxxxxxxx


------------------------------------------------------------------------ <-- SCF
SCF loop      Energy                           Energy gain       Timer   <-- SCF
                                               per atom          (sec)   <-- SCF
------------------------------------------------------------------------ <-- SCF
Initial  -1.13475482E+002                                        119.75  <-- SCF
      1  -1.13475482E+002                    1.06460116E-009     120.92  <-- SCF
      2  -1.13475482E+002                    4.16001439E-012     122.16  <-- SCF
      3  -1.13475482E+002                   -3.86697053E-013     123.50  <-- SCF
      4  -1.13475482E+002                    2.35643517E-013     124.66  <-- SCF
------------------------------------------------------------------------ <-- SCF
 
Final energy =  -113.4754822404     eV
(energy not corrected for finite basis set)
 

 ******************************** Symmetrised Forces ********************************
 *                                                                                  *
 *                           Cartesian components (eV/A)                            *
 * -------------------------------------------------------------------------------- *
 *                         x                    y                    z              *
 *                                                                                  *
 * H               1      0.00000             -0.00000              0.00000         *
 * H               2     -0.00000              0.00000              0.00000         *
 * H               3      0.00000             -0.00000             -0.00000         *
 * H               4      0.00000              0.00000             -0.00000         *
 * H               5      0.00000             -0.00000              0.00000         *
 * H               6     -0.00000              0.00000              0.00000         *
 * H               7      0.00000             -0.00000             -0.00000         *
 * H               8      0.00000              0.00000             -0.00000         *
 *                                                                                  *
 ************************************************************************************

 *********** Symmetrised Stress Tensor ***********
 *                                               *
 *          Cartesian components (GPa)           *
 * --------------------------------------------- *
 *             x             y             z     *
 *                                               *
 *  x   -300.000109      0.000000      0.000000  *
 *  y      0.000000   -300.001728      0.000000  *
 *  z      0.000000      0.000000   -299.998343  *
 *                                               *
 *  Pressure:  300.0001                          *
 *                                               *
 *************************************************
  
 +------------+-------------+-------------+-----------------+ <-- min LBFGS
 |    Step    |   lambda    |   F.delta'  |    enthalpy     | <-- min LBFGS
 +------------+-------------+-------------+-----------------+ <-- min LBFGS
 |  previous  |    0.000000 |    0.000023 |      -91.740389 | <-- min LBFGS
 | trial step |    1.000000 |  5.317E-006 |      -91.740388 | <-- min LBFGS
 +------------+-------------+-------------+-----------------+ <-- min LBFGS
  
 LBFGS: finished iteration     5 with enthalpy= -9.17403882E+001 eV
  
 +-----------+-----------------+-----------------+------------+-----+ <-- LBFGS
 | Parameter |      value      |    tolerance    |    units   | OK? | <-- LBFGS
 +-----------+-----------------+-----------------+------------+-----+ <-- LBFGS
 |  dE/ion   |   1.126310E-007 |   1.000000E-009 |         eV | No  | <-- LBFGS
 |  |F|max   |   4.327727E-006 |   1.000000E-004 |       eV/A | Yes | <-- LBFGS
 |  |dR|max  |   4.386762E-006 |   1.000000E-004 |          A | Yes | <-- LBFGS
 |   Smax    |   1.727948E-003 |   1.000000E-004 |        GPa | No  | <-- LBFGS
 +-----------+-----------------+-----------------+------------+-----+ <-- LBFGS
  

================================================================================
 Starting LBFGS iteration          6 ...
================================================================================
  
 +------------+-------------+-------------+-----------------+ <-- min LBFGS
 |    Step    |   lambda    |   F.delta'  |    enthalpy     | <-- min LBFGS
 +------------+-------------+-------------+-----------------+ <-- min LBFGS
 |  previous  |    0.000000 |  5.655E-006 |      -91.740388 | <-- min LBFGS
 +------------+-------------+-------------+-----------------+ <-- min LBFGS
  

--------------------------------------------------------------------------------
 LBFGS: starting iteration         6 with trial guess (lambda=  1.000000)
--------------------------------------------------------------------------------

                           -------------------------------
                                      Unit Cell
                           -------------------------------
        Real Lattice(A)              Reciprocal Lattice(1/A)
     1.6252677     0.0000000     0.0000000        3.865938603  -0.000000000   0.000000000
     0.0000000     2.8059380     0.0000000       -0.000000000   2.239245962   0.000000000
     0.0000000     0.0000000     2.5453520        0.000000000   0.000000000   2.468493667

                       Lattice parameters(A)       Cell Angles
                    a =      1.625268          alpha =   90.000000
                    b =      2.805938          beta  =   90.000000
                    c =      2.545352          gamma =   90.000000

                Current cell volume =            11.607825 A**3

                           -------------------------------
                                     Cell Contents
                           -------------------------------

[...]
            x  H                 1        -0.000000   0.373052   0.439542   x
            x  H                 2        -0.000000   0.126948   0.939542   x
            x  H                 3         0.000000   0.873052   0.060458   x
            x  H                 4         0.000000   0.626948   0.560458   x
            x  H                 5         0.500000   0.873052   0.439542   x
            x  H                 6         0.500000   0.626948   0.939542   x
            x  H                 7         0.500000   0.373052   0.060458   x
            x  H                 8         0.500000   0.126948   0.560458   x
            xxxxxxxxxxxxxxxxxxxxxxxxxxxxxxxxxxxxxxxxxxxxxxxxxxxxxxxxxxxxxxxxx


------------------------------------------------------------------------ <-- SCF
SCF loop      Energy                           Energy gain       Timer   <-- SCF
                                               per atom          (sec)   <-- SCF
------------------------------------------------------------------------ <-- SCF
Initial  -1.13475483E+002                                        127.39  <-- SCF
      1  -1.13475484E+002                    1.65954581E-007     128.48  <-- SCF
      2  -1.13475484E+002                    7.43183399E-013     129.80  <-- SCF
      3  -1.13475484E+002                    2.85189077E-012     131.15  <-- SCF
      4  -1.13475484E+002                    1.38969254E-013     132.30  <-- SCF
------------------------------------------------------------------------ <-- SCF
 
Final energy =  -113.4754841482     eV
(energy not corrected for finite basis set)
 

 ******************************** Symmetrised Forces ********************************
 *                                                                                  *
 *                           Cartesian components (eV/A)                            *
 * -------------------------------------------------------------------------------- *
 *                         x                    y                    z              *
 *                                                                                  *
 * H               1     -0.00000              0.00000              0.00000         *
 * H               2      0.00000             -0.00000              0.00000         *
 * H               3     -0.00000              0.00000             -0.00000         *
 * H               4      0.00000             -0.00000             -0.00000         *
 * H               5     -0.00000              0.00000              0.00000         *
 * H               6     -0.00000             -0.00000              0.00000         *
 * H               7     -0.00000              0.00000             -0.00000         *
 * H               8      0.00000             -0.00000             -0.00000         *
 *                                                                                  *
 ************************************************************************************

 *********** Symmetrised Stress Tensor ***********
 *                                               *
 *          Cartesian components (GPa)           *
 * --------------------------------------------- *
 *             x             y             z     *
 *                                               *
 *  x   -300.000139     -0.000000      0.000000  *
 *  y     -0.000000   -300.000065      0.000000  *
 *  z      0.000000      0.000000   -299.999962  *
 *                                               *
 *  Pressure:  300.0001                          *
 *                                               *
 *************************************************
  
 +------------+-------------+-------------+-----------------+ <-- min LBFGS
 |    Step    |   lambda    |   F.delta'  |    enthalpy     | <-- min LBFGS
 +------------+-------------+-------------+-----------------+ <-- min LBFGS
 |  previous  |    0.000000 |  5.655E-006 |      -91.740388 | <-- min LBFGS
 | trial step |    1.000000 |  2.479E-007 |      -91.740388 | <-- min LBFGS
 +------------+-------------+-------------+-----------------+ <-- min LBFGS
  
 LBFGS: finished iteration     6 with enthalpy= -9.17403883E+001 eV
  
 +-----------+-----------------+-----------------+------------+-----+ <-- LBFGS
 | Parameter |      value      |    tolerance    |    units   | OK? | <-- LBFGS
 +-----------+-----------------+-----------------+------------+-----+ <-- LBFGS
 |  dE/ion   |   1.415953E-008 |   1.000000E-009 |         eV | No  | <-- LBFGS
 |  |F|max   |   2.112641E-006 |   1.000000E-004 |       eV/A | Yes | <-- LBFGS
 |  |dR|max  |   1.418922E-006 |   1.000000E-004 |          A | Yes | <-- LBFGS
 |   Smax    |   1.393007E-004 |   1.000000E-004 |        GPa | No  | <-- LBFGS
 +-----------+-----------------+-----------------+------------+-----+ <-- LBFGS
  

================================================================================
 Starting LBFGS iteration          7 ...
================================================================================
  
 +------------+-------------+-------------+-----------------+ <-- min LBFGS
 |    Step    |   lambda    |   F.delta'  |    enthalpy     | <-- min LBFGS
 +------------+-------------+-------------+-----------------+ <-- min LBFGS
 |  previous  |    0.000000 |  6.013E-007 |      -91.740388 | <-- min LBFGS
 +------------+-------------+-------------+-----------------+ <-- min LBFGS
  

--------------------------------------------------------------------------------
 LBFGS: starting iteration         7 with trial guess (lambda=  1.000000)
--------------------------------------------------------------------------------

                           -------------------------------
                                      Unit Cell
                           -------------------------------
        Real Lattice(A)              Reciprocal Lattice(1/A)
     1.6252679     0.0000000     0.0000000        3.865938266  -0.000000000   0.000000000
     0.0000000     2.8059382     0.0000000       -0.000000000   2.239245768   0.000000000
     0.0000000     0.0000000     2.5453519        0.000000000   0.000000000   2.468493803

                       Lattice parameters(A)       Cell Angles
                    a =      1.625268          alpha =   90.000000
                    b =      2.805938          beta  =   90.000000
                    c =      2.545352          gamma =   90.000000

                Current cell volume =            11.607826 A**3

                           -------------------------------
                                     Cell Contents
                           -------------------------------

            xxxxxxxxxxxxxxxxxxxxxxxxxxxxxxxxxxxxxxxxxxxxxxxxxxxxxxxxxxxxxxxxx
            x  Element         Atom        Fractional coordinates of atoms  x
            x                 Number           u          v          w      x
            x---------------------------------------------------------------x
            x  H                 1        -0.000000   0.373052   0.439542   x
            x  H                 2        -0.000000   0.126948   0.939542   x
            x  H                 3         0.000000   0.873052   0.060458   x
            x  H                 4        -0.000000   0.626948   0.560458   x
            x  H                 5         0.500000   0.873052   0.439542   x
            x  H                 6         0.500000   0.626948   0.939542   x
            x  H                 7         0.500000   0.373052   0.060458   x
            x  H                 8         0.500000   0.126948   0.560458   x
            xxxxxxxxxxxxxxxxxxxxxxxxxxxxxxxxxxxxxxxxxxxxxxxxxxxxxxxxxxxxxxxxx


------------------------------------------------------------------------ <-- SCF
SCF loop      Energy                           Energy gain       Timer   <-- SCF
                                               per atom          (sec)   <-- SCF
------------------------------------------------------------------------ <-- SCF
Initial  -1.13475487E+002                                        135.05  <-- SCF
      1  -1.13475487E+002                    8.03604814E-013     135.89  <-- SCF
      2  -1.13475487E+002                    6.04214146E-014     137.03  <-- SCF
      3  -1.13475487E+002                    1.20842829E-014     138.25  <-- SCF
      4  -1.13475487E+002                   -2.65854224E-013     139.54  <-- SCF
------------------------------------------------------------------------ <-- SCF
 
Final energy =  -113.4754867146     eV
(energy not corrected for finite basis set)
 

 ******************************** Symmetrised Forces ********************************
 *                                                                                  *
 *                           Cartesian components (eV/A)                            *
 * -------------------------------------------------------------------------------- *
 *                         x                    y                    z              *
 *                                                                                  *
 * H               1     -0.00000             -0.00000             -0.00000         *
 * H               2     -0.00000              0.00000             -0.00000         *
 * H               3      0.00000             -0.00000              0.00000         *
 * H               4     -0.00000              0.00000              0.00000         *
 * H               5     -0.00000             -0.00000             -0.00000         *
 * H               6     -0.00000              0.00000             -0.00000         *
 * H               7      0.00000             -0.00000              0.00000         *
 * H               8     -0.00000              0.00000              0.00000         *
 *                                                                                  *
 ************************************************************************************

 *********** Symmetrised Stress Tensor ***********
 *                                               *
 *          Cartesian components (GPa)           *
 * --------------------------------------------- *
 *             x             y             z     *
 *                                               *
 *  x   -299.999998      0.000000      0.000000  *
 *  y      0.000000   -299.999988      0.000000  *
 *  z      0.000000      0.000000   -299.999987  *
 *                                               *
 *  Pressure:  300.0000                          *
 *                                               *
 *************************************************
  
 +------------+-------------+-------------+-----------------+ <-- min LBFGS
 |    Step    |   lambda    |   F.delta'  |    enthalpy     | <-- min LBFGS
 +------------+-------------+-------------+-----------------+ <-- min LBFGS
 |  previous  |    0.000000 |  6.013E-007 |      -91.740388 | <-- min LBFGS
 | trial step |    1.000000 | -4.711E-008 |      -91.740388 | <-- min LBFGS
 +------------+-------------+-------------+-----------------+ <-- min LBFGS
  
 LBFGS: finished iteration     7 with enthalpy= -9.17403883E+001 eV
  
 +-----------+-----------------+-----------------+------------+-----+ <-- LBFGS
 | Parameter |      value      |    tolerance    |    units   | OK? | <-- LBFGS
 +-----------+-----------------+-----------------+------------+-----+ <-- LBFGS
 |  dE/ion   |   2.220487E-013 |   1.000000E-009 |         eV | Yes | <-- LBFGS
 |  |F|max   |   2.272761E-007 |   1.000000E-004 |       eV/A | Yes | <-- LBFGS
 |  |dR|max  |   1.066290E-007 |   1.000000E-004 |          A | Yes | <-- LBFGS
 |   Smax    |   1.314820E-005 |   1.000000E-004 |        GPa | Yes | <-- LBFGS
 +-----------+-----------------+-----------------+------------+-----+ <-- LBFGS
  
 LBFGS: Geometry optimization completed successfully.

================================================================================
 LBFGS: Final Configuration:
================================================================================

                           -------------------------------
                                      Unit Cell
                           -------------------------------
        Real Lattice(A)              Reciprocal Lattice(1/A)
     1.6252679     0.0000000     0.0000000        3.865938266  -0.000000000   0.000000000
     0.0000000     2.8059382     0.0000000       -0.000000000   2.239245768   0.000000000
     0.0000000     0.0000000     2.5453519        0.000000000   0.000000000   2.468493803

                       Lattice parameters(A)       Cell Angles
                    a =      1.625268          alpha =   90.000000
                    b =      2.805938          beta  =   90.000000
                    c =      2.545352          gamma =   90.000000

                Current cell volume =            11.607826 A**3

                           -------------------------------
                                     Cell Contents
                           -------------------------------

            xxxxxxxxxxxxxxxxxxxxxxxxxxxxxxxxxxxxxxxxxxxxxxxxxxxxxxxxxxxxxxxxx
            x  Element         Atom        Fractional coordinates of atoms  x
            x                 Number           u          v          w      x
            x---------------------------------------------------------------x
            x  H                 1        -0.000000   0.373052   0.439542   x
            x  H                 2        -0.000000   0.126948   0.939542   x
            x  H                 3         0.000000   0.873052   0.060458   x
            x  H                 4        -0.000000   0.626948   0.560458   x
            x  H                 5         0.500000   0.873052   0.439542   x
            x  H                 6         0.500000   0.626948   0.939542   x
            x  H                 7         0.500000   0.373052   0.060458   x
            x  H                 8         0.500000   0.126948   0.560458   x
            xxxxxxxxxxxxxxxxxxxxxxxxxxxxxxxxxxxxxxxxxxxxxxxxxxxxxxxxxxxxxxxxx


 LBFGS: Final Enthalpy     = -9.17403883E+001 eV
 LBFGS: Final <frequency>  =     918.08383 cm-1
 LBFGS: Final bulk modulus =     757.80708 GPa

 ******************************** Symmetrised Forces ********************************
 *                                                                                  *
 *                           Cartesian components (eV/A)                            *
 * -------------------------------------------------------------------------------- *
 *                         x                    y                    z              *
 *                                                                                  *
 * H               1     -0.00000             -0.00000             -0.00000         *
 * H               2     -0.00000              0.00000             -0.00000         *
 * H               3      0.00000             -0.00000              0.00000         *
 * H               4     -0.00000              0.00000              0.00000         *
 * H               5     -0.00000             -0.00000             -0.00000         *
 * H               6     -0.00000              0.00000             -0.00000         *
 * H               7      0.00000             -0.00000              0.00000         *
 * H               8     -0.00000              0.00000              0.00000         *
 *                                                                                  *
 ************************************************************************************

 *********** Symmetrised Stress Tensor ***********
 *                                               *
 *          Cartesian components (GPa)           *
 * --------------------------------------------- *
 *             x             y             z     *
 *                                               *
 *  x   -299.999998      0.000000      0.000000  *
 *  y      0.000000   -299.999988      0.000000  *
 *  z      0.000000      0.000000   -299.999987  *
 *                                               *
 *  Pressure:  300.0000                          *
 *                                               *
 *************************************************

 Pseudo atomic calculation performed for H 1s1

 Converged in 24 iterations to a total energy of -12.4843 eV

Charge spilling parameter for spin component 1 = 0.66%

            Orbital Populations       
     Ion    Atom   Orbital             Charge
  -------------------------------------------
      H     1      S                    0.999
      H     2      S                    1.001
      H     3      S                    1.001
      H     4      S                    0.999
      H     5      S                    0.999
      H     6      S                    1.001
      H     7      S                    1.001
      H     8      S                    0.999
  -------------------------------------------
                           Total:       8.000
  -------------------------------------------

     Atomic Populations (Mulliken)
     -----------------------------
Species          Ion     s      p      d      f     Total  Charge (e)
=====================================================================
  H               1     1.00   0.00   0.00   0.00   1.00     0.00
  H               2     1.00   0.00   0.00   0.00   1.00     0.00
  H               3     1.00   0.00   0.00   0.00   1.00     0.00
  H               4     1.00   0.00   0.00   0.00   1.00     0.00
  H               5     1.00   0.00   0.00   0.00   1.00     0.00
  H               6     1.00   0.00   0.00   0.00   1.00     0.00
  H               7     1.00   0.00   0.00   0.00   1.00     0.00
  H               8     1.00   0.00   0.00   0.00   1.00     0.00
=====================================================================

                 Bond                   Population      Length (A)
======================================================================
               H 6 -- H 7                    0.99        0.77605
               H 2 -- H 3                    0.99        0.77605
               H 5 -- H 8                    0.99        0.77605
               H 1 -- H 4                    0.99        0.77605
               H 4 -- H 5                    0.42        1.10994
               H 3 -- H 6                    0.42        1.10994
               H 2 -- H 7                    0.42        1.10994
               H 1 -- H 8                    0.42        1.10994
               H 3 -- H 5                    0.00        1.26151
               H 1 -- H 7                    0.00        1.26151
               H 2 -- H 8                    0.00        1.26151
               H 4 -- H 6                    0.00        1.26151
               H 7 -- H 8                   -0.36        1.44795
               H 3 -- H 4                   -0.36        1.44795
               H 5 -- H 6                   -0.36        1.44795
               H 1 -- H 2                   -0.36        1.44795
               H 4 -- H 8                   -0.76        1.62133
               H 3 -- H 7                   -0.76        1.62133
               H 2 -- H 6                   -0.76        1.62133
               H 1 -- H 5                   -0.76        1.62133
======================================================================


Writing analysis data to Cmca4.castep_bin

Writing model to Cmca4.check
 
 A BibTeX formatted list of references used in this run has been written to 
 Cmca4.bib
 
Initialisation time =      4.59 s
Calculation time    =    138.34 s
Finalisation time   =      0.83 s
Total time          =    143.76 s
Peak Memory Use     = 430976 kB
  
Overall parallel efficiency rating: Good (79%)                                  
  
Data was distributed by:-
k-point (8-way); efficiency rating: Very good (82%)                             
  
Parallel notes:
1) Calculation only took 143.0 s, so efficiency estimates may be inaccurate.    
