 +-------------------------------------------------+
 |                                                 |
 |      CCC   AA    SSS  TTTTT  EEEEE  PPPP        |
 |     C     A  A  S       T    E      P   P       |
 |     C     AAAA   SS     T    EEE    PPPP        |
 |     C     A  A     S    T    E      P           |
 |      CCC  A  A  SSS     T    EEEEE  P           |
 |                                                 |
 +-------------------------------------------------+
 |                                                 |
 | Welcome to Academic Release CASTEP version 18.1 |          
 | Ab Initio Total Energy Program                  |
 |                                                 |
 | Authors:                                        |
 | M. Segall, M. Probert, C. Pickard, P. Hasnip,   |
 | S. Clark, K. Refson, J. R. Yates, M. Payne      |
 |                                                 |
 | Contributors:                                   |
 | P. Lindan, P. Haynes, J. White, V. Milman,      |
 | N. Govind, M. Gibson, P. Tulip, V. Cocula,      |
 | B. Montanari, D. Quigley, M. Glover,            |
 | L. Bernasconi, A. Perlov, M. Plummer,           |
 | E. McNellis, J. Meyer, J. Gale, D. Jochym       |
 | J. Aarons, B. Walker, R. Gillen, D. Jones       |
 | T. Green, I. J. Bush, C. J. Armstrong,          |
 | E. J. Higgins, E. L. Brown, M. S. McFly,        |
 | J. Wilkins, B-C. Shih, P. J. P. Byrne           |
 |                                                 |
 | Copyright (c) 2000 - 2017                       |
 |                                                 |
 |     Distributed under the terms of an           |
 |     Agreement between the United Kingdom        |
 |     Car-Parrinello (UKCP) Consortium,           |
 |     Daresbury Laboratory and Accelrys, Inc.     |
 |                                                 |
 | Please cite                                     |
 |                                                 |
 |     "First principles methods using CASTEP"     |
 |                                                 |
 |         Zeitschrift fuer Kristallographie       |
 |           220(5-6) pp. 567-570 (2005)           |
 |                                                 |
 | S. J. Clark, M. D. Segall, C. J. Pickard,       |
 | P. J. Hasnip, M. J. Probert, K. Refson,         |
 | M. C. Payne                                     |
 |                                                 |
 |       in all publications arising from          |
 |              your use of CASTEP                 |
 |                                                 |
 +-------------------------------------------------+


 Compiled for linux_x86_64_gfortran4.8 on Thu, 19 Jul 2018 15:42:32 +0100
 from code version 70483bd0ad64+  Sun, 10 Dec 2017 12:18:29 +0000
 Compiler: GNU Fortran 4.8.5; Optimisation: fast
 MATHLIBS: Intel MKL(2018.0.0) (LAPACK version 3.7.0)
 FFT Lib : mkl
 Fundamental constants values: CODATA 2014

 Run started: Tue, 28 Jul 2020 10:39:45 +0100
 +-------------------------------------------------+
 |                                                 |
 |  D D D D    F F F F F  P P P P     T T T T T    |
 |  D       D  F          P       P       T        |
 |  D       D  F F F F    P P P P         T        |
 |  D       D  F          P               T        |
 |  D D D D    F          P               T        |
 |                                                 |
 +-------------------------------------------------+
 |                                                 |
 | Welcome to Castep Linear Response (DFPT)        |
 |                                                 |
 | Copyright (c) 2006 - 2017                       |
 |                                                 |
 | Please cite the following publications in all   |
 | work arising from your use of CASTEP LR.        |
 |                                                 |
 | K. Refson, S. J. Clark and P. R. Tulip          |
 | Variational density functional perturbation     |
 | theory for dielectrics and lattice dynamics     |
 | Phys. Rev. B 73(15), 155114 (2006)              |
 +-------------------------------------------------+


 Atomic calculation performed for H: 1s1

 Converged in 41 iterations to an ae energy of -12.488 eV

   ============================================================                
   | Pseudopotential Report - Date of generation 28-07-2020   |                
   ------------------------------------------------------------                
   | Element: H Ionic charge:  1.00 Level of theory: PBE      |                
   | Atomic Solver: Koelling-Harmon                           |                
   |                                                          |                
   |               Reference Electronic Structure             |                
   |         Orbital         Occupation         Energy        |                
   |            1s              1.000           -0.239        |                
   |                                                          |                
   |                 Pseudopotential Definition               |                
   |        Beta     l      e      Rc     scheme   norm       |                
   |         loc     0   -0.239   0.702     qc      1         |                
   |                                                          |                
   | No charge augmentation                                   |                
   | No partial core correction                               |                
   ------------------------------------------------------------                
   | "0|0.7|2|6|8|10L(qc=10)"                                 |                
   ------------------------------------------------------------                
   |      Author: Chris J. Pickard, Cambridge University      |                
   ============================================================                

 Pseudo atomic calculation performed for H 1s1

 Converged in 24 iterations to a total energy of -12.4843 eV

 Calculation parallelised over 16 processes.
 Data is distributed by k-point(16-way)

 ************************************ Title ************************************
 

 ***************************** General Parameters ******************************
  
 output verbosity                               : normal  (1)
 write checkpoint data to                       : P21c.check
 type of calculation                            : phonon calculation
 stress calculation                             : on
 density difference calculation                 : off
 electron localisation func (ELF) calculation   : off
 Hirshfeld analysis                             : off
 unlimited duration calculation
 timing information                             : on
 memory usage estimate                          : on
 write extra output files                       : on
 write final potential to formatted file        : off
 write final density to formatted file          : off
 write structure in CELL formatted file         : on
 write BibTeX reference list                    : on
 write OTFG pseudopotential files               : on
 write electrostatic potential file             : on
 write bands file                               : on
 checkpoint writing                             : both castep_bin and check files
  
 output         length unit                     : A
 output           mass unit                     : amu
 output           time unit                     : ps
 output         charge unit                     : e
 output           spin unit                     : hbar/2
 output         energy unit                     : eV
 output          force unit                     : eV/A
 output       velocity unit                     : A/ps
 output       pressure unit                     : GPa
 output     inv_length unit                     : 1/A
 output      frequency unit                     : cm-1
 output force constant unit                     : eV/A**2
 output         volume unit                     : A**3
 output   IR intensity unit                     : (D/A)**2/amu
 output         dipole unit                     : D
 output         efield unit                     : eV/A/e
 output        entropy unit                     : J/mol/K
  
 wavefunctions paging                           : none
 random number generator seed                   : randomised (103945520)
 data distribution                              : optimal for this architecture
 optimization strategy                          : maximize speed(+++)

 *********************** Exchange-Correlation Parameters ***********************
  
 using functional                               : Perdew Burke Ernzerhof
 relativistic treatment                         : Koelling-Harmon
 DFT+D: Semi-empirical dispersion correction    : off

 ************************* Pseudopotential Parameters **************************
  
 pseudopotential representation                 : reciprocal space
 <beta|phi> representation                      : reciprocal space
 spin-orbit coupling                            : off

 **************************** Basis Set Parameters *****************************
  
 plane wave basis set cut-off                   :  1200.0000   eV
 size of standard grid                          :     2.0000
 size of   fine   gmax                          :    35.4943   1/A
 finite basis set correction                    : automatic
 number of sample energies                      :          3
           sample  spacing                      :     5.0000   eV

 **************************** Electronic Parameters ****************************
  
 number of  electrons                           :  24.00    
 net charge of system                           :  0.000    
 treating system as non-spin-polarized
 number of bands                                :         12

 ********************* Electronic Minimization Parameters **********************
  
 Method: Treating system as non-metallic,
         and number of  SD  steps               :          1
         and number of  CG  steps               :          4
  
 total energy / atom convergence tol.           : 0.1000E-10   eV
 eigen-energy convergence tolerance             : 0.2000E-10   eV
 max force / atom convergence tol.              : ignored
 convergence tolerance window                   :          3   cycles
 max. number of SCF cycles                      :        100
 periodic dipole correction                     : NONE

 ************************** Density Mixing Parameters **************************
  
 density-mixing scheme                          : Broyden
 max. length of mixing history                  :         20
 charge density mixing amplitude                : 0.8000    
 cut-off energy for mixing                      :  1200.       eV

 *********************** Population Analysis Parameters ************************
  
 Population analysis with cutoff                :  3.000       A
 Population analysis output                     : summary and pdos components

 ****************************** Phonon Parameters ******************************
  
 phonon calculation method                      : linear response
 phonon convergence tolerance                   : 0.1000E-04   eV/A**2
 max. number of phonon cycles                   :         50
 max. number of phonon CG steps                 :          0
 convergence tolerance window                   :          2   cycles
 DFPT solver method                             : AllBands (Gonze variational method)
 preconditioning scheme                         : TPA     
 fine phonon calculation method                 : interpolation
 non-periodic force constant method             : Weighted cumulant sum
 LO/TO splitting term                           : included
 acoustic phonon sum rule                       : correct D(q) in recip-space
 Born effective charges                         : calculated
 Born charge sum rule                           : explicitly enforced
 Raman intensities                              : calculated
 Raman frequency window start                   :  0.000       eV
 Raman frequency window stop                    :  1.000       eV
 Raman tensor calculated using                  : finite displacement method
 phonon k-points                                : use reduced set
 phonon DOS                                     : not calculated
 backups results every                          :      14400   seconds
 band convergence tolerance                     : 0.1000E-08   eV

 *******************************************************************************
  

                           -------------------------------
                                      Unit Cell
                           -------------------------------
        Real Lattice(A)                      Reciprocal Lattice(1/A)
     9.8525285     0.0000000     0.0013901        0.637556674   0.000000000   1.179778054
     0.0000000     2.0588400     0.0000000        0.000000000   3.051808459   0.000000000
    -6.5698965     0.0000000     3.5503978       -0.000249622   0.000000000   1.769251141

                       Lattice parameters(A)       Cell Angles
                    a =      9.852529          alpha =   90.000000
                    b =      2.058840          beta  =  151.604955
                    c =      7.467855          gamma =   90.000000

                       Current cell volume =            72.037840       A**3
                                   density =             0.335804   AMU/A**3
                                           =             0.557615     g/cm^3

                           -------------------------------
                                     Cell Contents
                           -------------------------------
                         Total number of ions in cell =   24
                      Total number of species in cell =    1
                        Max number of any one species =   24

            xxxxxxxxxxxxxxxxxxxxxxxxxxxxxxxxxxxxxxxxxxxxxxxxxxxxxxxxxxxx
            x  Element    Atom        Fractional coordinates of atoms  x
            x            Number           u          v          w      x
            x----------------------------------------------------------x
            x  H            1         0.835571   0.652902   0.103670   x 
            x  H            2         0.164429   0.347098   0.896330   x 
            x  H            3         0.835571   0.847098   0.603670   x 
            x  H            4         0.164429   0.152902   0.396330   x 
            x  H            5         0.882510   0.406269   0.223183   x 
            x  H            6         0.117490   0.593731   0.776817   x 
            x  H            7         0.882510   0.093731   0.723183   x 
            x  H            8         0.117490   0.906269   0.276817   x 
            x  H            9         0.859898   0.118853   0.416290   x 
            x  H           10         0.140102   0.881147   0.583710   x 
            x  H           11         0.859898   0.381147   0.916290   x 
            x  H           12         0.140102   0.618853   0.083710   x 
            x  H           13         0.749332   0.908914   0.247980   x 
            x  H           14         0.250668   0.091086   0.752020   x 
            x  H           15         0.749332   0.591086   0.747980   x 
            x  H           16         0.250668   0.408914   0.252020   x 
            x  H           17         0.573780   0.392411   0.193348   x 
            x  H           18         0.426220   0.607589   0.806652   x 
            x  H           19         0.573780   0.107589   0.693348   x 
            x  H           20         0.426220   0.892411   0.306652   x 
            x  H           21         0.478876   0.598881   0.137432   x 
            x  H           22         0.521124   0.401119   0.862568   x 
            x  H           23         0.478876   0.901119   0.637432   x 
            x  H           24         0.521124   0.098881   0.362568   x 
            xxxxxxxxxxxxxxxxxxxxxxxxxxxxxxxxxxxxxxxxxxxxxxxxxxxxxxxxxxxx


                         No user defined ionic velocities

                           -------------------------------
                                   Details of Species
                           -------------------------------

                               Mass of species in AMU
                                    H    1.0079400

                          Electric Quadrupole Moment (Barn)
                                    H    0.0028600 Isotope  2

                          Files used for pseudopotentials:
                                    H 0|0.7|2|6|8|10L(qc=10)

                           -------------------------------
                              k-Points For BZ Sampling
                           -------------------------------
                       MP grid size for SCF calculation is  8  8  8
                            with an offset of   0.000  0.000  0.000
                       Number of kpoints used =           128

                           -------------------------------
                               Symmetry and Constraints
                           -------------------------------

                      Maximum deviation from symmetry = 0.168195E-13     ANG

                      Number of symmetry operations   =           4
                      Number of ionic constraints     =           3
                      Point group of crystal =     5: C2h, 2/m, 2/m
                      Space group of crystal =    14: P2_1/c, -P 2ybc

             Set iprint > 1 for details on symmetry rotations/translations

                         Centre of mass is constrained
             Set iprint > 1 for details of linear ionic constraints

                         Number of cell constraints= 2
                         Cell constraints are:  1 2 3 0 5 0

                         External pressure/stress (GPa)
                         50.00000   0.00000   0.00000
                                   50.00000   0.00000
                                             50.00000
  
+---------------- MEMORY AND SCRATCH DISK ESTIMATES PER PROCESS --------------+
|                                                     Memory          Disk    |
| Baseline code, static data and system overhead      412.0 MB         0.0 MB |
| BLAS internal memory storage                          0.0 MB         0.0 MB |
| Model and support data                               77.0 MB         0.0 MB |
| Electronic energy minimisation requirements          62.6 MB         0.0 MB |
| Force calculation requirements                       29.7 MB         0.0 MB |
| Stress calculation requirements                      37.6 MB         0.0 MB |
|                                               ----------------------------- |
| Approx. total storage required per process          551.6 MB         0.0 MB |
|                                                                             |
| Requirements will fluctuate during execution and may exceed these estimates |
+-----------------------------------------------------------------------------+
Calculating finite basis set correction with  3 cut-off energies.
Calculating total energy with cut-off of 1190.000 eV.
------------------------------------------------------------------------ <-- SCF
SCF loop      Energy                           Energy gain       Timer   <-- SCF
                                               per atom          (sec)   <-- SCF
------------------------------------------------------------------------ <-- SCF
Initial   6.22375885E+002                                          8.27  <-- SCF
      1  -2.96241793E+002                    3.82757366E+001      18.47  <-- SCF
      2  -3.71683653E+002                    3.14341082E+000      24.81  <-- SCF
      3  -3.73115684E+002                    5.96679582E-002      30.26  <-- SCF
      4  -3.70696550E+002                   -1.00797263E-001      40.31  <-- SCF
      5  -3.70617683E+002                   -3.28610994E-003      50.35  <-- SCF
      6  -3.70621246E+002                    1.48455755E-004      60.72  <-- SCF
      7  -3.70621641E+002                    1.64666892E-005      70.74  <-- SCF
      8  -3.70621642E+002                    5.22494183E-008      80.82  <-- SCF
      9  -3.70621642E+002                    4.30823417E-009      90.87  <-- SCF
     10  -3.70621642E+002                    1.21789431E-011      98.22  <-- SCF
     11  -3.70621642E+002                    2.46317967E-012     105.73  <-- SCF
     12  -3.70621642E+002                    2.21545187E-013     113.06  <-- SCF
------------------------------------------------------------------------ <-- SCF
 
Final energy =  -370.6216423877     eV
(energy not corrected for finite basis set)
 
Calculating total energy with cut-off of 1195.000 eV.
------------------------------------------------------------------------ <-- SCF
SCF loop      Energy                           Energy gain       Timer   <-- SCF
                                               per atom          (sec)   <-- SCF
------------------------------------------------------------------------ <-- SCF
Initial  -3.70621642E+002                                        117.51  <-- SCF
      1  -3.70623330E+002                    7.03013065E-005     125.28  <-- SCF
      2  -3.70623330E+002                    8.76231354E-011     135.51  <-- SCF
      3  -3.70623330E+002                    3.31968383E-008     145.61  <-- SCF
      4  -3.70623330E+002                    1.93278035E-009     155.58  <-- SCF
      5  -3.70623330E+002                    4.10241265E-011     162.85  <-- SCF
      6  -3.70623330E+002                   -5.52453134E-012     170.19  <-- SCF
      7  -3.70623330E+002                    7.61108419E-012     177.78  <-- SCF
------------------------------------------------------------------------ <-- SCF
 
Final energy =  -370.6233304653     eV
(energy not corrected for finite basis set)
 
Calculating total energy with cut-off of 1200.000 eV.
------------------------------------------------------------------------ <-- SCF
SCF loop      Energy                           Energy gain       Timer   <-- SCF
                                               per atom          (sec)   <-- SCF
------------------------------------------------------------------------ <-- SCF
Initial  -3.70623330E+002                                        182.24  <-- SCF
      1  -3.70624963E+002                    6.80189519E-005     190.11  <-- SCF
      2  -3.70624963E+002                    8.14299404E-011     200.11  <-- SCF
      3  -3.70624964E+002                    3.20714412E-008     210.36  <-- SCF
      4  -3.70624964E+002                    1.80741397E-009     220.47  <-- SCF
      5  -3.70624964E+002                    3.89617422E-011     227.88  <-- SCF
      6  -3.70624964E+002                   -5.94345315E-012     235.27  <-- SCF
      7  -3.70624964E+002                    7.48017113E-012     242.87  <-- SCF
------------------------------------------------------------------------ <-- SCF
 
Final energy =  -370.6249637362     eV
(energy not corrected for finite basis set)
 
 For future reference: finite basis dEtot/dlog(Ecut) =      -0.399225eV
 Total energy corrected for finite basis set =    -370.624994 eV

 Efield perturbation    1:  X                                           264.29s
  +---------------- MEMORY AND SCRATCH DISK ESTIMATES PER PROCESS --------------+
  |                                                     Memory          Disk    |
  | Baseline code, static data and system overhead      412.0 MB         0.0 MB |
  | BLAS internal memory storage                          0.0 MB         0.0 MB |
  | Model and support data                               77.3 MB         0.0 MB |
  | DFPT E-field response requirements                   94.2 MB         0.0 MB |
  |                                               ----------------------------- |
  | Approx. total storage required per process          583.5 MB         0.0 MB |
  |                                                                             |
  | Requirements will fluctuate during execution and may exceed these estimates |
  +-----------------------------------------------------------------------------+

 Efield perturbation    2:  Y                                           553.29s

 Efield perturbation    3:  Z                                           712.07s
 Perturbation    1 (of   18): H     1 X at q=( 0.000, 0.000, 0.000):    857.45s
  Parallel strategy changed for perturbation using 256 k-points
  Data is distributed by G-vector(1-way) and k-point(16-way) and band(1-way)
  +---------------- MEMORY AND SCRATCH DISK ESTIMATES PER PROCESS --------------+
  |                                                     Memory          Disk    |
  | Baseline code, static data and system overhead      412.0 MB         0.0 MB |
  | BLAS internal memory storage                          0.0 MB         0.0 MB |
  | Model and support data                               77.3 MB         0.0 MB |
  | DFPT phonon calculation requirements                224.6 MB         0.0 MB |
  |                                               ----------------------------- |
  | Approx. total storage required per process          713.9 MB         0.0 MB |
  |                                                                             |
  | Requirements will fluctuate during execution and may exceed these estimates |
  +-----------------------------------------------------------------------------+
 Perturbation    2 (of   18): H     5 X at q=( 0.000, 0.000, 0.000):   1235.90s
 Perturbation    3 (of   18): H     9 X at q=( 0.000, 0.000, 0.000):   1581.23s
 Perturbation    4 (of   18): H    13 X at q=( 0.000, 0.000, 0.000):   1928.56s
 Perturbation    5 (of   18): H    17 X at q=( 0.000, 0.000, 0.000):   2251.36s
 Perturbation    6 (of   18): H    21 X at q=( 0.000, 0.000, 0.000):   2595.51s
 Perturbation    7 (of   18): H     1 Y at q=( 0.000, 0.000, 0.000):   2942.49s
 Perturbation    8 (of   18): H     5 Y at q=( 0.000, 0.000, 0.000):   3333.32s
 Perturbation    9 (of   18): H     9 Y at q=( 0.000, 0.000, 0.000):   3798.14s
 Perturbation   10 (of   18): H    13 Y at q=( 0.000, 0.000, 0.000):   4259.93s
 Perturbation   11 (of   18): H    17 Y at q=( 0.000, 0.000, 0.000):   4719.73s
 Perturbation   12 (of   18): H    21 Y at q=( 0.000, 0.000, 0.000):   5182.87s
 Perturbation   13 (of   18): H     1 Z at q=( 0.000, 0.000, 0.000):   5611.27s
 Perturbation   14 (of   18): H     5 Z at q=( 0.000, 0.000, 0.000):   6068.08s
 Perturbation   15 (of   18): H     9 Z at q=( 0.000, 0.000, 0.000):   6530.59s
 Perturbation   16 (of   18): H    13 Z at q=( 0.000, 0.000, 0.000):   6991.87s
 Perturbation   17 (of   18): H    17 Z at q=( 0.000, 0.000, 0.000):   7454.02s
 Perturbation   18 (of   18): H    21 Z at q=( 0.000, 0.000, 0.000):   7919.11s

 Phonon calculation: q-point   1 (of    1) ( 0.000, 0.000, 0.000):     8378.91s
 -------------------------------------------------------------------------------
 
 ==============================================================================
 +                           Vibrational Frequencies                          +
 +                           -----------------------                          +
 +                                                                            +
 + Performing frequency calculation at  1 wavevector  (q-pt )                 +
 + ========================================================================== +
 +                                                                            +
 +============================================================================+
 +                       Raman Intensity Progress Report                      +
 +----------------------------------------------------------------------------+
 + RAMAN: Not a continuation; generating Raman intensities from beginning     +
 +----------------------------------------------------------------------------+
 + Mode     1: not Raman active; calculation not required                     +
 + Mode     2: not Raman active; calculation not required                     +
 + Mode     3: not Raman active; calculation not required                     +
 + Mode     4: performing Raman intensity calculation                         +

 Efield perturbation    1:  X                                          8552.36s

 Efield perturbation    2:  Y                                          8929.07s

 Efield perturbation    3:  Z                                          9135.43s

 Efield perturbation    1:  X                                          9475.43s

 Efield perturbation    2:  Y                                          9842.49s

 Efield perturbation    3:  Z                                         10047.17s
 + Mode number:   4 completed;                   time taken:  1851.44 seconds +
 + Mode     5: not Raman active; calculation not required                     +
 + Mode     6: not Raman active; calculation not required                     +
 + Mode     7: performing Raman intensity calculation                         +

 Efield perturbation    1:  X                                         10545.16s

 Efield perturbation    2:  Y                                         11309.39s

 Efield perturbation    3:  Z                                         11698.04s

 Efield perturbation    1:  X                                         12362.46s

 Efield perturbation    2:  Y                                         13118.08s

 Efield perturbation    3:  Z                                         13505.93s
 + Mode number:   7 completed;                   time taken:  3658.43 seconds +
 + Mode     8: performing Raman intensity calculation                         +

 Efield perturbation    1:  X                                         14062.42s

 Efield perturbation    2:  Y                                         14434.91s

 Efield perturbation    3:  Z                                         14641.31s

 Efield perturbation    1:  X                                         14986.31s

 Efield perturbation    2:  Y                                         15361.30s

 Efield perturbation    3:  Z                                         15568.74s
 + Mode number:   8 completed;                   time taken:  1864.32 seconds +
 + Mode     9: performing Raman intensity calculation                         +

 Efield perturbation    1:  X                                         16063.83s

 Efield perturbation    2:  Y                                         16815.43s

 Efield perturbation    3:  Z                                         17203.26s

 Efield perturbation    1:  X                                         17871.63s

 Efield perturbation    2:  Y                                         18629.27s

 Efield perturbation    3:  Z                                         19025.27s
 + Mode number:   9 completed;                   time taken:  3664.40 seconds +
 + Mode    10: not Raman active; calculation not required                     +
 + Mode    11: performing Raman intensity calculation                         +

 Efield perturbation    1:  X                                         19592.00s

 Efield perturbation    2:  Y                                         19967.53s

 Efield perturbation    3:  Z                                         20174.55s

 Efield perturbation    1:  X                                         20520.32s

 Efield perturbation    2:  Y                                         20896.46s

 Efield perturbation    3:  Z                                         21105.27s
 + Mode number:  11 completed;                   time taken:  1874.52 seconds +
 + Mode    12: not Raman active; calculation not required                     +
 + Mode    13: not Raman active; calculation not required                     +
 + Mode    14: performing Raman intensity calculation                         +

 Efield perturbation    1:  X                                         21608.28s

 Efield perturbation    2:  Y                                         22949.07s

 Efield perturbation    3:  Z                                         23779.82s

 Efield perturbation    1:  X                                         25140.30s

 Efield perturbation    2:  Y                                         26557.93s

 Efield perturbation    3:  Z                                         27368.31s
 + Mode number:  14 completed;                   time taken:  6884.06 seconds +
 + Checkpointing.....                                                         +

Writing analysis data to P21c.castep_bin

Writing model to P21c.check
 + Mode    15: performing Raman intensity calculation                         +

 Efield perturbation    1:  X                                         28525.29s

 Efield perturbation    2:  Y                                         29280.06s

 Efield perturbation    3:  Z                                         29745.84s

 Efield perturbation    1:  X                                         30459.33s

 Efield perturbation    2:  Y                                         31230.94s

 Efield perturbation    3:  Z                                         31675.61s
 + Mode number:  15 completed;                   time taken:  3893.57 seconds +
 + Mode    16: not Raman active; calculation not required                     +
 + Mode    17: not Raman active; calculation not required                     +
 + Mode    18: performing Raman intensity calculation                         +

 Efield perturbation    1:  X                                         32688.24s

 Efield perturbation    2:  Y                                         34124.80s

 Efield perturbation    3:  Z                                         34939.24s

 Efield perturbation    1:  X                                         36314.71s

 Efield perturbation    2:  Y                                         37680.33s

 Efield perturbation    3:  Z                                         38471.69s
 + Mode number:  18 completed;                   time taken:  7185.67 seconds +
 + Mode    19: performing Raman intensity calculation                         +

 Efield perturbation    1:  X                                         39884.87s

 Efield perturbation    2:  Y                                         41330.83s

 Efield perturbation    3:  Z                                         42152.60s

 Efield perturbation    1:  X                                         43552.72s

 Efield perturbation    2:  Y                                         45010.49s

 Efield perturbation    3:  Z                                         45818.39s
 + Mode number:  19 completed;                   time taken:  7375.22 seconds +
 + Checkpointing.....                                                         +

Writing analysis data to P21c.castep_bin

Writing model to P21c.check
 + Mode    20: not Raman active; calculation not required                     +
 + Mode    21: not Raman active; calculation not required                     +
 + Mode    22: performing Raman intensity calculation                         +

 Efield perturbation    1:  X                                         46998.04s

 Efield perturbation    2:  Y                                         47752.92s

 Efield perturbation    3:  Z                                         48205.28s

 Efield perturbation    1:  X                                         48920.28s

 Efield perturbation    2:  Y                                         49714.72s

 Efield perturbation    3:  Z                                         50171.73s
 + Mode number:  22 completed;                   time taken:  3935.81 seconds +
 + Mode    23: performing Raman intensity calculation                         +

 Efield perturbation    1:  X                                         51201.24s

 Efield perturbation    2:  Y                                         52624.44s

 Efield perturbation    3:  Z                                         53448.50s

 Efield perturbation    1:  X                                         54809.62s

 Efield perturbation    2:  Y                                         56272.67s

 Efield perturbation    3:  Z                                         57066.40s
 + Mode number:  23 completed;                   time taken:  7301.18 seconds +
 + Mode    24: not Raman active; calculation not required                     +
 + Mode    25: not Raman active; calculation not required                     +
 + Mode    26: performing Raman intensity calculation                         +

 Efield perturbation    1:  X                                         58244.77s

 Efield perturbation    2:  Y                                         58992.27s

 Efield perturbation    3:  Z                                         59437.05s

 Efield perturbation    1:  X                                         60156.05s

 Efield perturbation    2:  Y                                         60908.00s

 Efield perturbation    3:  Z                                         61366.24s
 + Mode number:  26 completed;                   time taken:  3944.50 seconds +
 + Checkpointing.....                                                         +

Writing analysis data to P21c.castep_bin

Writing model to P21c.check
 + Mode    27: not Raman active; calculation not required                     +
 + Mode    28: not Raman active; calculation not required                     +
 + Mode    29: performing Raman intensity calculation                         +

 Efield perturbation    1:  X                                         62192.53s

 Efield perturbation    2:  Y                                         62968.14s

 Efield perturbation    3:  Z                                         63429.94s

 Efield perturbation    1:  X                                         64199.98s

 Efield perturbation    2:  Y                                         64974.55s

 Efield perturbation    3:  Z                                         65405.79s
 + Mode number:  29 completed;                   time taken:  3981.98 seconds +
 + Mode    30: not Raman active; calculation not required                     +
 + Mode    31: performing Raman intensity calculation                         +

 Efield perturbation    1:  X                                         66418.10s

 Efield perturbation    2:  Y                                         67849.57s

 Efield perturbation    3:  Z                                         68664.38s

 Efield perturbation    1:  X                                         70149.27s

 Efield perturbation    2:  Y                                         71596.66s

 Efield perturbation    3:  Z                                         72396.48s
 + Mode number:  31 completed;                   time taken:  7408.20 seconds +
 + Mode    32: not Raman active; calculation not required                     +
 + Mode    33: not Raman active; calculation not required                     +
 + Mode    34: performing Raman intensity calculation                         +

 Efield perturbation    1:  X                                         73581.47s

 Efield perturbation    2:  Y                                         74362.14s

 Efield perturbation    3:  Z                                         74824.27s

 Efield perturbation    1:  X                                         75562.22s

 Efield perturbation    2:  Y                                         76321.84s

 Efield perturbation    3:  Z                                         76780.72s
 + Mode number:  34 completed;                   time taken:  3970.97 seconds +
 + Checkpointing.....                                                         +

Writing analysis data to P21c.castep_bin

Writing model to P21c.check
 + Mode    35: performing Raman intensity calculation                         +

 Efield perturbation    1:  X                                         77550.51s

 Efield perturbation    2:  Y                                         78330.58s

 Efield perturbation    3:  Z                                         78779.38s

 Efield perturbation    1:  X                                         79498.03s

 Efield perturbation    2:  Y                                         80261.10s

 Efield perturbation    3:  Z                                         80704.38s
 + Mode number:  35 completed;                   time taken:  3913.51 seconds +
 + Mode    36: performing Raman intensity calculation                         +

 Efield perturbation    1:  X                                         81462.12s

 Efield perturbation    2:  Y                                         82272.42s

 Efield perturbation    3:  Z                                         82722.27s

 Efield perturbation    1:  X                                         83533.52s

 Efield perturbation    2:  Y                                         84325.91s

 Efield perturbation    3:  Z                                         84774.91s
 + Mode number:  36 completed;                   time taken:  4097.73 seconds +
 + Mode    37: not Raman active; calculation not required                     +
 + Mode    38: performing Raman intensity calculation                         +

 Efield perturbation    1:  X                                         85694.99s
 +-------------------------------------------------+
 |                                                 |
 |      CCC   AA    SSS  TTTTT  EEEEE  PPPP        |
 |     C     A  A  S       T    E      P   P       |
 |     C     AAAA   SS     T    EEE    PPPP        |
 |     C     A  A     S    T    E      P           |
 |      CCC  A  A  SSS     T    EEEEE  P           |
 |                                                 |
 +-------------------------------------------------+
 |                                                 |
 | Welcome to Academic Release CASTEP version 18.1 |          
 | Ab Initio Total Energy Program                  |
 |                                                 |
 | Authors:                                        |
 | M. Segall, M. Probert, C. Pickard, P. Hasnip,   |
 | S. Clark, K. Refson, J. R. Yates, M. Payne      |
 |                                                 |
 | Contributors:                                   |
 | P. Lindan, P. Haynes, J. White, V. Milman,      |
 | N. Govind, M. Gibson, P. Tulip, V. Cocula,      |
 | B. Montanari, D. Quigley, M. Glover,            |
 | L. Bernasconi, A. Perlov, M. Plummer,           |
 | E. McNellis, J. Meyer, J. Gale, D. Jochym       |
 | J. Aarons, B. Walker, R. Gillen, D. Jones       |
 | T. Green, I. J. Bush, C. J. Armstrong,          |
 | E. J. Higgins, E. L. Brown, M. S. McFly,        |
 | J. Wilkins, B-C. Shih, P. J. P. Byrne           |
 |                                                 |
 | Copyright (c) 2000 - 2017                       |
 |                                                 |
 |     Distributed under the terms of an           |
 |     Agreement between the United Kingdom        |
 |     Car-Parrinello (UKCP) Consortium,           |
 |     Daresbury Laboratory and Accelrys, Inc.     |
 |                                                 |
 | Please cite                                     |
 |                                                 |
 |     "First principles methods using CASTEP"     |
 |                                                 |
 |         Zeitschrift fuer Kristallographie       |
 |           220(5-6) pp. 567-570 (2005)           |
 |                                                 |
 | S. J. Clark, M. D. Segall, C. J. Pickard,       |
 | P. J. Hasnip, M. J. Probert, K. Refson,         |
 | M. C. Payne                                     |
 |                                                 |
 |       in all publications arising from          |
 |              your use of CASTEP                 |
 |                                                 |
 +-------------------------------------------------+


 Compiled for linux_x86_64_gfortran4.8 on Thu, 19 Jul 2018 15:42:32 +0100
 from code version 70483bd0ad64+  Sun, 10 Dec 2017 12:18:29 +0000
 Compiler: GNU Fortran 4.8.5; Optimisation: fast
 MATHLIBS: Intel MKL(2018.0.0) (LAPACK version 3.7.0)
 FFT Lib : mkl
 Fundamental constants values: CODATA 2014

 Run started: Wed, 29 Jul 2020 11:53:54 +0100
 +-------------------------------------------------+
 |                                                 |
 |  D D D D    F F F F F  P P P P     T T T T T    |
 |  D       D  F          P       P       T        |
 |  D       D  F F F F    P P P P         T        |
 |  D       D  F          P               T        |
 |  D D D D    F          P               T        |
 |                                                 |
 +-------------------------------------------------+
 |                                                 |
 | Welcome to Castep Linear Response (DFPT)        |
 |                                                 |
 | Copyright (c) 2006 - 2017                       |
 |                                                 |
 | Please cite the following publications in all   |
 | work arising from your use of CASTEP LR.        |
 |                                                 |
 | K. Refson, S. J. Clark and P. R. Tulip          |
 | Variational density functional perturbation     |
 | theory for dielectrics and lattice dynamics     |
 | Phys. Rev. B 73(15), 155114 (2006)              |
 +-------------------------------------------------+

Reading continuation data from model file P21c.check

 Atomic calculation performed for H: 1s1

 Converged in 41 iterations to an ae energy of -12.488 eV

   ============================================================                
   | Pseudopotential Report - Date of generation 29-07-2020   |                
   ------------------------------------------------------------                
   | Element: H Ionic charge:  1.00 Level of theory: PBE      |                
   | Atomic Solver: Koelling-Harmon                           |                
   |                                                          |                
   |               Reference Electronic Structure             |                
   |         Orbital         Occupation         Energy        |                
   |            1s              1.000           -0.239        |                
   |                                                          |                
   |                 Pseudopotential Definition               |                
   |        Beta     l      e      Rc     scheme   norm       |                
   |         loc     0   -0.239   0.702     qc      1         |                
   |                                                          |                
   | No charge augmentation                                   |                
   | No partial core correction                               |                
   ------------------------------------------------------------                
   | "0|0.7|2|6|8|10L(qc=10)"                                 |                
   ------------------------------------------------------------                
   |      Author: Chris J. Pickard, Cambridge University      |                
   ============================================================                

 Pseudo atomic calculation performed for H 1s1

 Converged in 24 iterations to a total energy of -12.4843 eV

Initialising basis set for model.
Reinitialising basis set for current geometry.
Continuing from previous run with ground state wavefunction.
Continuing from previous run with ground state density.
 Calculation parallelised over 16 processes.
 Data is distributed by k-point(16-way)

 ************************************ Title ************************************
 

 ***************************** General Parameters ******************************
  
 output verbosity                               : normal  (1)
 continuing from                                : P21c.check
 write checkpoint data to                       : P21c.check
 type of calculation                            : phonon calculation
 stress calculation                             : on
 density difference calculation                 : off
 electron localisation func (ELF) calculation   : off
 Hirshfeld analysis                             : off
 unlimited duration calculation
 timing information                             : on
 memory usage estimate                          : on
 write extra output files                       : on
 write final potential to formatted file        : off
 write final density to formatted file          : off
 write structure in CELL formatted file         : on
 write BibTeX reference list                    : on
 write OTFG pseudopotential files               : on
 write electrostatic potential file             : on
 write bands file                               : on
 checkpoint writing                             : both castep_bin and check files
  
 output         length unit                     : A
 output           mass unit                     : amu
 output           time unit                     : ps
 output         charge unit                     : e
 output           spin unit                     : hbar/2
 output         energy unit                     : eV
 output          force unit                     : eV/A
 output       velocity unit                     : A/ps
 output       pressure unit                     : GPa
 output     inv_length unit                     : 1/A
 output      frequency unit                     : cm-1
 output force constant unit                     : eV/A**2
 output         volume unit                     : A**3
 output   IR intensity unit                     : (D/A)**2/amu
 output         dipole unit                     : D
 output         efield unit                     : eV/A/e
 output        entropy unit                     : J/mol/K
  
 wavefunctions paging                           : none
 random number generator seed                   :  103945520
 data distribution                              : optimal for this architecture
 optimization strategy                          : maximize speed(+++)

 *********************** Exchange-Correlation Parameters ***********************
  
 using functional                               : Perdew Burke Ernzerhof
 relativistic treatment                         : Koelling-Harmon
 DFT+D: Semi-empirical dispersion correction    : off

 ************************* Pseudopotential Parameters **************************
  
 pseudopotential representation                 : reciprocal space
 <beta|phi> representation                      : reciprocal space
 spin-orbit coupling                            : off

 **************************** Basis Set Parameters *****************************
  
 plane wave basis set cut-off                   :  1200.0000   eV
 size of standard grid                          :     2.0000
 size of   fine   gmax                          :    35.4943   1/A
 finite basis set correction                    : automatic
 number of sample energies                      :          3
           sample  spacing                      :     5.0000   eV

 **************************** Electronic Parameters ****************************
  
 number of  electrons                           :  24.00    
 net charge of system                           :  0.000    
 treating system as non-spin-polarized
 number of bands                                :         12

 ********************* Electronic Minimization Parameters **********************
  
 Method: Treating system as non-metallic,
         and number of  SD  steps               :          1
         and number of  CG  steps               :          4
  
 total energy / atom convergence tol.           : 0.1000E-10   eV
 eigen-energy convergence tolerance             : 0.2000E-10   eV
 max force / atom convergence tol.              : ignored
 convergence tolerance window                   :          3   cycles
 max. number of SCF cycles                      :        100
 periodic dipole correction                     : NONE

 ************************** Density Mixing Parameters **************************
  
 density-mixing scheme                          : Broyden
 max. length of mixing history                  :         20
 charge density mixing amplitude                : 0.8000    
 cut-off energy for mixing                      :  1200.       eV

 *********************** Population Analysis Parameters ************************
  
 Population analysis with cutoff                :  3.000       A
 Population analysis output                     : summary and pdos components

 ****************************** Phonon Parameters ******************************
  
 phonon calculation method                      : linear response
 phonon convergence tolerance                   : 0.1000E-04   eV/A**2
 max. number of phonon cycles                   :         50
 max. number of phonon CG steps                 :          0
 convergence tolerance window                   :          2   cycles
 DFPT solver method                             : AllBands (Gonze variational method)
 preconditioning scheme                         : TPA     
 fine phonon calculation method                 : interpolation
 non-periodic force constant method             : Weighted cumulant sum
 LO/TO splitting term                           : included
 acoustic phonon sum rule                       : correct D(q) in recip-space
 Born effective charges                         : calculated
 Born charge sum rule                           : explicitly enforced
 Raman intensities                              : calculated
 Raman frequency window start                   :  0.000       eV
 Raman frequency window stop                    :  1.000       eV
 Raman tensor calculated using                  : finite displacement method
 phonon k-points                                : use reduced set
 phonon DOS                                     : not calculated
 backups results every                          :      14400   seconds
 band convergence tolerance                     : 0.1000E-08   eV

 *******************************************************************************
  

                           -------------------------------
                                      Unit Cell
                           -------------------------------
        Real Lattice(A)                      Reciprocal Lattice(1/A)
     9.8525285     0.0000000     0.0013901        0.637556674   0.000000000   1.179778054
     0.0000000     2.0588400     0.0000000        0.000000000   3.051808459   0.000000000
    -6.5698965     0.0000000     3.5503978       -0.000249622   0.000000000   1.769251141

                       Lattice parameters(A)       Cell Angles
                    a =      9.852529          alpha =   90.000000
                    b =      2.058840          beta  =  151.604955
                    c =      7.467855          gamma =   90.000000

                       Current cell volume =            72.037840       A**3
                                   density =             0.335804   AMU/A**3
                                           =             0.557615     g/cm^3

                           -------------------------------
                                     Cell Contents
                           -------------------------------
                         Total number of ions in cell =   24
                      Total number of species in cell =    1
                        Max number of any one species =   24

            xxxxxxxxxxxxxxxxxxxxxxxxxxxxxxxxxxxxxxxxxxxxxxxxxxxxxxxxxxxx
            x  Element    Atom        Fractional coordinates of atoms  x
            x            Number           u          v          w      x
            x----------------------------------------------------------x
            x  H            1         0.835571   0.652902   0.103670   x 
            x  H            2         0.164429   0.347098   0.896330   x 
            x  H            3         0.835571   0.847098   0.603670   x 
            x  H            4         0.164429   0.152902   0.396330   x 
            x  H            5         0.882510   0.406269   0.223183   x 
            x  H            6         0.117490   0.593731   0.776817   x 
            x  H            7         0.882510   0.093731   0.723183   x 
            x  H            8         0.117490   0.906269   0.276817   x 
            x  H            9         0.859898   0.118853   0.416290   x 
            x  H           10         0.140102   0.881147   0.583710   x 
            x  H           11         0.859898   0.381147   0.916290   x 
            x  H           12         0.140102   0.618853   0.083710   x 
            x  H           13         0.749332   0.908914   0.247980   x 
            x  H           14         0.250668   0.091086   0.752020   x 
            x  H           15         0.749332   0.591086   0.747980   x 
            x  H           16         0.250668   0.408914   0.252020   x 
            x  H           17         0.573780   0.392411   0.193348   x 
            x  H           18         0.426220   0.607589   0.806652   x 
            x  H           19         0.573780   0.107589   0.693348   x 
            x  H           20         0.426220   0.892411   0.306652   x 
            x  H           21         0.478876   0.598881   0.137432   x 
            x  H           22         0.521124   0.401119   0.862568   x 
            x  H           23         0.478876   0.901119   0.637432   x 
            x  H           24         0.521124   0.098881   0.362568   x 
            xxxxxxxxxxxxxxxxxxxxxxxxxxxxxxxxxxxxxxxxxxxxxxxxxxxxxxxxxxxx


                         No user defined ionic velocities

                           -------------------------------
                                   Details of Species
                           -------------------------------

                               Mass of species in AMU
                                    H    1.0079400

                          Electric Quadrupole Moment (Barn)
                                    H    0.0028600 Isotope  2

                          Files used for pseudopotentials:
                                    H 0|0.7|2|6|8|10L(qc=10)

                           -------------------------------
                              k-Points For BZ Sampling
                           -------------------------------
                       MP grid size for SCF calculation is  8  8  8
                            with an offset of   0.000  0.000  0.000
                       Number of kpoints used =           128

                           -------------------------------
                               Symmetry and Constraints
                           -------------------------------

                      Maximum deviation from symmetry = 0.168195E-13     ANG

                      Number of symmetry operations   =           4
                      Number of ionic constraints     =           3
                      Point group of crystal =     5: C2h, 2/m, 2/m
                      Space group of crystal =    14: P2_1/c, -P 2ybc

             Set iprint > 1 for details on symmetry rotations/translations

                         Centre of mass is constrained
             Set iprint > 1 for details of linear ionic constraints

                         Number of cell constraints= 2
                         Cell constraints are:  1 2 3 0 5 0

                         External pressure/stress (GPa)
                         50.00000   0.00000   0.00000
                                   50.00000   0.00000
                                             50.00000
 Restarting Phonon calculation: Frequencies for q-points 1 to 1 recovered from .check file.
 
 ==============================================================================
 +                           Vibrational Frequencies                          +
 +                           -----------------------                          +
 +                                                                            +
 + Performing frequency calculation at  1 wavevector  (q-pt )                 +
 + ========================================================================== +
 +                                                                            +
 +============================================================================+
 +                       Raman Intensity Progress Report                      +
 +----------------------------------------------------------------------------+
 + RAMAN: Restart calculation; continuing Raman calculation from checkpoint   +
 +----------------------------------------------------------------------------+
 + Mode     1: Raman tensor recovered from check file                         +
 + Mode     2: Raman tensor recovered from check file                         +
 + Mode     3: Raman tensor recovered from check file                         +
 + Mode     4: Raman tensor recovered from check file                         +
 + Mode     5: Raman tensor recovered from check file                         +
 + Mode     6: Raman tensor recovered from check file                         +
 + Mode     7: Raman tensor recovered from check file                         +
 + Mode     8: Raman tensor recovered from check file                         +
 + Mode     9: Raman tensor recovered from check file                         +
 + Mode    10: Raman tensor recovered from check file                         +
 + Mode    11: Raman tensor recovered from check file                         +
 + Mode    12: Raman tensor recovered from check file                         +
 + Mode    13: Raman tensor recovered from check file                         +
 + Mode    14: Raman tensor recovered from check file                         +
 + Mode    15: Raman tensor recovered from check file                         +
 + Mode    16: Raman tensor recovered from check file                         +
 + Mode    17: Raman tensor recovered from check file                         +
 + Mode    18: Raman tensor recovered from check file                         +
 + Mode    19: Raman tensor recovered from check file                         +
 + Mode    20: Raman tensor recovered from check file                         +
 + Mode    21: Raman tensor recovered from check file                         +
 + Mode    22: Raman tensor recovered from check file                         +
 + Mode    23: Raman tensor recovered from check file                         +
 + Mode    24: Raman tensor recovered from check file                         +
 + Mode    25: Raman tensor recovered from check file                         +
 + Mode    26: Raman tensor recovered from check file                         +
 + Mode    27: Raman tensor recovered from check file                         +
 + Mode    28: Raman tensor recovered from check file                         +
 + Mode    29: Raman tensor recovered from check file                         +
 + Mode    30: Raman tensor recovered from check file                         +
 + Mode    31: Raman tensor recovered from check file                         +
 + Mode    32: Raman tensor recovered from check file                         +
 + Mode    33: Raman tensor recovered from check file                         +
 + Mode    34: Raman tensor recovered from check file                         +
 + Mode    35: performing Raman intensity calculation                         +

 Efield perturbation    1:  X                                           374.01s
  +---------------- MEMORY AND SCRATCH DISK ESTIMATES PER PROCESS --------------+
  |                                                     Memory          Disk    |
  | DFPT E-field response requirements                   94.2 MB         0.0 MB |
  |                                               ----------------------------- |
  | Approx. total storage required per process           94.2 MB         0.0 MB |
  |                                                                             |
  | Requirements will fluctuate during execution and may exceed these estimates |
  +-----------------------------------------------------------------------------+

 Efield perturbation    2:  Y                                          1119.74s

 Efield perturbation    3:  Z                                          1541.34s

 Efield perturbation    1:  X                                          2254.36s

 Efield perturbation    2:  Y                                          2953.56s

 Efield perturbation    3:  Z                                          3436.65s
 + Mode number:  35 completed;                   time taken:  3799.01 seconds +
 + Mode    36: performing Raman intensity calculation                         +

 Efield perturbation    1:  X                                          4154.12s

 Efield perturbation    2:  Y                                          4875.41s

 Efield perturbation    3:  Z                                          5338.65s

 Efield perturbation    1:  X                                          6060.48s

 Efield perturbation    2:  Y                                          6752.51s

 Efield perturbation    3:  Z                                          7171.33s
 + Mode number:  36 completed;                   time taken:  3504.83 seconds +
 + Mode    37: not Raman active; calculation not required                     +
 + Mode    38: performing Raman intensity calculation                         +

 Efield perturbation    1:  X                                          7572.29s
  +---------------- MEMORY AND SCRATCH DISK ESTIMATES PER PROCESS --------------+
  |                                                     Memory          Disk    |
  | DFPT E-field response requirements                  164.2 MB         0.0 MB |
  |                                               ----------------------------- |
  | Approx. total storage required per process          164.2 MB         0.0 MB |
  |                                                                             |
  | Requirements will fluctuate during execution and may exceed these estimates |
  +-----------------------------------------------------------------------------+

 Efield perturbation    2:  Y                                          8140.26s

 Efield perturbation    3:  Z                                          8447.77s

 Efield perturbation    1:  X                                          8952.99s

 Efield perturbation    2:  Y                                          9525.46s

 Efield perturbation    3:  Z                                          9835.10s
 + Mode number:  38 completed;                   time taken:  2791.79 seconds +
 + Mode    39: performing Raman intensity calculation                         +

 Efield perturbation    1:  X                                         10364.87s

 Efield perturbation    2:  Y                                         10937.04s

 Efield perturbation    3:  Z                                         11249.95s

 Efield perturbation    1:  X                                         11776.45s

 Efield perturbation    2:  Y                                         12337.92s

 Efield perturbation    3:  Z                                         12639.15s
 + Mode number:  39 completed;                   time taken:  2821.69 seconds +
 + Mode    40: performing Raman intensity calculation                         +

 Efield perturbation    1:  X                                         13186.28s

 Efield perturbation    2:  Y                                         13759.48s

 Efield perturbation    3:  Z                                         14061.05s

 Efield perturbation    1:  X                                         14585.42s

 Efield perturbation    2:  Y                                         15160.11s

 Efield perturbation    3:  Z                                         15465.97s
 + Mode number:  40 completed;                   time taken:  2829.17 seconds +
 + Checkpointing.....                                                         +

Writing analysis data to P21c.castep_bin

Writing model to P21c.check
 + Mode    41: not Raman active; calculation not required                     +
 + Mode    42: performing Raman intensity calculation                         +

 Efield perturbation    1:  X                                         15906.02s

 Efield perturbation    2:  Y                                         16198.46s

 Efield perturbation    3:  Z                                         16360.06s

 Efield perturbation    1:  X                                         16628.68s

 Efield perturbation    2:  Y                                         16920.80s

 Efield perturbation    3:  Z                                         17081.91s
 + Mode number:  42 completed;                   time taken:  1455.42 seconds +
 + Mode    43: performing Raman intensity calculation                         +

 Efield perturbation    1:  X                                         17468.29s

 Efield perturbation    2:  Y                                         18028.06s

 Efield perturbation    3:  Z                                         18327.65s

 Efield perturbation    1:  X                                         18818.23s

 Efield perturbation    2:  Y                                         19375.11s

 Efield perturbation    3:  Z                                         19672.64s
 + Mode number:  43 completed;                   time taken:  2717.07 seconds +
 + Mode    44: performing Raman intensity calculation                         +

 Efield perturbation    1:  X                                         20183.98s

 Efield perturbation    2:  Y                                         20770.37s

 Efield perturbation    3:  Z                                         21070.77s

 Efield perturbation    1:  X                                         21565.29s

 Efield perturbation    2:  Y                                         22149.65s

 Efield perturbation    3:  Z                                         22449.53s
 + Mode number:  44 completed;                   time taken:  2776.12 seconds +
 + Mode    45: not Raman active; calculation not required                     +
 + Mode    46: performing Raman intensity calculation                         +

 Efield perturbation    1:  X                                         22946.22s

 Efield perturbation    2:  Y                                         23530.63s

 Efield perturbation    3:  Z                                         23830.48s

 Efield perturbation    1:  X                                         24348.04s

 Efield perturbation    2:  Y                                         24935.59s

 Efield perturbation    3:  Z                                         25234.41s
 + Mode number:  46 completed;                   time taken:  2811.83 seconds +
 + Mode    47: not Raman active; calculation not required                     +
 + Mode    48: performing Raman intensity calculation                         +

 Efield perturbation    1:  X                                         25665.97s

 Efield perturbation    2:  Y                                         25955.03s

 Efield perturbation    3:  Z                                         26115.91s

 Efield perturbation    1:  X                                         26382.69s

 Efield perturbation    2:  Y                                         26671.63s

 Efield perturbation    3:  Z                                         26832.38s
 + Mode number:  48 completed;                   time taken:  1444.63 seconds +
 + Mode    49: not Raman active; calculation not required                     +
 + Mode    50: not Raman active; calculation not required                     +
 + Mode    51: not Raman active; calculation not required                     +
 + Mode    52: not Raman active; calculation not required                     +
 + Mode    53: performing Raman intensity calculation                         +

 Efield perturbation    1:  X                                         27109.06s

 Efield perturbation    2:  Y                                         27397.08s

 Efield perturbation    3:  Z                                         27557.42s

 Efield perturbation    1:  X                                         27823.07s

 Efield perturbation    2:  Y                                         28114.52s

 Efield perturbation    3:  Z                                         28276.04s
 + Mode number:  53 completed;                   time taken:  1444.66 seconds +
 + Mode    54: not Raman active; calculation not required                     +
 + Mode    55: not Raman active; calculation not required                     +
 + Mode    56: performing Raman intensity calculation                         +

 Efield perturbation    1:  X                                         28661.91s

 Efield perturbation    2:  Y                                         29220.57s

 Efield perturbation    3:  Z                                         29519.05s

 Efield perturbation    1:  X                                         30091.95s

 Efield perturbation    2:  Y                                         30828.05s

 Efield perturbation    3:  Z                                         31228.92s
 + Mode number:  56 completed;                   time taken:  3205.11 seconds +
 + Checkpointing.....                                                         +

Writing analysis data to P21c.castep_bin

Writing model to P21c.check
 + Mode    57: not Raman active; calculation not required                     +
 + Mode    58: performing Raman intensity calculation                         +

 Efield perturbation    1:  X                                         31801.72s

 Efield perturbation    2:  Y                                         32177.87s

 Efield perturbation    3:  Z                                         32389.19s

 Efield perturbation    1:  X                                         32718.21s

 Efield perturbation    2:  Y                                         33094.17s

 Efield perturbation    3:  Z                                         33306.91s
 + Mode number:  58 completed;                   time taken:  1867.06 seconds +
 + Mode    59: performing Raman intensity calculation                         +

 Efield perturbation    1:  X                                         33817.40s

 Efield perturbation    2:  Y                                         34571.31s

 Efield perturbation    3:  Z                                         34972.53s

 Efield perturbation    1:  X                                         35633.58s

 Efield perturbation    2:  Y                                         36385.01s

 Efield perturbation    3:  Z                                         36797.64s
 + Mode number:  59 completed;                   time taken:  3667.16 seconds +
 + Mode    60: performing Raman intensity calculation                         +

 Efield perturbation    1:  X                                         37339.30s

 Efield perturbation    2:  Y                                         37718.81s

 Efield perturbation    3:  Z                                         37935.46s

 Efield perturbation    1:  X                                         38289.04s

 Efield perturbation    2:  Y                                         38668.98s

 Efield perturbation    3:  Z                                         38879.37s
 + Mode number:  60 completed;                   time taken:  1907.70 seconds +
 + Mode    61: performing Raman intensity calculation                         +

 Efield perturbation    1:  X                                         39237.13s

 Efield perturbation    2:  Y                                         39600.57s

 Efield perturbation    3:  Z                                         39812.51s

 Efield perturbation    1:  X                                         40159.62s

 Efield perturbation    2:  Y                                         40520.73s

 Efield perturbation    3:  Z                                         40734.15s
 + Mode number:  61 completed;                   time taken:  1860.03 seconds +
 + Mode    62: performing Raman intensity calculation                         +

 Efield perturbation    1:  X                                         41233.07s

 Efield perturbation    2:  Y                                         42054.15s

 Efield perturbation    3:  Z                                         42489.85s

 Efield perturbation    1:  X                                         43200.77s

 Efield perturbation    2:  Y                                         43978.98s

 Efield perturbation    3:  Z                                         44368.31s
 + Mode number:  62 completed;                   time taken:  3834.48 seconds +
 + Mode    63: not Raman active; calculation not required                     +
 + Mode    64: not Raman active; calculation not required                     +
 + Mode    65: not Raman active; calculation not required                     +
 + Mode    66: not Raman active; calculation not required                     +
 + Mode    67: performing Raman intensity calculation                         +

 Efield perturbation    1:  X                                         44933.04s

 Efield perturbation    2:  Y                                         45306.41s

 Efield perturbation    3:  Z                                         45519.90s

 Efield perturbation    1:  X                                         45869.75s

 Efield perturbation    2:  Y                                         46260.52s

 Efield perturbation    3:  Z                                         46474.28s
 + Mode number:  67 completed;                   time taken:  1913.14 seconds +
 + Checkpointing.....                                                         +

Writing analysis data to P21c.castep_bin

Writing model to P21c.check
 + Mode    68: performing Raman intensity calculation                         +

 Efield perturbation    1:  X                                         47017.15s

 Efield perturbation    2:  Y                                         47798.67s

 Efield perturbation    3:  Z                                         48201.21s

 Efield perturbation    1:  X                                         48878.53s

 Efield perturbation    2:  Y                                         49629.50s

 Efield perturbation    3:  Z                                         50032.09s
 + Mode number:  68 completed;                   time taken:  3721.59 seconds +
 + Mode    69: not Raman active; calculation not required                     +
 + Mode    70: performing Raman intensity calculation                         +

 Efield perturbation    1:  X                                         50579.52s

 Efield perturbation    2:  Y                                         50959.97s

 Efield perturbation    3:  Z                                         51172.93s

 Efield perturbation    1:  X                                         51518.45s

 Efield perturbation    2:  Y                                         51910.86s

 Efield perturbation    3:  Z                                         52123.00s
 + Mode number:  70 completed;                   time taken:  1914.56 seconds +
 + Mode    71: not Raman active; calculation not required                     +
 + Mode    72: performing Raman intensity calculation                         +

[...]
 +     0.0000    0.0000    0.0000      0.000000                               +
 +     0.0000    0.0000    0.0000                                             +
 +     0.0000    0.0000    0.0000                                             +
 +                                                                            +
 + Mode number:  58 Raman tensor       Depolarisation Ratio                   +
 +    -0.0037    0.0000    0.0836      0.728337                               +
 +     0.0000    0.0271    0.0000                                             +
 +     0.0836    0.0000   -0.0007                                             +
 +                                                                            +
 + Mode number:  59 Raman tensor       Depolarisation Ratio                   +
 +     0.0000   -0.0269    0.0000      0.750000                               +
 +    -0.0269    0.0000   -0.0179                                             +
 +     0.0000   -0.0179    0.0000                                             +
 +                                                                            +
 + Mode number:  60 Raman tensor       Depolarisation Ratio                   +
 +    -0.0130    0.0000    0.0100      0.667141                               +
 +     0.0000    0.0173    0.0000                                             +
 +     0.0100    0.0000   -0.0157                                             +
 +                                                                            +
 + Mode number:  61 Raman tensor       Depolarisation Ratio                   +
 +     2.4384    0.0000   -0.0244      0.002349                               +
 +     0.0000    2.8955    0.0000                                             +
 +    -0.0244    0.0000    3.0055                                             +
 +                                                                            +
 + Mode number:  62 Raman tensor       Depolarisation Ratio                   +
 +     0.0000   -0.0226   -0.0000      0.750000                               +
 +    -0.0226    0.0000    0.2128                                             +
 +    -0.0000    0.2128    0.0000                                             +
 +                                                                            +
 + Mode number:  63 Raman tensor       Depolarisation Ratio                   +
 +     0.0000    0.0000    0.0000      0.000000                               +
 +     0.0000    0.0000    0.0000                                             +
 +     0.0000    0.0000    0.0000                                             +
 +                                                                            +
 + Mode number:  64 Raman tensor       Depolarisation Ratio                   +
 +     0.0000    0.0000    0.0000      0.000000                               +
 +     0.0000    0.0000    0.0000                                             +
 +     0.0000    0.0000    0.0000                                             +
 +                                                                            +
 + Mode number:  65 Raman tensor       Depolarisation Ratio                   +
 +     0.0000    0.0000    0.0000      0.000000                               +
 +     0.0000    0.0000    0.0000                                             +
 +     0.0000    0.0000    0.0000                                             +
 +                                                                            +
 + Mode number:  66 Raman tensor       Depolarisation Ratio                   +
 +     0.0000    0.0000    0.0000      0.000000                               +
 +     0.0000    0.0000    0.0000                                             +
 +     0.0000    0.0000    0.0000                                             +
 +                                                                            +
 + Mode number:  67 Raman tensor       Depolarisation Ratio                   +
 +     0.3487    0.0000    0.2844      0.675483                               +
 +     0.0000   -0.2658    0.0000                                             +
 +     0.2844    0.0000   -0.3241                                             +
 +                                                                            +
 + Mode number:  68 Raman tensor       Depolarisation Ratio                   +
 +    -0.0000    0.4426   -0.0000      0.750000                               +
 +     0.4426   -0.0000   -0.4376                                             +
 +    -0.0000   -0.4376    0.0000                                             +
 +                                                                            +
 + Mode number:  69 Raman tensor       Depolarisation Ratio                   +
 +     0.0000    0.0000    0.0000      0.000000                               +
 +     0.0000    0.0000    0.0000                                             +
 +     0.0000    0.0000    0.0000                                             +
 +                                                                            +
 + Mode number:  70 Raman tensor       Depolarisation Ratio                   +
 +    -0.4612    0.0000    0.0666      0.282778                               +
 +     0.0000   -0.3791    0.0000                                             +
 +     0.0666    0.0000    0.1578                                             +
 +                                                                            +
 + Mode number:  71 Raman tensor       Depolarisation Ratio                   +
 +     0.0000    0.0000    0.0000      0.000000                               +
 +     0.0000    0.0000    0.0000                                             +
 +     0.0000    0.0000    0.0000                                             +
 +                                                                            +
 + Mode number:  72 Raman tensor       Depolarisation Ratio                   +
 +     0.0000    0.1913   -0.0000      0.750000                               +
 +     0.1913    0.0000    0.4519                                             +
 +    -0.0000    0.4519    0.0000                                             +
 +                                                                            +
 +----------------------------------------------------------------------------+
  

 ******************** Symmetrised Forces ********************
 *                                                          *
 *               Cartesian components (eV/A)                *
 * -------------------------------------------------------- *
 *                         x            y            z      *
 *                                                          *
 * H               1      0.00000      0.00000      0.00000 *
 * H               2     -0.00000     -0.00000     -0.00000 *
 * H               3      0.00000     -0.00000      0.00000 *
 * H               4     -0.00000      0.00000     -0.00000 *
 * H               5      0.00000      0.00000      0.00000 *
 * H               6     -0.00000     -0.00000     -0.00000 *
 * H               7      0.00000     -0.00000      0.00000 *
 * H               8     -0.00000      0.00000     -0.00000 *
 * H               9     -0.00000     -0.00000      0.00000 *
 * H              10      0.00000      0.00000     -0.00000 *
 * H              11     -0.00000      0.00000      0.00000 *
 * H              12      0.00000     -0.00000     -0.00000 *
 * H              13      0.00000     -0.00000     -0.00000 *
 * H              14     -0.00000      0.00000      0.00000 *
 * H              15      0.00000      0.00000     -0.00000 *
 * H              16     -0.00000     -0.00000      0.00000 *
 * H              17      0.00000     -0.00000     -0.00000 *
 * H              18     -0.00000      0.00000      0.00000 *
 * H              19      0.00000      0.00000     -0.00000 *
 * H              20     -0.00000     -0.00000      0.00000 *
 * H              21      0.00000      0.00000     -0.00000 *
 * H              22     -0.00000     -0.00000      0.00000 *
 * H              23      0.00000     -0.00000     -0.00000 *
 * H              24     -0.00000      0.00000      0.00000 *
 *                                                          *
 ************************************************************

 *********** Symmetrised Stress Tensor ***********
 *                                               *
 *          Cartesian components (GPa)           *
 * --------------------------------------------- *
 *             x             y             z     *
 *                                               *
 *  x    -50.000399      0.000000     -0.000004  *
 *  y      0.000000    -50.000406      0.000000  *
 *  z     -0.000004      0.000000    -50.000414  *
 *                                               *
 *  Pressure:   50.0004                          *
 *                                               *
 *************************************************

 Pseudo atomic calculation performed for H 1s1

 Converged in 24 iterations to a total energy of -12.4843 eV

Charge spilling parameter for spin component 1 = 0.64%

            Orbital Populations       
     Ion    Atom   Orbital             Charge
  -------------------------------------------
      H     1      S                    0.986
      H     2      S                    0.986
      H     3      S                    0.987
      H     4      S                    0.987
      H     5      S                    1.014
      H     6      S                    1.014
      H     7      S                    1.013
      H     8      S                    1.013
      H     9      S                    1.009
      H    10      S                    1.009
      H    11      S                    1.009
      H    12      S                    1.009
      H    13      S                    0.991
      H    14      S                    0.991
      H    15      S                    0.992
      H    16      S                    0.992
      H    17      S                    1.002
      H    18      S                    1.002
      H    19      S                    1.001
      H    20      S                    1.001
      H    21      S                    0.998
      H    22      S                    0.998
      H    23      S                    0.998
      H    24      S                    0.998
  -------------------------------------------
                           Total:      24.000
  -------------------------------------------

     Atomic Populations (Mulliken)
     -----------------------------
Species          Ion     s      p      d      f     Total  Charge (e)
=====================================================================
  H               1     0.99   0.00   0.00   0.00   0.99     0.01
  H               2     0.99   0.00   0.00   0.00   0.99     0.01
  H               3     0.99   0.00   0.00   0.00   0.99     0.01
  H               4     0.99   0.00   0.00   0.00   0.99     0.01
  H               5     1.01   0.00   0.00   0.00   1.01    -0.01
  H               6     1.01   0.00   0.00   0.00   1.01    -0.01
  H               7     1.01   0.00   0.00   0.00   1.01    -0.01
  H               8     1.01   0.00   0.00   0.00   1.01    -0.01
  H               9     1.01   0.00   0.00   0.00   1.01    -0.01
  H              10     1.01   0.00   0.00   0.00   1.01    -0.01
  H              11     1.01   0.00   0.00   0.00   1.01    -0.01
  H              12     1.01   0.00   0.00   0.00   1.01    -0.01
  H              13     0.99   0.00   0.00   0.00   0.99     0.01
  H              14     0.99   0.00   0.00   0.00   0.99     0.01
  H              15     0.99   0.00   0.00   0.00   0.99     0.01
  H              16     0.99   0.00   0.00   0.00   0.99     0.01
  H              17     1.00   0.00   0.00   0.00   1.00    -0.00
  H              18     1.00   0.00   0.00   0.00   1.00    -0.00
  H              19     1.00   0.00   0.00   0.00   1.00    -0.00
  H              20     1.00   0.00   0.00   0.00   1.00    -0.00
  H              21     1.00   0.00   0.00   0.00   1.00     0.00
  H              22     1.00   0.00   0.00   0.00   1.00     0.00
  H              23     1.00   0.00   0.00   0.00   1.00     0.00
  H              24     1.00   0.00   0.00   0.00   1.00     0.00
=====================================================================

                 Bond                   Population      Length (A)
======================================================================
              H 2  -- H 6                    1.30        0.73626
              H 4  -- H 8                    1.30        0.73626
              H 3  -- H 7                    1.30        0.73626
              H 1  -- H 5                    1.30        0.73626
              H 17 -- H 21                   1.31        0.73650
              H 19 -- H 23                   1.31        0.73650
              H 20 -- H 24                   1.31        0.73650
              H 18 -- H 22                   1.31        0.73650
              H 12 -- H 16                   1.30        0.73781
              H 9  -- H 13                   1.30        0.73781
              H 10 -- H 14                   1.30        0.73781
              H 11 -- H 15                   1.30        0.73781
              H 8  -- H 11                  -0.11        1.61985
              H 6  -- H 9                   -0.11        1.61985
              H 5  -- H 10                  -0.11        1.61985
              H 7  -- H 12                  -0.11        1.61985
              H 10 -- H 18                  -0.12        1.66686
              H 12 -- H 20                  -0.12        1.66686
              H 11 -- H 19                  -0.12        1.66686
              H 9  -- H 17                  -0.12        1.66686
              H 22 -- H 23                  -0.13        1.68178
              H 21 -- H 24                  -0.13        1.68178
              H 16 -- H 20                  -0.11        1.70513
              H 13 -- H 17                  -0.11        1.70513
              H 14 -- H 18                  -0.11        1.70513
              H 15 -- H 19                  -0.11        1.70513
              H 3  -- H 9                   -0.06        1.70841
              H 2  -- H 12                  -0.06        1.70841
              H 1  -- H 11                  -0.06        1.70841
              H 4  -- H 10                  -0.06        1.70841
              H 15 -- H 20                  -0.10        1.70941
              H 14 -- H 17                  -0.10        1.70941
              H 13 -- H 18                  -0.10        1.70941
              H 16 -- H 19                  -0.10        1.70941
              H 14 -- H 21                  -0.10        1.72647
              H 15 -- H 24                  -0.10        1.72647
              H 16 -- H 23                  -0.10        1.72647
              H 13 -- H 22                  -0.10        1.72647
              H 3  -- H 17                  -0.12        1.73587
              H 4  -- H 18                  -0.12        1.73587
              H 1  -- H 19                  -0.12        1.73587
              H 2  -- H 20                  -0.12        1.73587
              H 5  -- H 9                   -0.12        1.74491
              H 7  -- H 11                  -0.12        1.74491
              H 8  -- H 12                  -0.12        1.74491
              H 6  -- H 10                  -0.12        1.74491
              H 5  -- H 22                  -0.05        1.74928
              H 7  -- H 24                  -0.05        1.74928
              H 8  -- H 23                  -0.05        1.74928
              H 6  -- H 21                  -0.05        1.74928
              H 4  -- H 11                  -0.14        1.77498
              H 2  -- H 9                   -0.14        1.77498
              H 1  -- H 10                  -0.14        1.77498
              H 3  -- H 12                  -0.14        1.77498
              H 1  -- H 23                  -0.12        1.79067
              H 3  -- H 21                  -0.12        1.79067
              H 4  -- H 22                  -0.12        1.79067
              H 2  -- H 24                  -0.12        1.79067
              H 6  -- H 14                  -0.11        1.79779
              H 5  -- H 13                  -0.11        1.79779
              H 7  -- H 15                  -0.11        1.79779
              H 8  -- H 16                  -0.11        1.79779
              H 19 -- H 20                  -0.06        1.80629
              H 17 -- H 18                  -0.06        1.80629
              H 1  -- H 22                  -0.05        1.81512
              H 3  -- H 24                  -0.05        1.81512
              H 4  -- H 23                  -0.05        1.81512
              H 2  -- H 21                  -0.05        1.81512
              H 3  -- H 6                   -0.10        1.82764
              H 1  -- H 8                   -0.10        1.82764
              H 2  -- H 7                   -0.10        1.82764
              H 4  -- H 5                   -0.10        1.82764
              H 11 -- H 12                  -0.04        1.83072
              H 9  -- H 10                  -0.04        1.83072
              H 19 -- H 22                  -0.13        1.83978
              H 17 -- H 24                  -0.13        1.83978
              H 18 -- H 23                  -0.13        1.83978
              H 20 -- H 21                  -0.13        1.83978
              H 2  -- H 14                  -0.12        1.94221
              H 4  -- H 16                  -0.12        1.94221
              H 1  -- H 13                  -0.12        1.94221
              H 3  -- H 15                  -0.12        1.94221
              H 3  -- H 13                  -0.07        1.95524
              H 2  -- H 16                  -0.07        1.95524
              H 1  -- H 15                  -0.07        1.95524
              H 4  -- H 14                  -0.07        1.95524
              H 2  -- H 3                   -0.12        1.96868
              H 1  -- H 4                   -0.12        1.96868
              H 7  -- H 16                  -0.11        1.99291
              H 6  -- H 13                  -0.11        1.99291
              H 8  -- H 15                  -0.11        1.99291
              H 5  -- H 14                  -0.11        1.99291
              H 7  -- H 17                  -0.10        2.02763
              H 6  -- H 20                  -0.10        2.02763
              H 5  -- H 19                  -0.10        2.02763
              H 8  -- H 18                  -0.10        2.02763
              H 18 -- H 21                  -0.06        2.02898
              H 20 -- H 23                  -0.06        2.02898
              H 19 -- H 24                  -0.06        2.02898
              H 17 -- H 22                  -0.06        2.02898
              H 9  -- H 14                  -0.05        2.03207
              H 11 -- H 16                  -0.05        2.03207
              H 12 -- H 15                  -0.05        2.03207
              H 10 -- H 13                  -0.05        2.03207
======================================================================


Writing analysis data to P21c.castep_bin

Writing model to P21c.check
 
 A BibTeX formatted list of references used in this run has been written to 
 P21c.bib
 
Initialisation time =     11.69 s
Calculation time    =  56117.60 s
Finalisation time   =      3.09 s
Total time          =  56132.38 s
Peak Memory Use     = 731852 kB
  
Overall parallel efficiency rating: Very good (88%)                             
  
Data was distributed by:-
k-point (16-way); efficiency rating: Excellent (90%)                            
