 +-------------------------------------------------+
 |                                                 |
 |      CCC   AA    SSS  TTTTT  EEEEE  PPPP        |
 |     C     A  A  S       T    E      P   P       |
 |     C     AAAA   SS     T    EEE    PPPP        |
 |     C     A  A     S    T    E      P           |
 |      CCC  A  A  SSS     T    EEEEE  P           |
 |                                                 |
 +-------------------------------------------------+
 |                                                 |
 | Welcome to Academic Release CASTEP version 18.1 |          
 | Ab Initio Total Energy Program                  |
 |                                                 |
 | Authors:                                        |
 | M. Segall, M. Probert, C. Pickard, P. Hasnip,   |
 | S. Clark, K. Refson, J. R. Yates, M. Payne      |
 |                                                 |
 | Contributors:                                   |
 | P. Lindan, P. Haynes, J. White, V. Milman,      |
 | N. Govind, M. Gibson, P. Tulip, V. Cocula,      |
 | B. Montanari, D. Quigley, M. Glover,            |
 | L. Bernasconi, A. Perlov, M. Plummer,           |
 | E. McNellis, J. Meyer, J. Gale, D. Jochym       |
 | J. Aarons, B. Walker, R. Gillen, D. Jones       |
 | T. Green, I. J. Bush, C. J. Armstrong,          |
 | E. J. Higgins, E. L. Brown, M. S. McFly,        |
 | J. Wilkins, B-C. Shih, P. J. P. Byrne           |
 |                                                 |
 | Copyright (c) 2000 - 2017                       |
 |                                                 |
 |     Distributed under the terms of an           |
 |     Agreement between the United Kingdom        |
 |     Car-Parrinello (UKCP) Consortium,           |
 |     Daresbury Laboratory and Accelrys, Inc.     |
 |                                                 |
 | Please cite                                     |
 |                                                 |
 |     "First principles methods using CASTEP"     |
 |                                                 |
 |         Zeitschrift fuer Kristallographie       |
 |           220(5-6) pp. 567-570 (2005)           |
 |                                                 |
 | S. J. Clark, M. D. Segall, C. J. Pickard,       |
 | P. J. Hasnip, M. J. Probert, K. Refson,         |
 | M. C. Payne                                     |
 |                                                 |
 |       in all publications arising from          |
 |              your use of CASTEP                 |
 |                                                 |
 +-------------------------------------------------+


 Compiled for linux_x86_64_gfortran4.8 on Thu, 19 Jul 2018 15:42:32 +0100
 from code version 70483bd0ad64+  Sun, 10 Dec 2017 12:18:29 +0000
 Compiler: GNU Fortran 4.8.5; Optimisation: fast
 MATHLIBS: Intel MKL(2018.0.0) (LAPACK version 3.7.0)
 FFT Lib : mkl
 Fundamental constants values: CODATA 2014

 Run started: Fri, 28 Aug 2020 10:13:27 +0100

 Atomic calculation performed for H: 1s1

 Converged in 41 iterations to an ae energy of -12.488 eV

   ============================================================                
   | Pseudopotential Report - Date of generation 28-08-2020   |                
   ------------------------------------------------------------                
   | Element: H Ionic charge:  1.00 Level of theory: PBE      |                
   | Atomic Solver: Koelling-Harmon                           |                
   |                                                          |                
   |               Reference Electronic Structure             |                
   |         Orbital         Occupation         Energy        |                
   |            1s              1.000           -0.239        |                
   |                                                          |                
   |                 Pseudopotential Definition               |                
   |        Beta     l      e      Rc     scheme   norm       |                
   |         loc     0   -0.239   0.702     qc      1         |                
   |                                                          |                
   | No charge augmentation                                   |                
   | No partial core correction                               |                
   ------------------------------------------------------------                
   | "0|0.7|2|6|8|10L(qc=10)"                                 |                
   ------------------------------------------------------------                
   |      Author: Chris J. Pickard, Cambridge University      |                
   ============================================================                

 Pseudo atomic calculation performed for H 1s1

 Converged in 24 iterations to a total energy of -12.4855 eV

 Calculation parallelised over 32 processes.
 Data is distributed by k-point(32-way)

 ************************************ Title ************************************
 

 ***************************** General Parameters ******************************
  
 output verbosity                               : normal  (1)
 write checkpoint data to                       : Pbcn.check
 type of calculation                            : geometry optimization
 stress calculation                             : on
 density difference calculation                 : off
 electron localisation func (ELF) calculation   : off
 Hirshfeld analysis                             : off
 unlimited duration calculation
 timing information                             : on
 memory usage estimate                          : on
 write extra output files                       : on
 write final potential to formatted file        : off
 write final density to formatted file          : off
 write structure in CELL formatted file         : on
 write BibTeX reference list                    : on
 write OTFG pseudopotential files               : on
 write electrostatic potential file             : on
 write bands file                               : on
 checkpoint writing                             : both castep_bin and check files
  
 output         length unit                     : A
 output           mass unit                     : amu
 output           time unit                     : ps
 output         charge unit                     : e
 output           spin unit                     : hbar/2
 output         energy unit                     : eV
 output          force unit                     : eV/A
 output       velocity unit                     : A/ps
 output       pressure unit                     : GPa
 output     inv_length unit                     : 1/A
 output      frequency unit                     : cm-1
 output force constant unit                     : eV/A**2
 output         volume unit                     : A**3
 output   IR intensity unit                     : (D/A)**2/amu
 output         dipole unit                     : D
 output         efield unit                     : eV/A/e
 output        entropy unit                     : J/mol/K
  
 wavefunctions paging                           : none
 random number generator seed                   : randomised (101327773)
 data distribution                              : optimal for this architecture
 optimization strategy                          : maximize speed(+++)

 *********************** Exchange-Correlation Parameters ***********************
  
 using functional                               : Perdew Burke Ernzerhof
 relativistic treatment                         : Koelling-Harmon
 DFT+D: Semi-empirical dispersion correction    : off

 ************************* Pseudopotential Parameters **************************
  
 pseudopotential representation                 : reciprocal space
 <beta|phi> representation                      : reciprocal space
 spin-orbit coupling                            : off

 **************************** Basis Set Parameters *****************************
  
 plane wave basis set cut-off                   :  1600.0000   eV
 size of standard grid                          :     2.0000
 size of   fine   gmax                          :    40.9853   1/A
 finite basis set correction                    : automatic
 number of sample energies                      :          3
           sample  spacing                      :     5.0000   eV

 **************************** Electronic Parameters ****************************
  
 number of  electrons                           :  48.00    
 net charge of system                           :  0.000    
 treating system as non-spin-polarized
 number of bands                                :         24

 ********************* Electronic Minimization Parameters **********************
  
 Method: Treating system as non-metallic,
         and number of  SD  steps               :          1
         and number of  CG  steps               :          4
  
 total energy / atom convergence tol.           : 0.1000E-10   eV
 eigen-energy convergence tolerance             : 0.2000E-10   eV
 max force / atom convergence tol.              : ignored
 convergence tolerance window                   :          3   cycles
 max. number of SCF cycles                      :        100
 periodic dipole correction                     : NONE

 ************************** Density Mixing Parameters **************************
  
 density-mixing scheme                          : Broyden
 max. length of mixing history                  :         20
 charge density mixing amplitude                : 0.8000    
 cut-off energy for mixing                      :  1600.       eV

 *********************** Population Analysis Parameters ************************
  
 Population analysis with cutoff                :  3.000       A
 Population analysis output                     : summary and pdos components

 ********************** Geometry Optimization Parameters ***********************
  
 optimization method                            : LBFGS
 max. no. of LBFGS updates                      : unbounded
 variable cell method                           : fixed basis quality
 max. number of steps                           :        100
 estimated bulk modulus                         :  500.0       GPa
 estimated <frequency>                          :  1668.       cm-1
 geom line minimiser                            : on
 with line minimiser tolerance                  :     0.4000
 total energy convergence tolerance             : 0.1000E-08   eV/atom
        max ionic |force| tolerance             : 0.1000E-04   eV/A
 max ionic |displacement| tolerance             : 0.1000E-04   A
   max |stress component| tolerance             : 0.1000E-04   GPa
 convergence tolerance window                   :          2   steps
 backup results every                           :      14400   seconds
 write geom trajectory file                     : on

 *******************************************************************************
  

                           -------------------------------
                                      Unit Cell
                           -------------------------------
        Real Lattice(A)                      Reciprocal Lattice(1/A)
     3.5451249    -0.0000000     0.0000000        1.772345249   0.000000000   0.000000000
    -0.0000000     6.1592569     0.0000000        0.000000000   1.020120677   0.000000000
     0.0000000     0.0000000     6.1074225        0.000000000   0.000000000   1.028778565

                       Lattice parameters(A)       Cell Angles
                    a =      3.545125          alpha =   90.000000
                    b =      6.159257          beta  =   90.000000
                    c =      6.107422          gamma =   90.000000

                       Current cell volume =           133.357616       A**3
                                   density =             0.362792   AMU/A**3
                                           =             0.602431     g/cm^3

                           -------------------------------
                                     Cell Contents
                           -------------------------------
                         Total number of ions in cell =   48
                      Total number of species in cell =    1
                        Max number of any one species =   48

            xxxxxxxxxxxxxxxxxxxxxxxxxxxxxxxxxxxxxxxxxxxxxxxxxxxxxxxxxxxx
            x  Element    Atom        Fractional coordinates of atoms  x
            x            Number           u          v          w      x
            x----------------------------------------------------------x
            x  H            1         0.413403   0.125343   0.024641   x 
            x  H            2         0.566753   0.203036   0.049548   x 
            x  H            3         0.563193   0.546737   0.003506   x 
            x  H            4         0.105615   0.169062   0.245554   x 
            x  H            5         0.297713   0.363778   0.237944   x 
            x  H            6         0.192891   0.467930   0.256776   x 
            x  H            7         0.192891   0.532070   0.756776   x 
            x  H            8         0.297713   0.636222   0.737944   x 
            x  H            9         0.105615   0.830938   0.745554   x 
            x  H           10         0.563193   0.453263   0.503506   x 
            x  H           11         0.566753   0.796964   0.549548   x 
            x  H           12         0.413403   0.874657   0.524641   x 
            x  H           13         0.307109   0.967930   0.256776   x 
            x  H           14         0.202287   0.863778   0.237944   x 
            x  H           15         0.394385   0.669062   0.245554   x 
            x  H           16        -0.063193   0.046737   0.003506   x 
            x  H           17        -0.066753   0.703036   0.049548   x 
            x  H           18         0.086597   0.625343   0.024641   x 
            x  H           19         0.692891   0.967930   0.243224   x 
            x  H           20         0.797713   0.863778   0.262056   x 
            x  H           21         0.605615   0.669062   0.254446   x 
            x  H           22         1.063193   0.046737   0.496494   x 
            x  H           23         1.066753   0.703036   0.450452   x 
            x  H           24         0.913403   0.625343   0.475359   x 
            x  H           25         0.807109   0.532070   0.743224   x 
            x  H           26         0.702287   0.636222   0.762056   x 
            x  H           27         0.894385   0.830938   0.754446   x 
            x  H           28         0.436807   0.453263  -0.003506   x 
            x  H           29         0.433247   0.796964   0.950452   x 
            x  H           30         0.586597   0.874657   0.975359   x 
            x  H           31         0.807109   0.467930   0.243224   x 
            x  H           32         0.702287   0.363778   0.262056   x 
            x  H           33         0.894385   0.169062   0.254446   x 
            x  H           34         0.436807   0.546737   0.496494   x 
            x  H           35         0.433247   0.203036   0.450452   x 
            x  H           36         0.586597   0.125343   0.475359   x 
            x  H           37         0.692891   0.032070   0.743224   x 
            x  H           38         0.797713   0.136222   0.762056   x 
            x  H           39         0.605615   0.330938   0.754446   x 
            x  H           40         0.063193  -0.046737  -0.003506   x 
            x  H           41         1.066753   0.296964   0.950452   x 
            x  H           42         0.913403   0.374657   0.975359   x 
            x  H           43         0.307109   0.032070   0.756776   x 
            x  H           44         0.202287   0.136222   0.737944   x 
            x  H           45         0.394385   0.330938   0.745554   x 
            x  H           46         0.936807  -0.046737   0.503506   x 
            x  H           47        -0.066753   0.296964   0.549548   x 
            x  H           48         0.086597   0.374657   0.524641   x 
            xxxxxxxxxxxxxxxxxxxxxxxxxxxxxxxxxxxxxxxxxxxxxxxxxxxxxxxxxxxx


                         No user defined ionic velocities

                           -------------------------------
                                   Details of Species
                           -------------------------------

                               Mass of species in AMU
                                    H    1.0078250

                          Electric Quadrupole Moment (Barn)
                                    H    0.0028600 Isotope  2

                          Files used for pseudopotentials:
                                    H 0|0.7|2|6|8|10L(qc=10)

                           -------------------------------
                              k-Points For BZ Sampling
                           -------------------------------
                       MP grid size for SCF calculation is 12 12 12
                            with an offset of   0.000  0.000  0.000
                       Number of kpoints used =           216

                           -------------------------------
                               Symmetry and Constraints
                           -------------------------------

                      Maximum deviation from symmetry = 0.123087E-13     ANG

                      Number of symmetry operations   =           8
                      Number of ionic constraints     =           3
                      Point group of crystal =     8: D2h, mmm, 2/m 2/m 2/m
                      Space group of crystal =    60: Pbcn, -P 2n 2ab

             Set iprint > 1 for details on symmetry rotations/translations

                         Centre of mass is constrained
             Set iprint > 1 for details of linear ionic constraints

                         Number of cell constraints= 3
                         Cell constraints are:  1 2 3 0 0 0

                         External pressure/stress (GPa)
                         30.00000   0.00000   0.00000
                                   30.00000   0.00000
                                             30.00000
  
+---------------- MEMORY AND SCRATCH DISK ESTIMATES PER PROCESS --------------+
|                                                     Memory          Disk    |
| Baseline code, static data and system overhead      479.0 MB         0.0 MB |
| BLAS internal memory storage                          0.0 MB         0.0 MB |
| Model and support data                              144.5 MB         0.0 MB |
| Electronic energy minimisation requirements         199.4 MB         0.0 MB |
| Force calculation requirements                       35.6 MB         0.0 MB |
| Stress calculation requirements                      45.1 MB         0.0 MB |
|                                               ----------------------------- |
| Approx. total storage required per process          822.9 MB         0.0 MB |
|                                                                             |
| Requirements will fluctuate during execution and may exceed these estimates |
+-----------------------------------------------------------------------------+
Calculating finite basis set correction with  3 cut-off energies.
Calculating total energy with cut-off of 1590.000 eV.
------------------------------------------------------------------------ <-- SCF
SCF loop      Energy                           Energy gain       Timer   <-- SCF
                                               per atom          (sec)   <-- SCF
------------------------------------------------------------------------ <-- SCF
Initial   1.23273920E+003                                         17.21  <-- SCF
      1  -5.95916264E+002                    3.80969888E+001      45.34  <-- SCF
      2  -7.38033132E+002                    2.96076809E+000      64.09  <-- SCF
      3  -7.41565696E+002                    7.35950744E-002      79.91  <-- SCF
      4  -7.37035231E+002                   -9.43846931E-002     106.39  <-- SCF
      5  -7.36878285E+002                   -3.26970516E-003     132.77  <-- SCF
      6  -7.36884202E+002                    1.23273434E-004     159.18  <-- SCF
      7  -7.36884811E+002                    1.26993044E-005     185.68  <-- SCF
