 +-------------------------------------------------+
 |                                                 |
 |      CCC   AA    SSS  TTTTT  EEEEE  PPPP        |
 |     C     A  A  S       T    E      P   P       |
 |     C     AAAA   SS     T    EEE    PPPP        |
 |     C     A  A     S    T    E      P           |
 |      CCC  A  A  SSS     T    EEEEE  P           |
 |                                                 |
 +-------------------------------------------------+
 |                                                 |
 | Welcome to Academic Release CASTEP version 18.1 |          
 | Ab Initio Total Energy Program                  |
 |                                                 |
 | Authors:                                        |
 | M. Segall, M. Probert, C. Pickard, P. Hasnip,   |
 | S. Clark, K. Refson, J. R. Yates, M. Payne      |
 |                                                 |
 | Contributors:                                   |
 | P. Lindan, P. Haynes, J. White, V. Milman,      |
 | N. Govind, M. Gibson, P. Tulip, V. Cocula,      |
 | B. Montanari, D. Quigley, M. Glover,            |
 | L. Bernasconi, A. Perlov, M. Plummer,           |
 | E. McNellis, J. Meyer, J. Gale, D. Jochym       |
 | J. Aarons, B. Walker, R. Gillen, D. Jones       |
 | T. Green, I. J. Bush, C. J. Armstrong,          |
 | E. J. Higgins, E. L. Brown, M. S. McFly,        |
 | J. Wilkins, B-C. Shih, P. J. P. Byrne           |
 |                                                 |
 | Copyright (c) 2000 - 2017                       |
 |                                                 |
 |     Distributed under the terms of an           |
 |     Agreement between the United Kingdom        |
 |     Car-Parrinello (UKCP) Consortium,           |
 |     Daresbury Laboratory and Accelrys, Inc.     |
 |                                                 |
 | Please cite                                     |
 |                                                 |
 |     "First principles methods using CASTEP"     |
 |                                                 |
 |         Zeitschrift fuer Kristallographie       |
 |           220(5-6) pp. 567-570 (2005)           |
 |                                                 |
 | S. J. Clark, M. D. Segall, C. J. Pickard,       |
 | P. J. Hasnip, M. J. Probert, K. Refson,         |
 | M. C. Payne                                     |
 |                                                 |
 |       in all publications arising from          |
 |              your use of CASTEP                 |
 |                                                 |
 +-------------------------------------------------+


 Compiled for linux_x86_64_gfortran4.8 on Thu, 19 Jul 2018 15:42:32 +0100
 from code version 70483bd0ad64+  Sun, 10 Dec 2017 12:18:29 +0000
 Compiler: GNU Fortran 4.8.5; Optimisation: fast
 MATHLIBS: Intel MKL(2018.0.0) (LAPACK version 3.7.0)
 FFT Lib : mkl
 Fundamental constants values: CODATA 2014

 Run started: Wed, 26 Aug 2020 14:58:13 +0100

 Atomic calculation performed for H: 1s1

 Converged in 41 iterations to an ae energy of -12.488 eV

   ============================================================                
   | Pseudopotential Report - Date of generation 26-08-2020   |                
   ------------------------------------------------------------                
   | Element: H Ionic charge:  1.00 Level of theory: PBE      |                
   | Atomic Solver: Koelling-Harmon                           |                
   |                                                          |                
   |               Reference Electronic Structure             |                
   |         Orbital         Occupation         Energy        |                
   |            1s              1.000           -0.239        |                
   |                                                          |                
   |                 Pseudopotential Definition               |                
   |        Beta     l      e      Rc     scheme   norm       |                
   |         loc     0   -0.239   0.702     qc      1         |                
   |                                                          |                
   | No charge augmentation                                   |                
   | No partial core correction                               |                
   ------------------------------------------------------------                
   | "0|0.7|2|6|8|10L(qc=10)"                                 |                
   ------------------------------------------------------------                
   |      Author: Chris J. Pickard, Cambridge University      |                
   ============================================================                

 Pseudo atomic calculation performed for H 1s1

 Converged in 24 iterations to a total energy of -12.4843 eV

 Calculation parallelised over 32 processes.
 Data is distributed by k-point(32-way)

 ************************************ Title ************************************
 

 ***************************** General Parameters ******************************
  
 output verbosity                               : normal  (1)
 write checkpoint data to                       : Cmca4.check
 type of calculation                            : geometry optimization
 stress calculation                             : on
 density difference calculation                 : off
 electron localisation func (ELF) calculation   : off
 Hirshfeld analysis                             : off
 unlimited duration calculation
 timing information                             : on
 memory usage estimate                          : on
 write extra output files                       : on
 write final potential to formatted file        : off
 write final density to formatted file          : off
 write structure in CELL formatted file         : on
 write BibTeX reference list                    : on
 write OTFG pseudopotential files               : on
 write electrostatic potential file             : on
 write bands file                               : on
 checkpoint writing                             : both castep_bin and check files
  
 output         length unit                     : A
 output           mass unit                     : amu
 output           time unit                     : ps
 output         charge unit                     : e
 output           spin unit                     : hbar/2
 output         energy unit                     : eV
 output          force unit                     : eV/A
 output       velocity unit                     : A/ps
 output       pressure unit                     : GPa
 output     inv_length unit                     : 1/A
 output      frequency unit                     : cm-1
 output force constant unit                     : eV/A**2
 output         volume unit                     : A**3
 output   IR intensity unit                     : (D/A)**2/amu
 output         dipole unit                     : D
 output         efield unit                     : eV/A/e
 output        entropy unit                     : J/mol/K
  
 wavefunctions paging                           : none
 random number generator seed                   : randomised (145813997)
 data distribution                              : optimal for this architecture
 optimization strategy                          : maximize speed(+++)

 *********************** Exchange-Correlation Parameters ***********************
  
 using functional                               : Perdew Burke Ernzerhof
 relativistic treatment                         : Koelling-Harmon
 DFT+D: Semi-empirical dispersion correction    : off

 ************************* Pseudopotential Parameters **************************
  
 pseudopotential representation                 : reciprocal space
 <beta|phi> representation                      : reciprocal space
 spin-orbit coupling                            : off

 **************************** Basis Set Parameters *****************************
  
 plane wave basis set cut-off                   :  1200.0000   eV
 size of standard grid                          :     2.0000
 size of   fine   gmax                          :    35.4943   1/A
 finite basis set correction                    : automatic
 number of sample energies                      :          3
           sample  spacing                      :     5.0000   eV

 **************************** Electronic Parameters ****************************
  
 number of  electrons                           :  8.000    
 net charge of system                           :  0.000    
 treating system as non-spin-polarized
 number of bands                                :          4

 ********************* Electronic Minimization Parameters **********************
  
 Method: Treating system as non-metallic,
         and number of  SD  steps               :          1
         and number of  CG  steps               :          4
  
 total energy / atom convergence tol.           : 0.1000E-10   eV
 eigen-energy convergence tolerance             : 0.2000E-10   eV
 max force / atom convergence tol.              : ignored
 convergence tolerance window                   :          3   cycles
 max. number of SCF cycles                      :        100
 periodic dipole correction                     : NONE

 ************************** Density Mixing Parameters **************************
  
 density-mixing scheme                          : Broyden
 max. length of mixing history                  :         20
 charge density mixing amplitude                : 0.8000    
 cut-off energy for mixing                      :  1200.       eV

 *********************** Population Analysis Parameters ************************
  
 Population analysis with cutoff                :  3.000       A
 Population analysis output                     : summary and pdos components

 ********************** Geometry Optimization Parameters ***********************
  
 optimization method                            : LBFGS
 max. no. of LBFGS updates                      : unbounded
 variable cell method                           : fixed basis quality
 max. number of steps                           :         60
 estimated bulk modulus                         :  500.0       GPa
 estimated <frequency>                          :  1668.       cm-1
 geom line minimiser                            : on
 with line minimiser tolerance                  :     0.4000
 total energy convergence tolerance             : 0.1000E-08   eV/atom
        max ionic |force| tolerance             : 0.1000E-04   eV/A
 max ionic |displacement| tolerance             : 0.1000E-04   A
   max |stress component| tolerance             : 0.1000E-04   GPa
 convergence tolerance window                   :          2   steps
 backup results every                           :      14400   seconds
 write geom trajectory file                     : on

 *******************************************************************************
  

                           -------------------------------
                                      Unit Cell
                           -------------------------------
        Real Lattice(A)                      Reciprocal Lattice(1/A)
     1.8026025    -0.0000000     0.0000000        3.485618828   0.000000000   0.000000000
    -0.0000000     2.9829843     0.0000000        0.000000000   2.106342069   0.000000000
     0.0000000     0.0000000     2.7904643        0.000000000   0.000000000   2.251663028

                       Lattice parameters(A)       Cell Angles
                    a =      1.802603          alpha =   90.000000
                    b =      2.982984          beta  =   90.000000
                    c =      2.790464          gamma =   90.000000

                       Current cell volume =            15.004703       A**3
                                   density =             0.537399   AMU/A**3
                                           =             0.892373     g/cm^3

                           -------------------------------
                                     Cell Contents
                           -------------------------------
                         Total number of ions in cell =    8
                      Total number of species in cell =    1
                        Max number of any one species =    8

            xxxxxxxxxxxxxxxxxxxxxxxxxxxxxxxxxxxxxxxxxxxxxxxxxxxxxxxxxxxx
            x  Element    Atom        Fractional coordinates of atoms  x
            x            Number           u          v          w      x
            x----------------------------------------------------------x
            x  H            1        -0.000000   0.381791   0.447746   x 
            x  H            2         0.000000   0.118209   0.947746   x 
            x  H            3        -0.000000   0.881791   0.052254   x 
            x  H            4         0.000000   0.618209   0.552254   x 
            x  H            5         0.500000   0.881791   0.447746   x 
            x  H            6         0.500000   0.618209   0.947746   x 
            x  H            7         0.500000   0.381791   0.052254   x 
            x  H            8         0.500000   0.118209   0.552254   x 
            xxxxxxxxxxxxxxxxxxxxxxxxxxxxxxxxxxxxxxxxxxxxxxxxxxxxxxxxxxxx


                         No user defined ionic velocities

                           -------------------------------
                                   Details of Species
                           -------------------------------

                               Mass of species in AMU
                                    H    1.0079400

                          Electric Quadrupole Moment (Barn)
                                    H    0.0028600 Isotope  2

                          Files used for pseudopotentials:
                                    H 0|0.7|2|6|8|10L(qc=10)

                           -------------------------------
                              k-Points For BZ Sampling
                           -------------------------------
                       MP grid size for SCF calculation is 11 11 11
                            with an offset of   0.000  0.000  0.000
                       Number of kpoints used =           216

                           -------------------------------
                               Symmetry and Constraints
                           -------------------------------

                      Cell is a supercell containing 2 primitive cells
                      Maximum deviation from symmetry = 0.629238E-14     ANG

                      Number of symmetry operations   =          16
                      Number of ionic constraints     =           3
                      Point group of crystal =     8: D2h, mmm, 2/m 2/m 2/m
                      Space group of crystal =    64: Cmce, -C 2bc 2

             Set iprint > 1 for details on symmetry rotations/translations

                         Centre of mass is constrained
             Set iprint > 1 for details of linear ionic constraints

                         Number of cell constraints= 3
                         Cell constraints are:  1 2 3 0 0 0

                         External pressure/stress (GPa)
                        150.00000   0.00000   0.00000
                                  150.00000   0.00000
                                            150.00000
  
+---------------- MEMORY AND SCRATCH DISK ESTIMATES PER PROCESS --------------+
|                                                     Memory          Disk    |
| Baseline code, static data and system overhead      478.0 MB         0.0 MB |
| BLAS internal memory storage                          0.0 MB         0.0 MB |
| Model and support data                               13.1 MB         0.0 MB |
| Electronic energy minimisation requirements           6.9 MB         0.0 MB |
| Force calculation requirements                        3.2 MB         0.0 MB |
| Stress calculation requirements                       4.0 MB         0.0 MB |
|                                               ----------------------------- |
| Approx. total storage required per process          498.0 MB         0.0 MB |
|                                                                             |
| Requirements will fluctuate during execution and may exceed these estimates |
+-----------------------------------------------------------------------------+
Calculating finite basis set correction with  3 cut-off energies.
Calculating total energy with cut-off of 1190.000 eV.
------------------------------------------------------------------------ <-- SCF
SCF loop      Energy                           Energy gain       Timer   <-- SCF
                                               per atom          (sec)   <-- SCF
------------------------------------------------------------------------ <-- SCF
Initial   1.86442856E+002                                          3.17  <-- SCF
      1  -1.02064583E+002                    3.60634299E+001       3.53  <-- SCF
      2  -1.18334607E+002                    2.03375301E+000       3.78  <-- SCF
      3  -1.18129577E+002                   -2.56286553E-002       4.24  <-- SCF
      4  -1.18120680E+002                   -1.11218119E-003       4.72  <-- SCF
      5  -1.18120899E+002                    2.74149585E-005       5.17  <-- SCF
      6  -1.18120919E+002                    2.48772399E-006       5.63  <-- SCF
      7  -1.18120919E+002                    2.74738589E-009       6.11  <-- SCF
      8  -1.18120919E+002                    1.83363888E-010       6.50  <-- SCF
      9  -1.18120919E+002                    9.14780217E-012       6.87  <-- SCF
     10  -1.18120919E+002                   -2.50748871E-013       7.23  <-- SCF
------------------------------------------------------------------------ <-- SCF
 
Final energy =  -118.1209192947     eV
(energy not corrected for finite basis set)
 
Calculating total energy with cut-off of 1195.000 eV.
------------------------------------------------------------------------ <-- SCF
SCF loop      Energy                           Energy gain       Timer   <-- SCF
                                               per atom          (sec)   <-- SCF
------------------------------------------------------------------------ <-- SCF
Initial  -1.18120919E+002                                          7.57  <-- SCF
      1  -1.18121506E+002                    7.33779070E-005       7.84  <-- SCF
      2  -1.18121506E+002                    1.25425793E-010       8.29  <-- SCF
      3  -1.18121507E+002                    2.67909579E-008       8.76  <-- SCF
      4  -1.18121507E+002                    1.26393140E-009       9.22  <-- SCF
      5  -1.18121507E+002                    1.02625773E-011       9.59  <-- SCF
      6  -1.18121507E+002                    2.93043861E-013      10.08  <-- SCF
      7  -1.18121507E+002                    5.22645236E-013      10.43  <-- SCF
------------------------------------------------------------------------ <-- SCF
 
Final energy =  -118.1215065435     eV
(energy not corrected for finite basis set)
 
Calculating total energy with cut-off of 1200.000 eV.
------------------------------------------------------------------------ <-- SCF
SCF loop      Energy                           Energy gain       Timer   <-- SCF
                                               per atom          (sec)   <-- SCF
------------------------------------------------------------------------ <-- SCF
Initial  -1.18121507E+002                                         10.77  <-- SCF
      1  -1.18122088E+002                    7.26396427E-005      11.04  <-- SCF
      2  -1.18122088E+002                    1.24537599E-010      11.48  <-- SCF
      3  -1.18122088E+002                    2.66038872E-008      11.93  <-- SCF
      4  -1.18122088E+002                    1.20243751E-009      12.38  <-- SCF
      5  -1.18122088E+002                    1.00390180E-011      12.76  <-- SCF
      6  -1.18122088E+002                    7.85478390E-014      13.13  <-- SCF
      7  -1.18122088E+002                    6.91825197E-013      13.48  <-- SCF
------------------------------------------------------------------------ <-- SCF
 
Final energy =  -118.1220878842     eV
(energy not corrected for finite basis set)
 
 For future reference: finite basis dEtot/dlog(Ecut) =      -0.139870eV
 Total energy corrected for finite basis set =    -118.122088 eV
 
+---------------- MEMORY AND SCRATCH DISK ESTIMATES PER PROCESS --------------+
|                                                     Memory          Disk    |
| Model and support data                               22.9 MB         0.0 MB |
| Electronic energy minimisation requirements           6.9 MB         0.0 MB |
| Geometry minimisation requirements                    8.2 MB         0.0 MB |
|                                               ----------------------------- |
| Approx. total storage required per process           38.0 MB         0.0 MB |
|                                                                             |
| Requirements will fluctuate during execution and may exceed these estimates |
+-----------------------------------------------------------------------------+
 

 ******************************** Symmetrised Forces ********************************
 *                                                                                  *
 *                           Cartesian components (eV/A)                            *
 * -------------------------------------------------------------------------------- *
 *                         x                    y                    z              *
 *                                                                                  *
 * H               1     -0.00000             -0.00000             -0.00000         *
 * H               2      0.00000              0.00000             -0.00000         *
 * H               3      0.00000             -0.00000              0.00000         *
 * H               4      0.00000              0.00000              0.00000         *
 * H               5     -0.00000             -0.00000             -0.00000         *
 * H               6     -0.00000              0.00000             -0.00000         *
 * H               7      0.00000             -0.00000              0.00000         *
 * H               8      0.00000              0.00000              0.00000         *
 *                                                                                  *
 ************************************************************************************

 *********** Symmetrised Stress Tensor ***********
 *                                               *
 *          Cartesian components (GPa)           *
 * --------------------------------------------- *
 *             x             y             z     *
 *                                               *
 *  x   -159.990117      0.000000      0.000000  *
 *  y      0.000000   -159.990177      0.000000  *
 *  z      0.000000      0.000000   -159.990139  *
 *                                               *
 *  Pressure:  159.9901                          *
 *                                               *
 *************************************************
 LBFGS: finished iteration     0 with enthalpy= -1.04074289E+002 eV
  
 +-----------+-----------------+-----------------+------------+-----+ <-- LBFGS
 | Parameter |      value      |    tolerance    |    units   | OK? | <-- LBFGS
 +-----------+-----------------+-----------------+------------+-----+ <-- LBFGS
 |  dE/ion   |   0.000000E+000 |   1.000000E-009 |         eV | No  | <-- LBFGS
 |  |F|max   |   6.799588E-007 |   1.000000E-005 |       eV/A | Yes | <-- LBFGS
 |  |dR|max  |   0.000000E+000 |   1.000000E-005 |          A | No  | <-- LBFGS
 |   Smax    |   9.990177E+000 |   1.000000E-005 |        GPa | No  | <-- LBFGS
 +-----------+-----------------+-----------------+------------+-----+ <-- LBFGS
  

================================================================================
 Starting LBFGS iteration          1 ...
================================================================================
  
 +------------+-------------+-------------+-----------------+ <-- min LBFGS
 |    Step    |   lambda    |   F.delta'  |    enthalpy     | <-- min LBFGS
 +------------+-------------+-------------+-----------------+ <-- min LBFGS
 |  previous  |    0.000000 |    0.059552 |     -104.074289 | <-- min LBFGS
 +------------+-------------+-------------+-----------------+ <-- min LBFGS
  

--------------------------------------------------------------------------------
 LBFGS: starting iteration         1 with trial guess (lambda=  1.000000)
--------------------------------------------------------------------------------
 
+---------------- MEMORY AND SCRATCH DISK ESTIMATES PER PROCESS --------------+
|                                                     Memory          Disk    |
| Model and support data                               22.9 MB         0.0 MB |
| Electronic energy minimisation requirements           6.9 MB         0.0 MB |
| Geometry minimisation requirements                    8.3 MB         0.0 MB |
|                                               ----------------------------- |
| Approx. total storage required per process           38.2 MB         0.0 MB |
|                                                                             |
| Requirements will fluctuate during execution and may exceed these estimates |
+-----------------------------------------------------------------------------+
 

                           -------------------------------
                                      Unit Cell
                           -------------------------------
        Real Lattice(A)              Reciprocal Lattice(1/A)
     1.8146080    -0.0000000     0.0000000        3.462557922   0.000000000   0.000000000
    -0.0000000     3.0028513     0.0000000        0.000000000   2.092406396   0.000000000
     0.0000000     0.0000000     2.8090491        0.000000000   0.000000000   2.236765960

                       Lattice parameters(A)       Cell Angles
                    a =      1.814608          alpha =   90.000000
                    b =      3.002851          beta  =   90.000000
                    c =      2.809049          gamma =   90.000000

                Current cell volume =            15.306503 A**3

                           -------------------------------
                                     Cell Contents
                           -------------------------------

            xxxxxxxxxxxxxxxxxxxxxxxxxxxxxxxxxxxxxxxxxxxxxxxxxxxxxxxxxxxxxxxxx
            x  Element         Atom        Fractional coordinates of atoms  x
            x                 Number           u          v          w      x
            x---------------------------------------------------------------x
            x  H                 1         0.000000   0.381791   0.447746   x
            x  H                 2         0.000000   0.118209   0.947746   x
            x  H                 3        -0.000000   0.881791   0.052254   x
            x  H                 4         0.000000   0.618209   0.552254   x
            x  H                 5         0.500000   0.881791   0.447746   x
            x  H                 6         0.500000   0.618209   0.947746   x
            x  H                 7         0.500000   0.381791   0.052254   x
            x  H                 8         0.500000   0.118209   0.552254   x
            xxxxxxxxxxxxxxxxxxxxxxxxxxxxxxxxxxxxxxxxxxxxxxxxxxxxxxxxxxxxxxxxx


------------------------------------------------------------------------ <-- SCF
SCF loop      Energy                           Energy gain       Timer   <-- SCF
                                               per atom          (sec)   <-- SCF
------------------------------------------------------------------------ <-- SCF
Initial  -1.18410406E+002                                         14.55  <-- SCF
      1  -1.18414701E+002                    5.36817792E-004      14.85  <-- SCF
      2  -1.18414719E+002                    2.31035662E-006      15.31  <-- SCF
      3  -1.18414683E+002                   -4.52652519E-006      15.81  <-- SCF
      4  -1.18414683E+002                   -8.15104490E-008      16.27  <-- SCF
      5  -1.18414683E+002                    5.64303687E-009      16.73  <-- SCF
      6  -1.18414683E+002                    5.29983417E-010      17.20  <-- SCF
      7  -1.18414683E+002                    9.12363360E-013      17.55  <-- SCF
      8  -1.18414683E+002                    3.38359922E-013      17.91  <-- SCF
------------------------------------------------------------------------ <-- SCF
 
Final energy =  -118.4146826307     eV
(energy not corrected for finite basis set)
 

 ******************************** Symmetrised Forces ********************************
 *                                                                                  *
 *                           Cartesian components (eV/A)                            *
 * -------------------------------------------------------------------------------- *
 *                         x                    y                    z              *
 *                                                                                  *
 * H               1      0.00000              0.10657              0.04728         *
 * H               2     -0.00000             -0.10657              0.04728         *
 * H               3      0.00000              0.10657             -0.04728         *
 * H               4      0.00000             -0.10657             -0.04728         *
 * H               5      0.00000              0.10657              0.04728         *
 * H               6     -0.00000             -0.10657              0.04728         *
 * H               7     -0.00000              0.10657             -0.04728         *
 * H               8      0.00000             -0.10657             -0.04728         *
 *                                                                                  *
 ************************************************************************************

 *********** Symmetrised Stress Tensor ***********
 *                                               *
 *          Cartesian components (GPa)           *
 * --------------------------------------------- *
 *             x             y             z     *
 *                                               *
 *  x   -152.088088     -0.000000      0.000000  *
 *  y     -0.000000   -148.431397      0.000000  *
 *  z      0.000000      0.000000   -151.834227  *
 *                                               *
 *  Pressure:  150.7846                          *
 *                                               *
 *************************************************
  
 +------------+-------------+-------------+-----------------+ <-- min LBFGS
 |    Step    |   lambda    |   F.delta'  |    enthalpy     | <-- min LBFGS
 +------------+-------------+-------------+-----------------+ <-- min LBFGS
 |  previous  |    0.000000 |    0.059552 |     -104.074289 | <-- min LBFGS
 | trial step |    1.000000 |    0.004739 |     -104.084323 | <-- min LBFGS
 +------------+-------------+-------------+-----------------+ <-- min LBFGS
  
 LBFGS: finished iteration     1 with enthalpy= -1.04084323E+002 eV
  
 +-----------+-----------------+-----------------+------------+-----+ <-- LBFGS
 | Parameter |      value      |    tolerance    |    units   | OK? | <-- LBFGS
 +-----------+-----------------+-----------------+------------+-----+ <-- LBFGS
 |  dE/ion   |   1.254270E-003 |   1.000000E-009 |         eV | No  | <-- LBFGS
 |  |F|max   |   1.165929E-001 |   1.000000E-005 |       eV/A | No  | <-- LBFGS
 |  |dR|max  |   6.638842E-008 |   1.000000E-005 |          A | Yes | <-- LBFGS
 |   Smax    |   2.088088E+000 |   1.000000E-005 |        GPa | No  | <-- LBFGS
 +-----------+-----------------+-----------------+------------+-----+ <-- LBFGS
  

================================================================================
 Starting LBFGS iteration          2 ...
================================================================================
  
 +------------+-------------+-------------+-----------------+ <-- min LBFGS
 |    Step    |   lambda    |   F.delta'  |    enthalpy     | <-- min LBFGS
 +------------+-------------+-------------+-----------------+ <-- min LBFGS
 |  previous  |    0.000000 |    0.032458 |     -104.084323 | <-- min LBFGS
 +------------+-------------+-------------+-----------------+ <-- min LBFGS
  

--------------------------------------------------------------------------------
 LBFGS: starting iteration         2 with trial guess (lambda=  1.000000)
--------------------------------------------------------------------------------
 
+---------------- MEMORY AND SCRATCH DISK ESTIMATES PER PROCESS --------------+
|                                                     Memory          Disk    |
| Model and support data                               22.9 MB         0.0 MB |
| Electronic energy minimisation requirements           7.0 MB         0.0 MB |
| Geometry minimisation requirements                    8.4 MB         0.0 MB |
|                                               ----------------------------- |
| Approx. total storage required per process           38.3 MB         0.0 MB |
|                                                                             |
| Requirements will fluctuate during execution and may exceed these estimates |
+-----------------------------------------------------------------------------+
 

                           -------------------------------
                                      Unit Cell
                           -------------------------------
        Real Lattice(A)              Reciprocal Lattice(1/A)
     1.8258790    -0.0000000     0.0000000        3.441183878   0.000000000   0.000000000
    -0.0000000     3.0134966     0.0000000        0.000000000   2.085014878   0.000000000
     0.0000000     0.0000000     2.8259768        0.000000000   0.000000000   2.223367592

                       Lattice parameters(A)       Cell Angles
                    a =      1.825879          alpha =   90.000000
                    b =      3.013497          beta  =   90.000000
                    c =      2.825977          gamma =   90.000000

                Current cell volume =            15.549316 A**3

                           -------------------------------
                                     Cell Contents
                           -------------------------------

            xxxxxxxxxxxxxxxxxxxxxxxxxxxxxxxxxxxxxxxxxxxxxxxxxxxxxxxxxxxxxxxxx
            x  Element         Atom        Fractional coordinates of atoms  x
            x                 Number           u          v          w      x
            x---------------------------------------------------------------x
            x  H                 1         0.000000   0.385580   0.449543   x
            x  H                 2         0.000000   0.114420   0.949543   x
            x  H                 3        -0.000000   0.885580   0.050457   x
            x  H                 4         0.000000   0.614420   0.550457   x
            x  H                 5         0.500000   0.885580   0.449543   x
            x  H                 6         0.500000   0.614420   0.949543   x
            x  H                 7         0.500000   0.385580   0.050457   x
            x  H                 8         0.500000   0.114420   0.550457   x
            xxxxxxxxxxxxxxxxxxxxxxxxxxxxxxxxxxxxxxxxxxxxxxxxxxxxxxxxxxxxxxxxx


------------------------------------------------------------------------ <-- SCF
SCF loop      Energy                           Energy gain       Timer   <-- SCF
                                               per atom          (sec)   <-- SCF
------------------------------------------------------------------------ <-- SCF
Initial  -1.18501685E+002                                         18.96  <-- SCF
      1  -1.18642281E+002                    1.75744541E-002      19.25  <-- SCF
      2  -1.18642737E+002                    5.70384999E-005      19.70  <-- SCF
      3  -1.18634218E+002                   -1.06483246E-003      20.17  <-- SCF
      4  -1.18633812E+002                   -5.07322980E-005      20.64  <-- SCF
      5  -1.18633814E+002                    1.60822933E-007      21.10  <-- SCF
      6  -1.18633814E+002                    1.18973965E-008      21.57  <-- SCF
      7  -1.18633814E+002                    4.01711775E-011      21.94  <-- SCF
      8  -1.18633814E+002                    2.16912878E-012      22.29  <-- SCF
      9  -1.18633814E+002                   -1.75222102E-013      22.65  <-- SCF
------------------------------------------------------------------------ <-- SCF
 
Final energy =  -118.6338137283     eV
(energy not corrected for finite basis set)
 

 ******************************** Symmetrised Forces ********************************
 *                                                                                  *
 *                           Cartesian components (eV/A)                            *
 * -------------------------------------------------------------------------------- *
 *                         x                    y                    z              *
 *                                                                                  *
 * H               1      0.00000             -0.29276             -0.13245         *
 * H               2      0.00000              0.29276             -0.13245         *
 * H               3      0.00000             -0.29276              0.13245         *
 * H               4      0.00000              0.29276              0.13245         *
 * H               5      0.00000             -0.29276             -0.13245         *
 * H               6      0.00000              0.29276             -0.13245         *
 * H               7      0.00000             -0.29276              0.13245         *
 * H               8      0.00000              0.29276              0.13245         *
 *                                                                                  *
 ************************************************************************************

 *********** Symmetrised Stress Tensor ***********
 *                                               *
 *          Cartesian components (GPa)           *
 * --------------------------------------------- *
 *             x             y             z     *
 *                                               *
 *  x   -148.560916     -0.000000      0.000000  *
 *  y     -0.000000   -153.595127      0.000000  *
 *  z      0.000000      0.000000   -149.081762  *
 *                                               *
 *  Pressure:  150.4126                          *
 *                                               *
 *************************************************
  
 +------------+-------------+-------------+-----------------+ <-- min LBFGS
 |    Step    |   lambda    |   F.delta'  |    enthalpy     | <-- min LBFGS
 +------------+-------------+-------------+-----------------+ <-- min LBFGS
 |  previous  |    0.000000 |    0.032458 |     -104.084323 | <-- min LBFGS
 | trial step |    1.000000 |   -0.078360 |     -104.076131 | <-- min LBFGS
 +------------+-------------+-------------+-----------------+ <-- min LBFGS
  

--------------------------------------------------------------------------------
 LBFGS: improving iteration         2 with line minimization (lambda=  0.292892)
--------------------------------------------------------------------------------

                           -------------------------------
                                      Unit Cell
                           -------------------------------
        Real Lattice(A)              Reciprocal Lattice(1/A)
     1.8179092    -0.0000000     0.0000000        3.456270180   0.000000000   0.000000000
    -0.0000000     3.0059693     0.0000000        0.000000000   2.090236055   0.000000000
     0.0000000     0.0000000     2.8140071        0.000000000   0.000000000   2.232824986

                       Lattice parameters(A)       Cell Angles
                    a =      1.817909          alpha =   90.000000
                    b =      3.005969          beta  =   90.000000
                    c =      2.814007          gamma =   90.000000

                Current cell volume =            15.377364 A**3

                           -------------------------------
                                     Cell Contents
                           -------------------------------

            xxxxxxxxxxxxxxxxxxxxxxxxxxxxxxxxxxxxxxxxxxxxxxxxxxxxxxxxxxxxxxxxx
            x  Element         Atom        Fractional coordinates of atoms  x
            x                 Number           u          v          w      x
            x---------------------------------------------------------------x
            x  H                 1         0.000000   0.382901   0.448272   x
            x  H                 2         0.000000   0.117099   0.948272   x
            x  H                 3        -0.000000   0.882901   0.051728   x
            x  H                 4         0.000000   0.617099   0.551728   x
            x  H                 5         0.500000   0.882901   0.448272   x
            x  H                 6         0.500000   0.617099   0.948272   x
            x  H                 7         0.500000   0.382901   0.051728   x
            x  H                 8         0.500000   0.117099   0.551728   x
            xxxxxxxxxxxxxxxxxxxxxxxxxxxxxxxxxxxxxxxxxxxxxxxxxxxxxxxxxxxxxxxxx


------------------------------------------------------------------------ <-- SCF
SCF loop      Energy                           Energy gain       Timer   <-- SCF
                                               per atom          (sec)   <-- SCF
------------------------------------------------------------------------ <-- SCF
Initial  -1.18417012E+002                                         23.46  <-- SCF
      1  -1.18487536E+002                    8.81553683E-003      23.75  <-- SCF
      2  -1.18487782E+002                    3.07140980E-005      24.21  <-- SCF
      3  -1.18483431E+002                   -5.43861023E-004      24.67  <-- SCF
      4  -1.18483229E+002                   -2.52778191E-005      25.14  <-- SCF
      5  -1.18483229E+002                    6.70289283E-008      25.59  <-- SCF
      6  -1.18483229E+002                    4.68552058E-009      26.06  <-- SCF
      7  -1.18483229E+002                    1.25948439E-011      26.41  <-- SCF
      8  -1.18483229E+002                    4.47118468E-013      26.77  <-- SCF
      9  -1.18483229E+002                    3.59507417E-013      27.12  <-- SCF
------------------------------------------------------------------------ <-- SCF
 
Final energy =  -118.4832291661     eV
(energy not corrected for finite basis set)
 

 ******************************** Symmetrised Forces ********************************
 *                                                                                  *
 *                           Cartesian components (eV/A)                            *
 * -------------------------------------------------------------------------------- *
 *                         x                    y                    z              *
 *                                                                                  *
 * H               1      0.00000              0.00467             -0.00034         *
 * H               2     -0.00000             -0.00467             -0.00034         *
 * H               3      0.00000              0.00467              0.00034         *
 * H               4     -0.00000             -0.00467              0.00034         *
 * H               5      0.00000              0.00467             -0.00034         *
 * H               6     -0.00000             -0.00467             -0.00034         *
 * H               7      0.00000              0.00467              0.00034         *
 * H               8     -0.00000             -0.00467              0.00034         *
 *                                                                                  *
 ************************************************************************************

 *********** Symmetrised Stress Tensor ***********
 *                                               *
 *          Cartesian components (GPa)           *
 * --------------------------------------------- *
 *             x             y             z     *
 *                                               *
 *  x   -151.332592      0.000000      0.000000  *
 *  y      0.000000   -149.469200      0.000000  *
 *  z      0.000000      0.000000   -151.016450  *
 *                                               *
 *  Pressure:  150.6061                          *
 *                                               *
 *************************************************
  
 +------------+-------------+-------------+-----------------+ <-- min LBFGS
 |    Step    |   lambda    |   F.delta'  |    enthalpy     | <-- min LBFGS
 +------------+-------------+-------------+-----------------+ <-- min LBFGS
 |  previous  |    0.000000 |    0.032458 |     -104.084323 | <-- min LBFGS
 | trial step |    1.000000 |   -0.078360 |     -104.076131 | <-- min LBFGS
 |  line step |    0.292892 |    0.003910 |     -104.086533 | <-- min LBFGS
 +------------+-------------+-------------+-----------------+ <-- min LBFGS
  
 LBFGS: finished iteration     2 with enthalpy= -1.04086533E+002 eV
  
 +-----------+-----------------+-----------------+------------+-----+ <-- LBFGS
 | Parameter |      value      |    tolerance    |    units   | OK? | <-- LBFGS
 +-----------+-----------------+-----------------+------------+-----+ <-- LBFGS
 |  dE/ion   |   2.762505E-004 |   1.000000E-009 |         eV | No  | <-- LBFGS
 |  |F|max   |   4.682929E-003 |   1.000000E-005 |       eV/A | No  | <-- LBFGS
 |  |dR|max  |   3.650800E-003 |   1.000000E-005 |          A | No  | <-- LBFGS
 |   Smax    |   1.332592E+000 |   1.000000E-005 |        GPa | No  | <-- LBFGS
 +-----------+-----------------+-----------------+------------+-----+ <-- LBFGS
  

================================================================================
 Starting LBFGS iteration          3 ...
================================================================================
  
 +------------+-------------+-------------+-----------------+ <-- min LBFGS
 |    Step    |   lambda    |   F.delta'  |    enthalpy     | <-- min LBFGS
 +------------+-------------+-------------+-----------------+ <-- min LBFGS
 |  previous  |    0.000000 |    0.006191 |     -104.086533 | <-- min LBFGS
 +------------+-------------+-------------+-----------------+ <-- min LBFGS
  

--------------------------------------------------------------------------------
 LBFGS: starting iteration         3 with trial guess (lambda=  1.000000)
--------------------------------------------------------------------------------

                           -------------------------------
                                      Unit Cell
                           -------------------------------
        Real Lattice(A)              Reciprocal Lattice(1/A)
     1.8201447    -0.0000000     0.0000000        3.452025175   0.000000000   0.000000000
    -0.0000000     3.0054731     0.0000000        0.000000000   2.090581130   0.000000000
     0.0000000     0.0000000     2.8167939        0.000000000   0.000000000   2.230615881

                       Lattice parameters(A)       Cell Angles
                    a =      1.820145          alpha =   90.000000
                    b =      3.005473          beta  =   90.000000
                    c =      2.816794          gamma =   90.000000

                Current cell volume =            15.408978 A**3

                           -------------------------------
                                     Cell Contents
                           -------------------------------

            xxxxxxxxxxxxxxxxxxxxxxxxxxxxxxxxxxxxxxxxxxxxxxxxxxxxxxxxxxxxxxxxx
            x  Element         Atom        Fractional coordinates of atoms  x
            x                 Number           u          v          w      x
            x---------------------------------------------------------------x
            x  H                 1         0.000000   0.383033   0.448239   x
            x  H                 2         0.000000   0.116967   0.948239   x
            x  H                 3        -0.000000   0.883033   0.051761   x
            x  H                 4         0.000000   0.616967   0.551761   x
            x  H                 5         0.500000   0.883033   0.448239   x
            x  H                 6         0.500000   0.616967   0.948239   x
            x  H                 7         0.500000   0.383033   0.051761   x
            x  H                 8         0.500000   0.116967   0.551761   x
            xxxxxxxxxxxxxxxxxxxxxxxxxxxxxxxxxxxxxxxxxxxxxxxxxxxxxxxxxxxxxxxxx


------------------------------------------------------------------------ <-- SCF
SCF loop      Energy                           Energy gain       Timer   <-- SCF
                                               per atom          (sec)   <-- SCF
------------------------------------------------------------------------ <-- SCF
Initial  -1.18512458E+002                                         27.97  <-- SCF
      1  -1.18513009E+002                    6.89411528E-005      28.27  <-- SCF
      2  -1.18513011E+002                    2.33083866E-007      28.73  <-- SCF
      3  -1.18512992E+002                   -2.36717435E-006      29.19  <-- SCF
      4  -1.18512991E+002                   -1.07086205E-007      29.66  <-- SCF
      5  -1.18512991E+002                    5.59991713E-010      30.12  <-- SCF
      6  -1.18512991E+002                    4.66785638E-011      30.48  <-- SCF
      7  -1.18512991E+002                    6.64635561E-014      30.84  <-- SCF
      8  -1.18512991E+002                    2.56791012E-013      31.20  <-- SCF
------------------------------------------------------------------------ <-- SCF
 
Final energy =  -118.5129914728     eV
(energy not corrected for finite basis set)
 

 ******************************** Symmetrised Forces ********************************
 *                                                                                  *
 *                           Cartesian components (eV/A)                            *
 * -------------------------------------------------------------------------------- *
 *                         x                    y                    z              *
 *                                                                                  *
 * H               1     -0.00000             -0.00197             -0.00319         *
 * H               2     -0.00000              0.00197             -0.00319         *
 * H               3      0.00000             -0.00197              0.00319         *
 * H               4      0.00000              0.00197              0.00319         *
 * H               5     -0.00000             -0.00197             -0.00319         *
 * H               6     -0.00000              0.00197             -0.00319         *
 * H               7      0.00000             -0.00197              0.00319         *
 * H               8      0.00000              0.00197              0.00319         *
 *                                                                                  *
 ************************************************************************************

 *********** Symmetrised Stress Tensor ***********
 *                                               *
 *          Cartesian components (GPa)           *
 * --------------------------------------------- *
 *             x             y             z     *
 *                                               *
 *  x   -150.552539     -0.000000      0.000000  *
 *  y     -0.000000   -149.280463      0.000000  *
 *  z      0.000000      0.000000   -150.167939  *
 *                                               *
 *  Pressure:  150.0003                          *
 *                                               *
 *************************************************
  
 +------------+-------------+-------------+-----------------+ <-- min LBFGS
 |    Step    |   lambda    |   F.delta'  |    enthalpy     | <-- min LBFGS
 +------------+-------------+-------------+-----------------+ <-- min LBFGS
 |  previous  |    0.000000 |    0.006191 |     -104.086533 | <-- min LBFGS
 | trial step |    1.000000 |    0.001980 |     -104.086705 | <-- min LBFGS
 +------------+-------------+-------------+-----------------+ <-- min LBFGS
  

--------------------------------------------------------------------------------
 LBFGS: improving iteration         3 with line minimization (lambda=  1.470334)
--------------------------------------------------------------------------------

                           -------------------------------
                                      Unit Cell
                           -------------------------------
        Real Lattice(A)              Reciprocal Lattice(1/A)
     1.8211961    -0.0000000     0.0000000        3.450032206   0.000000000   0.000000000
    -0.0000000     3.0052397     0.0000000        0.000000000   2.090743471   0.000000000
     0.0000000     0.0000000     2.8181047        0.000000000   0.000000000   2.229578374

                       Lattice parameters(A)       Cell Angles
                    a =      1.821196          alpha =   90.000000
                    b =      3.005240          beta  =   90.000000
                    c =      2.818105          gamma =   90.000000

                Current cell volume =            15.423856 A**3

                           -------------------------------
                                     Cell Contents
                           -------------------------------

            xxxxxxxxxxxxxxxxxxxxxxxxxxxxxxxxxxxxxxxxxxxxxxxxxxxxxxxxxxxxxxxxx
            x  Element         Atom        Fractional coordinates of atoms  x
            x                 Number           u          v          w      x
            x---------------------------------------------------------------x
            x  H                 1        -0.000000   0.383096   0.448224   x
            x  H                 2         0.000000   0.116904   0.948224   x
            x  H                 3        -0.000000   0.883096   0.051776   x
            x  H                 4         0.000000   0.616904   0.551776   x
            x  H                 5         0.500000   0.883096   0.448224   x
            x  H                 6         0.500000   0.616904   0.948224   x
            x  H                 7         0.500000   0.383096   0.051776   x
            x  H                 8         0.500000   0.116904   0.551776   x
            xxxxxxxxxxxxxxxxxxxxxxxxxxxxxxxxxxxxxxxxxxxxxxxxxxxxxxxxxxxxxxxxx


------------------------------------------------------------------------ <-- SCF
SCF loop      Energy                           Energy gain       Timer   <-- SCF
                                               per atom          (sec)   <-- SCF
------------------------------------------------------------------------ <-- SCF
Initial  -1.18526773E+002                                         32.01  <-- SCF
      1  -1.18526944E+002                    2.14010262E-005      32.31  <-- SCF
      2  -1.18526944E+002                    5.23122294E-008      32.77  <-- SCF
      3  -1.18526940E+002                   -5.18769668E-007      33.24  <-- SCF
      4  -1.18526940E+002                   -2.34185790E-008      33.70  <-- SCF
      5  -1.18526940E+002                    1.22002920E-010      34.08  <-- SCF
      6  -1.18526940E+002                    1.06885482E-011      34.43  <-- SCF
      7  -1.18526940E+002                    5.01497741E-013      34.79  <-- SCF
      8  -1.18526940E+002                   -3.47423134E-013      35.15  <-- SCF
------------------------------------------------------------------------ <-- SCF
 
Final energy =  -118.5269397930     eV
(energy not corrected for finite basis set)
 

 ******************************** Symmetrised Forces ********************************
 *                                                                                  *
 *                           Cartesian components (eV/A)                            *
 * -------------------------------------------------------------------------------- *
 *                         x                    y                    z              *
 *                                                                                  *
 * H               1      0.00000             -0.00533             -0.00459         *
 * H               2      0.00000              0.00533             -0.00459         *
 * H               3      0.00000             -0.00533              0.00459         *
 * H               4      0.00000              0.00533              0.00459         *
 * H               5      0.00000             -0.00533             -0.00459         *
 * H               6      0.00000              0.00533             -0.00459         *
 * H               7      0.00000             -0.00533              0.00459         *
 * H               8      0.00000              0.00533              0.00459         *
 *                                                                                  *
 ************************************************************************************

 *********** Symmetrised Stress Tensor ***********
 *                                               *
 *          Cartesian components (GPa)           *
 * --------------------------------------------- *
 *             x             y             z     *
 *                                               *
 *  x   -150.177169     -0.000000      0.000000  *
 *  y     -0.000000   -149.203557      0.000000  *
 *  z      0.000000      0.000000   -149.768857  *
 *                                               *
 *  Pressure:  149.7165                          *
 *                                               *
 *************************************************
  
 +------------+-------------+-------------+-----------------+ <-- min LBFGS
 |    Step    |   lambda    |   F.delta'  |    enthalpy     | <-- min LBFGS
 +------------+-------------+-------------+-----------------+ <-- min LBFGS
 |  previous  |    0.000000 |    0.006191 |     -104.086533 | <-- min LBFGS
 | trial step |    1.000000 |    0.001980 |     -104.086705 | <-- min LBFGS
 |  line step |    1.470334 |   -0.000045 |     -104.086722 | <-- min LBFGS
 +------------+-------------+-------------+-----------------+ <-- min LBFGS
  
 LBFGS: finished iteration     3 with enthalpy= -1.04086722E+002 eV
  
 +-----------+-----------------+-----------------+------------+-----+ <-- LBFGS
 | Parameter |      value      |    tolerance    |    units   | OK? | <-- LBFGS
 +-----------+-----------------+-----------------+------------+-----+ <-- LBFGS
 |  dE/ion   |   2.360053E-005 |   1.000000E-009 |         eV | No  | <-- LBFGS
 |  |F|max   |   7.032465E-003 |   1.000000E-005 |       eV/A | No  | <-- LBFGS
 |  |dR|max  |   6.030341E-004 |   1.000000E-005 |          A | No  | <-- LBFGS
 |   Smax    |   7.964432E-001 |   1.000000E-005 |        GPa | No  | <-- LBFGS
 +-----------+-----------------+-----------------+------------+-----+ <-- LBFGS
  

================================================================================
 Starting LBFGS iteration          4 ...
================================================================================
  
 +------------+-------------+-------------+-----------------+ <-- min LBFGS
 |    Step    |   lambda    |   F.delta'  |    enthalpy     | <-- min LBFGS
 +------------+-------------+-------------+-----------------+ <-- min LBFGS
 |  previous  |    0.000000 |    0.003314 |     -104.086722 | <-- min LBFGS
 +------------+-------------+-------------+-----------------+ <-- min LBFGS
  

--------------------------------------------------------------------------------
 LBFGS: starting iteration         4 with trial guess (lambda=  1.000000)
--------------------------------------------------------------------------------

                           -------------------------------
                                      Unit Cell
                           -------------------------------
        Real Lattice(A)              Reciprocal Lattice(1/A)
     1.8217953    -0.0000000     0.0000000        3.448897475   0.000000000   0.000000000
    -0.0000000     3.0032461     0.0000000        0.000000000   2.092131317   0.000000000
     0.0000000     0.0000000     2.8181203        0.000000000   0.000000000   2.229566073

                       Lattice parameters(A)       Cell Angles
                    a =      1.821795          alpha =   90.000000
                    b =      3.003246          beta  =   90.000000
                    c =      2.818120          gamma =   90.000000

                Current cell volume =            15.418781 A**3

                           -------------------------------
                                     Cell Contents
                           -------------------------------

            xxxxxxxxxxxxxxxxxxxxxxxxxxxxxxxxxxxxxxxxxxxxxxxxxxxxxxxxxxxxxxxxx
            x  Element         Atom        Fractional coordinates of atoms  x
            x                 Number           u          v          w      x
            x---------------------------------------------------------------x
            x  H                 1         0.000000   0.383047   0.448104   x
            x  H                 2         0.000000   0.116953   0.948104   x
            x  H                 3        -0.000000   0.883047   0.051896   x
            x  H                 4         0.000000   0.616953   0.551896   x
            x  H                 5         0.500000   0.883047   0.448104   x
            x  H                 6         0.500000   0.616953   0.948104   x
            x  H                 7         0.500000   0.383047   0.051896   x
            x  H                 8         0.500000   0.116953   0.551896   x
            xxxxxxxxxxxxxxxxxxxxxxxxxxxxxxxxxxxxxxxxxxxxxxxxxxxxxxxxxxxxxxxxx


------------------------------------------------------------------------ <-- SCF
SCF loop      Energy                           Energy gain       Timer   <-- SCF
                                               per atom          (sec)   <-- SCF
------------------------------------------------------------------------ <-- SCF
Initial  -1.18522142E+002                                         35.98  <-- SCF
      1  -1.18522241E+002                    1.23302218E-005      36.28  <-- SCF
      2  -1.18522241E+002                    6.55689264E-008      36.88  <-- SCF
      3  -1.18522242E+002                    7.04586713E-008      37.35  <-- SCF
      4  -1.18522242E+002                    9.39911900E-009      37.81  <-- SCF
      5  -1.18522242E+002                    7.20948319E-011      38.18  <-- SCF
      6  -1.18522242E+002                    6.93637840E-012      38.55  <-- SCF
      7  -1.18522242E+002                    3.44402063E-013      38.91  <-- SCF
------------------------------------------------------------------------ <-- SCF
 
Final energy =  -118.5222418403     eV
(energy not corrected for finite basis set)
 

 ******************************** Symmetrised Forces ********************************
 *                                                                                  *
 *                           Cartesian components (eV/A)                            *
 * -------------------------------------------------------------------------------- *
 *                         x                    y                    z              *
 *                                                                                  *
 * H               1      0.00000             -0.00181             -0.00260         *
 * H               2     -0.00000              0.00181             -0.00260         *
 * H               3     -0.00000             -0.00181              0.00260         *
 * H               4      0.00000              0.00181              0.00260         *
 * H               5      0.00000             -0.00181             -0.00260         *
 * H               6     -0.00000              0.00181             -0.00260         *
 * H               7     -0.00000             -0.00181              0.00260         *
 * H               8      0.00000              0.00181              0.00260         *
 *                                                                                  *
 ************************************************************************************

 *********** Symmetrised Stress Tensor ***********
 *                                               *
 *          Cartesian components (GPa)           *
 * --------------------------------------------- *
 *             x             y             z     *
 *                                               *
 *  x   -150.150125      0.000000      0.000000  *
 *  y      0.000000   -149.562874      0.000000  *
 *  z      0.000000      0.000000   -149.767096  *
 *                                               *
 *  Pressure:  149.8267                          *
 *                                               *
 *************************************************
  
 +------------+-------------+-------------+-----------------+ <-- min LBFGS
 |    Step    |   lambda    |   F.delta'  |    enthalpy     | <-- min LBFGS
 +------------+-------------+-------------+-----------------+ <-- min LBFGS
 |  previous  |    0.000000 |    0.003314 |     -104.086722 | <-- min LBFGS
 | trial step |    1.000000 |    0.001843 |     -104.086779 | <-- min LBFGS
 +------------+-------------+-------------+-----------------+ <-- min LBFGS
  

--------------------------------------------------------------------------------
 LBFGS: improving iteration         4 with line minimization (lambda=  2.252749)
--------------------------------------------------------------------------------

                           -------------------------------
                                      Unit Cell
                           -------------------------------
        Real Lattice(A)              Reciprocal Lattice(1/A)
     1.8225460    -0.0000000     0.0000000        3.447476996   0.000000000   0.000000000
    -0.0000000     3.0007487     0.0000000        0.000000000   2.093872542   0.000000000
     0.0000000     0.0000000     2.8181397        0.000000000   0.000000000   2.229550662

                       Lattice parameters(A)       Cell Angles
                    a =      1.822546          alpha =   90.000000
                    b =      3.000749          beta  =   90.000000
                    c =      2.818140          gamma =   90.000000

                Current cell volume =            15.412413 A**3

                           -------------------------------
                                     Cell Contents
                           -------------------------------

            xxxxxxxxxxxxxxxxxxxxxxxxxxxxxxxxxxxxxxxxxxxxxxxxxxxxxxxxxxxxxxxxx
            x  Element         Atom        Fractional coordinates of atoms  x
            x                 Number           u          v          w      x
            x---------------------------------------------------------------x
            x  H                 1         0.000000   0.382987   0.447955   x
            x  H                 2         0.000000   0.117013   0.947955   x
            x  H                 3        -0.000000   0.882987   0.052045   x
            x  H                 4         0.000000   0.617013   0.552045   x
            x  H                 5         0.500000   0.882987   0.447955   x
            x  H                 6         0.500000   0.617013   0.947955   x
            x  H                 7         0.500000   0.382987   0.052045   x
            x  H                 8         0.500000   0.117013   0.552045   x
            xxxxxxxxxxxxxxxxxxxxxxxxxxxxxxxxxxxxxxxxxxxxxxxxxxxxxxxxxxxxxxxxx


------------------------------------------------------------------------ <-- SCF
SCF loop      Energy                           Energy gain       Timer   <-- SCF
                                               per atom          (sec)   <-- SCF
------------------------------------------------------------------------ <-- SCF
Initial  -1.18516151E+002                                         39.72  <-- SCF
      1  -1.18516294E+002                    1.78450901E-005      40.02  <-- SCF
      2  -1.18516294E+002                    1.03165816E-007      40.49  <-- SCF
      3  -1.18516295E+002                    1.10025873E-007      40.96  <-- SCF
      4  -1.18516295E+002                    1.47047174E-008      41.42  <-- SCF
      5  -1.18516295E+002                    1.13386827E-010      41.79  <-- SCF
      6  -1.18516295E+002                    1.11628563E-011      42.14  <-- SCF
      7  -1.18516295E+002                   -9.66742633E-014      42.50  <-- SCF
      8  -1.18516295E+002                   -2.11474951E-013      42.85  <-- SCF
------------------------------------------------------------------------ <-- SCF
 
Final energy =  -118.5162954859     eV
(energy not corrected for finite basis set)
 

 ******************************** Symmetrised Forces ********************************
 *                                                                                  *
 *                           Cartesian components (eV/A)                            *
 * -------------------------------------------------------------------------------- *
 *                         x                    y                    z              *
 *                                                                                  *
 * H               1      0.00000              0.00252             -0.00010         *
 * H               2      0.00000             -0.00252             -0.00010         *
 * H               3      0.00000              0.00252              0.00010         *
 * H               4     -0.00000             -0.00252              0.00010         *
 * H               5      0.00000              0.00252             -0.00010         *
 * H               6      0.00000             -0.00252             -0.00010         *
 * H               7      0.00000              0.00252              0.00010         *
 * H               8     -0.00000             -0.00252              0.00010         *
 *                                                                                  *
 ************************************************************************************

 *********** Symmetrised Stress Tensor ***********
 *                                               *
 *          Cartesian components (GPa)           *
 * --------------------------------------------- *
 *             x             y             z     *
 *                                               *
 *  x   -150.113707     -0.000000      0.000000  *
 *  y     -0.000000   -150.017739      0.000000  *
 *  z      0.000000      0.000000   -149.763692  *
 *                                               *
 *  Pressure:  149.9650                          *
 *                                               *
 *************************************************
  
 +------------+-------------+-------------+-----------------+ <-- min LBFGS
 |    Step    |   lambda    |   F.delta'  |    enthalpy     | <-- min LBFGS
 +------------+-------------+-------------+-----------------+ <-- min LBFGS
 |  previous  |    0.000000 |    0.003314 |     -104.086722 | <-- min LBFGS
 | trial step |    1.000000 |    0.001843 |     -104.086779 | <-- min LBFGS
 |  line step |    2.252749 |   -0.000014 |     -104.086797 | <-- min LBFGS
 +------------+-------------+-------------+-----------------+ <-- min LBFGS
  
 LBFGS: finished iteration     4 with enthalpy= -1.04086797E+002 eV
  
 +-----------+-----------------+-----------------+------------+-----+ <-- LBFGS
 | Parameter |      value      |    tolerance    |    units   | OK? | <-- LBFGS
 +-----------+-----------------+-----------------+------------+-----+ <-- LBFGS
 |  dE/ion   |   9.398393E-006 |   1.000000E-009 |         eV | No  | <-- LBFGS
 |  |F|max   |   2.524920E-003 |   1.000000E-005 |       eV/A | No  | <-- LBFGS
 |  |dR|max  |   8.257750E-004 |   1.000000E-005 |          A | No  | <-- LBFGS
 |   Smax    |   2.363084E-001 |   1.000000E-005 |        GPa | No  | <-- LBFGS
 +-----------+-----------------+-----------------+------------+-----+ <-- LBFGS
  

================================================================================
 Starting LBFGS iteration          5 ...
================================================================================
  
 +------------+-------------+-------------+-----------------+ <-- min LBFGS
 |    Step    |   lambda    |   F.delta'  |    enthalpy     | <-- min LBFGS
 +------------+-------------+-------------+-----------------+ <-- min LBFGS
 |  previous  |    0.000000 |    0.001040 |     -104.086797 | <-- min LBFGS
 +------------+-------------+-------------+-----------------+ <-- min LBFGS
  

--------------------------------------------------------------------------------
 LBFGS: starting iteration         5 with trial guess (lambda=  1.000000)
--------------------------------------------------------------------------------

                           -------------------------------
                                      Unit Cell
                           -------------------------------
        Real Lattice(A)              Reciprocal Lattice(1/A)
     1.8227456    -0.0000000     0.0000000        3.447099371   0.000000000   0.000000000
    -0.0000000     3.0007165     0.0000000        0.000000000   2.093895045   0.000000000
     0.0000000     0.0000000     2.8177191        0.000000000   0.000000000   2.229883506

                       Lattice parameters(A)       Cell Angles
                    a =      1.822746          alpha =   90.000000
                    b =      3.000716          beta  =   90.000000
                    c =      2.817719          gamma =   90.000000

                Current cell volume =            15.411635 A**3

                           -------------------------------
                                     Cell Contents
                           -------------------------------

            xxxxxxxxxxxxxxxxxxxxxxxxxxxxxxxxxxxxxxxxxxxxxxxxxxxxxxxxxxxxxxxxx
            x  Element         Atom        Fractional coordinates of atoms  x
            x                 Number           u          v          w      x
            x---------------------------------------------------------------x
            x  H                 1        -0.000000   0.383018   0.447919   x
            x  H                 2         0.000000   0.116982   0.947919   x
            x  H                 3         0.000000   0.883018   0.052081   x
            x  H                 4         0.000000   0.616982   0.552081   x
            x  H                 5         0.500000   0.883018   0.447919   x
            x  H                 6         0.500000   0.616982   0.947919   x
            x  H                 7         0.500000   0.383018   0.052081   x
            x  H                 8         0.500000   0.116982   0.552081   x
            xxxxxxxxxxxxxxxxxxxxxxxxxxxxxxxxxxxxxxxxxxxxxxxxxxxxxxxxxxxxxxxxx


------------------------------------------------------------------------ <-- SCF
SCF loop      Energy                           Energy gain       Timer   <-- SCF
                                               per atom          (sec)   <-- SCF
------------------------------------------------------------------------ <-- SCF
Initial  -1.18515556E+002                                         43.70  <-- SCF
      1  -1.18515578E+002                    2.69612600E-006      43.99  <-- SCF
      2  -1.18515578E+002                    1.01360427E-008      44.45  <-- SCF
      3  -1.18515578E+002                   -2.00870993E-010      44.92  <-- SCF
      4  -1.18515578E+002                    6.37524472E-010      45.39  <-- SCF
      5  -1.18515578E+002                    1.62261709E-011      45.75  <-- SCF
      6  -1.18515578E+002                    1.38667146E-012      46.11  <-- SCF
      7  -1.18515578E+002                    5.28687378E-013      46.47  <-- SCF
------------------------------------------------------------------------ <-- SCF
 
Final energy =  -118.5155776911     eV
(energy not corrected for finite basis set)
 

 ******************************** Symmetrised Forces ********************************
 *                                                                                  *
 *                           Cartesian components (eV/A)                            *
 * -------------------------------------------------------------------------------- *
 *                         x                    y                    z              *
 *                                                                                  *
 * H               1     -0.00000              0.00056             -0.00080         *
 * H               2     -0.00000             -0.00056             -0.00080         *
 * H               3      0.00000              0.00056              0.00080         *
 * H               4     -0.00000             -0.00056              0.00080         *
 * H               5      0.00000              0.00056             -0.00080         *
 * H               6     -0.00000             -0.00056             -0.00080         *
 * H               7      0.00000              0.00056              0.00080         *
 * H               8     -0.00000             -0.00056              0.00080         *
 *                                                                                  *
 ************************************************************************************

 *********** Symmetrised Stress Tensor ***********
 *                                               *
 *          Cartesian components (GPa)           *
 * --------------------------------------------- *
 *             x             y             z     *
 *                                               *
 *  x   -150.095337      0.000000      0.000000  *
 *  y      0.000000   -150.070842      0.000000  *
 *  z      0.000000      0.000000   -149.863319  *
 *                                               *
 *  Pressure:  150.0098                          *
 *                                               *
 *************************************************
  
 +------------+-------------+-------------+-----------------+ <-- min LBFGS
 |    Step    |   lambda    |   F.delta'  |    enthalpy     | <-- min LBFGS
 +------------+-------------+-------------+-----------------+ <-- min LBFGS
 |  previous  |    0.000000 |    0.001040 |     -104.086797 | <-- min LBFGS
 | trial step |    1.000000 |    0.000631 |     -104.086805 | <-- min LBFGS
 +------------+-------------+-------------+-----------------+ <-- min LBFGS
  

--------------------------------------------------------------------------------
 LBFGS: improving iteration         5 with line minimization (lambda=  2.543491)
--------------------------------------------------------------------------------

                           -------------------------------
                                      Unit Cell
                           -------------------------------
[...]
            x  H                 4         0.000000   0.616883   0.552302   x
            x  H                 5         0.500000   0.883117   0.447698   x
            x  H                 6         0.500000   0.616883   0.947698   x
            x  H                 7         0.500000   0.383117   0.052302   x
            x  H                 8         0.500000   0.116883   0.552302   x
            xxxxxxxxxxxxxxxxxxxxxxxxxxxxxxxxxxxxxxxxxxxxxxxxxxxxxxxxxxxxxxxxx


------------------------------------------------------------------------ <-- SCF
SCF loop      Energy                           Energy gain       Timer   <-- SCF
                                               per atom          (sec)   <-- SCF
------------------------------------------------------------------------ <-- SCF
Initial  -1.18515959E+002                                         69.19  <-- SCF
      1  -1.18515959E+002                    8.89705330E-012      69.37  <-- SCF
      2  -1.18515959E+002                    2.56791012E-013      69.72  <-- SCF
      3  -1.18515959E+002                    5.10560953E-013      70.07  <-- SCF
      4  -1.18515959E+002                   -2.29601375E-013      70.42  <-- SCF
------------------------------------------------------------------------ <-- SCF
 
Final energy =  -118.5159591626     eV
(energy not corrected for finite basis set)
 

 ******************************** Symmetrised Forces ********************************
 *                                                                                  *
 *                           Cartesian components (eV/A)                            *
 * -------------------------------------------------------------------------------- *
 *                         x                    y                    z              *
 *                                                                                  *
 * H               1      0.00000             -0.00000              0.00000         *
 * H               2      0.00000              0.00000              0.00000         *
 * H               3      0.00000             -0.00000             -0.00000         *
 * H               4      0.00000              0.00000             -0.00000         *
 * H               5      0.00000             -0.00000              0.00000         *
 * H               6      0.00000              0.00000              0.00000         *
 * H               7      0.00000             -0.00000             -0.00000         *
 * H               8      0.00000              0.00000             -0.00000         *
 *                                                                                  *
 ************************************************************************************

 *********** Symmetrised Stress Tensor ***********
 *                                               *
 *          Cartesian components (GPa)           *
 * --------------------------------------------- *
 *             x             y             z     *
 *                                               *
 *  x   -149.999988     -0.000000      0.000000  *
 *  y     -0.000000   -150.000023      0.000000  *
 *  z      0.000000      0.000000   -149.999993  *
 *                                               *
 *  Pressure:  150.0000                          *
 *                                               *
 *************************************************
  
 +------------+-------------+-------------+-----------------+ <-- min LBFGS
 |    Step    |   lambda    |   F.delta'  |    enthalpy     | <-- min LBFGS
 +------------+-------------+-------------+-----------------+ <-- min LBFGS
 |  previous  |    0.000000 |  3.494E-007 |     -104.086812 | <-- min LBFGS
 | trial step |    1.000000 | -1.203E-007 |     -104.086812 | <-- min LBFGS
 +------------+-------------+-------------+-----------------+ <-- min LBFGS
  
 LBFGS: finished iteration    10 with enthalpy= -1.04086812E+002 eV
  
 +-----------+-----------------+-----------------+------------+-----+ <-- LBFGS
 | Parameter |      value      |    tolerance    |    units   | OK? | <-- LBFGS
 +-----------+-----------------+-----------------+------------+-----+ <-- LBFGS
 |  dE/ion   |   5.664508E-013 |   1.000000E-009 |         eV | Yes | <-- LBFGS
 |  |F|max   |   4.878835E-007 |   1.000000E-005 |       eV/A | Yes | <-- LBFGS
 |  |dR|max  |   4.415289E-007 |   1.000000E-005 |          A | Yes | <-- LBFGS
 |   Smax    |   2.331877E-005 |   1.000000E-005 |        GPa | No  | <-- LBFGS
 +-----------+-----------------+-----------------+------------+-----+ <-- LBFGS
  

================================================================================
 Starting LBFGS iteration         11 ...
================================================================================
  
 +------------+-------------+-------------+-----------------+ <-- min LBFGS
 |    Step    |   lambda    |   F.delta'  |    enthalpy     | <-- min LBFGS
 +------------+-------------+-------------+-----------------+ <-- min LBFGS
 |  previous  |    0.000000 |  1.063E-007 |     -104.086812 | <-- min LBFGS
 +------------+-------------+-------------+-----------------+ <-- min LBFGS
  

--------------------------------------------------------------------------------
 LBFGS: starting iteration        11 with trial guess (lambda=  1.000000)
--------------------------------------------------------------------------------

                           -------------------------------
                                      Unit Cell
                           -------------------------------
        Real Lattice(A)              Reciprocal Lattice(1/A)
     1.8231806    -0.0000000     0.0000000        3.446277020   0.000000000   0.000000000
    -0.0000000     3.0009220     0.0000000        0.000000000   2.093751591   0.000000000
     0.0000000     0.0000000     2.8169270        0.000000000   0.000000000   2.230510500

                       Lattice parameters(A)       Cell Angles
                    a =      1.823181          alpha =   90.000000
                    b =      3.000922          beta  =   90.000000
                    c =      2.816927          gamma =   90.000000

                Current cell volume =            15.412035 A**3

                           -------------------------------
                                     Cell Contents
                           -------------------------------

            xxxxxxxxxxxxxxxxxxxxxxxxxxxxxxxxxxxxxxxxxxxxxxxxxxxxxxxxxxxxxxxxx
            x  Element         Atom        Fractional coordinates of atoms  x
            x                 Number           u          v          w      x
            x---------------------------------------------------------------x
            x  H                 1        -0.000000   0.383117   0.447698   x
            x  H                 2         0.000000   0.116883   0.947698   x
            x  H                 3        -0.000000   0.883117   0.052302   x
            x  H                 4         0.000000   0.616883   0.552302   x
            x  H                 5         0.500000   0.883117   0.447698   x
            x  H                 6         0.500000   0.616883   0.947698   x
            x  H                 7         0.500000   0.383117   0.052302   x
            x  H                 8         0.500000   0.116883   0.552302   x
            xxxxxxxxxxxxxxxxxxxxxxxxxxxxxxxxxxxxxxxxxxxxxxxxxxxxxxxxxxxxxxxxx


------------------------------------------------------------------------ <-- SCF
SCF loop      Energy                           Energy gain       Timer   <-- SCF
                                               per atom          (sec)   <-- SCF
------------------------------------------------------------------------ <-- SCF
Initial  -1.18515959E+002                                         71.25  <-- SCF
      1  -1.18515959E+002                    1.09060653E-012      71.44  <-- SCF
      2  -1.18515959E+002                    1.81264244E-014      71.80  <-- SCF
      3  -1.18515959E+002                   -1.81264244E-014      72.15  <-- SCF
      4  -1.18515959E+002                   -9.06321219E-014      72.50  <-- SCF
------------------------------------------------------------------------ <-- SCF
 
Final energy =  -118.5159591250     eV
(energy not corrected for finite basis set)
 

 ******************************** Symmetrised Forces ********************************
 *                                                                                  *
 *                           Cartesian components (eV/A)                            *
 * -------------------------------------------------------------------------------- *
 *                         x                    y                    z              *
 *                                                                                  *
 * H               1      0.00000              0.00000              0.00000         *
 * H               2      0.00000             -0.00000              0.00000         *
 * H               3      0.00000              0.00000             -0.00000         *
 * H               4      0.00000             -0.00000             -0.00000         *
 * H               5      0.00000              0.00000              0.00000         *
 * H               6      0.00000             -0.00000              0.00000         *
 * H               7      0.00000              0.00000             -0.00000         *
 * H               8      0.00000             -0.00000             -0.00000         *
 *                                                                                  *
 ************************************************************************************

 *********** Symmetrised Stress Tensor ***********
 *                                               *
 *          Cartesian components (GPa)           *
 * --------------------------------------------- *
 *             x             y             z     *
 *                                               *
 *  x   -150.000006     -0.000000      0.000000  *
 *  y     -0.000000   -149.999999      0.000000  *
 *  z      0.000000      0.000000   -149.999996  *
 *                                               *
 *  Pressure:  150.0000                          *
 *                                               *
 *************************************************
  
 +------------+-------------+-------------+-----------------+ <-- min LBFGS
 |    Step    |   lambda    |   F.delta'  |    enthalpy     | <-- min LBFGS
 +------------+-------------+-------------+-----------------+ <-- min LBFGS
 |  previous  |    0.000000 |  1.063E-007 |     -104.086812 | <-- min LBFGS
 | trial step |    1.000000 | -2.156E-008 |     -104.086812 | <-- min LBFGS
 +------------+-------------+-------------+-----------------+ <-- min LBFGS
  
 LBFGS: finished iteration    11 with enthalpy= -1.04086812E+002 eV
  
 +-----------+-----------------+-----------------+------------+-----+ <-- LBFGS
 | Parameter |      value      |    tolerance    |    units   | OK? | <-- LBFGS
 +-----------+-----------------+-----------------+------------+-----+ <-- LBFGS
 |  dE/ion   |   1.918380E-013 |   1.000000E-009 |         eV | Yes | <-- LBFGS
 |  |F|max   |   1.635478E-007 |   1.000000E-005 |       eV/A | Yes | <-- LBFGS
 |  |dR|max  |   1.594161E-007 |   1.000000E-005 |          A | Yes | <-- LBFGS
 |   Smax    |   5.617430E-006 |   1.000000E-005 |        GPa | Yes | <-- LBFGS
 +-----------+-----------------+-----------------+------------+-----+ <-- LBFGS
  
 LBFGS: Geometry optimization completed successfully.

================================================================================
 LBFGS: Final Configuration:
================================================================================

                           -------------------------------
                                      Unit Cell
                           -------------------------------
        Real Lattice(A)              Reciprocal Lattice(1/A)
     1.8231806    -0.0000000     0.0000000        3.446277020   0.000000000   0.000000000
    -0.0000000     3.0009220     0.0000000        0.000000000   2.093751591   0.000000000
     0.0000000     0.0000000     2.8169270        0.000000000   0.000000000   2.230510500

                       Lattice parameters(A)       Cell Angles
                    a =      1.823181          alpha =   90.000000
                    b =      3.000922          beta  =   90.000000
                    c =      2.816927          gamma =   90.000000

                Current cell volume =            15.412035 A**3

                           -------------------------------
                                     Cell Contents
                           -------------------------------

            xxxxxxxxxxxxxxxxxxxxxxxxxxxxxxxxxxxxxxxxxxxxxxxxxxxxxxxxxxxxxxxxx
            x  Element         Atom        Fractional coordinates of atoms  x
            x                 Number           u          v          w      x
            x---------------------------------------------------------------x
            x  H                 1        -0.000000   0.383117   0.447698   x
            x  H                 2         0.000000   0.116883   0.947698   x
            x  H                 3        -0.000000   0.883117   0.052302   x
            x  H                 4         0.000000   0.616883   0.552302   x
            x  H                 5         0.500000   0.883117   0.447698   x
            x  H                 6         0.500000   0.616883   0.947698   x
            x  H                 7         0.500000   0.383117   0.052302   x
            x  H                 8         0.500000   0.116883   0.552302   x
            xxxxxxxxxxxxxxxxxxxxxxxxxxxxxxxxxxxxxxxxxxxxxxxxxxxxxxxxxxxxxxxxx


 LBFGS: Final Enthalpy     = -1.04086812E+002 eV
 LBFGS: Final <frequency>  =     703.08028 cm-1
 LBFGS: Final bulk modulus =     372.59323 GPa

 ******************************** Symmetrised Forces ********************************
 *                                                                                  *
 *                           Cartesian components (eV/A)                            *
 * -------------------------------------------------------------------------------- *
 *                         x                    y                    z              *
 *                                                                                  *
 * H               1      0.00000              0.00000              0.00000         *
 * H               2      0.00000             -0.00000              0.00000         *
 * H               3      0.00000              0.00000             -0.00000         *
 * H               4      0.00000             -0.00000             -0.00000         *
 * H               5      0.00000              0.00000              0.00000         *
 * H               6      0.00000             -0.00000              0.00000         *
 * H               7      0.00000              0.00000             -0.00000         *
 * H               8      0.00000             -0.00000             -0.00000         *
 *                                                                                  *
 ************************************************************************************

 *********** Symmetrised Stress Tensor ***********
 *                                               *
 *          Cartesian components (GPa)           *
 * --------------------------------------------- *
 *             x             y             z     *
 *                                               *
 *  x   -150.000006     -0.000000      0.000000  *
 *  y     -0.000000   -149.999999      0.000000  *
 *  z      0.000000      0.000000   -149.999996  *
 *                                               *
 *  Pressure:  150.0000                          *
 *                                               *
 *************************************************

 Pseudo atomic calculation performed for H 1s1

 Converged in 24 iterations to a total energy of -12.4843 eV

Charge spilling parameter for spin component 1 = 0.55%

            Orbital Populations       
     Ion    Atom   Orbital             Charge
  -------------------------------------------
      H     1      S                    0.997
      H     2      S                    1.003
      H     3      S                    1.003
      H     4      S                    0.997
      H     5      S                    0.997
      H     6      S                    1.003
      H     7      S                    1.003
      H     8      S                    0.997
  -------------------------------------------
                           Total:       8.000
  -------------------------------------------

     Atomic Populations (Mulliken)
     -----------------------------
Species          Ion     s      p      d      f     Total  Charge (e)
=====================================================================
  H               1     1.00   0.00   0.00   0.00   1.00     0.00
  H               2     1.00   0.00   0.00   0.00   1.00     0.00
  H               3     1.00   0.00   0.00   0.00   1.00     0.00
  H               4     1.00   0.00   0.00   0.00   1.00     0.00
  H               5     1.00   0.00   0.00   0.00   1.00     0.00
  H               6     1.00   0.00   0.00   0.00   1.00     0.00
  H               7     1.00   0.00   0.00   0.00   1.00     0.00
  H               8     1.00   0.00   0.00   0.00   1.00     0.00
=====================================================================

                 Bond                   Population      Length (A)
======================================================================
               H 6 -- H 7                    1.13        0.76088
               H 1 -- H 4                    1.13        0.76088
               H 5 -- H 8                    1.13        0.76088
               H 2 -- H 3                    1.13        0.76088
               H 4 -- H 5                    0.15        1.24745
               H 3 -- H 6                    0.15        1.24745
               H 2 -- H 7                    0.15        1.24745
               H 1 -- H 8                    0.15        1.24745
               H 4 -- H 6                   -0.15        1.43929
               H 3 -- H 5                   -0.15        1.43929
               H 2 -- H 8                   -0.15        1.43929
               H 1 -- H 7                   -0.15        1.43929
               H 5 -- H 6                   -0.13        1.61929
               H 3 -- H 4                   -0.13        1.61929
               H 7 -- H 8                   -0.13        1.61929
               H 1 -- H 2                   -0.13        1.61929
               H 3 -- H 7                   -0.61        1.75567
               H 1 -- H 5                   -0.61        1.75567
               H 4 -- H 8                   -0.61        1.75567
               H 2 -- H 6                   -0.61        1.75567
               H 4 -- H 7                   -0.47        1.81848
               H 1 -- H 6                   -0.47        1.81848
               H 3 -- H 8                   -0.47        1.81848
               H 2 -- H 5                   -0.47        1.81848
======================================================================


Writing analysis data to Cmca4.castep_bin

Writing model to Cmca4.check
 
 A BibTeX formatted list of references used in this run has been written to 
 Cmca4.bib
 
Initialisation time =      2.84 s
Calculation time    =     72.32 s
Finalisation time   =      1.52 s
Total time          =     76.68 s
Peak Memory Use     = 516068 kB
  
Overall parallel efficiency rating: Very good (84%)                             
  
Data was distributed by:-
k-point (32-way); efficiency rating: Very good (85%)                            
  
Parallel notes:
1) Calculation only took 75.2 s, so efficiency estimates may be inaccurate.     
