 +-------------------------------------------------+
 |                                                 |
 |      CCC   AA    SSS  TTTTT  EEEEE  PPPP        |
 |     C     A  A  S       T    E      P   P       |
 |     C     AAAA   SS     T    EEE    PPPP        |
 |     C     A  A     S    T    E      P           |
 |      CCC  A  A  SSS     T    EEEEE  P           |
 |                                                 |
 +-------------------------------------------------+
 |                                                 |
 | Welcome to Academic Release CASTEP version 18.1 |          
 | Ab Initio Total Energy Program                  |
 |                                                 |
 | Authors:                                        |
 | M. Segall, M. Probert, C. Pickard, P. Hasnip,   |
 | S. Clark, K. Refson, J. R. Yates, M. Payne      |
 |                                                 |
 | Contributors:                                   |
 | P. Lindan, P. Haynes, J. White, V. Milman,      |
 | N. Govind, M. Gibson, P. Tulip, V. Cocula,      |
 | B. Montanari, D. Quigley, M. Glover,            |
 | L. Bernasconi, A. Perlov, M. Plummer,           |
 | E. McNellis, J. Meyer, J. Gale, D. Jochym       |
 | J. Aarons, B. Walker, R. Gillen, D. Jones       |
 | T. Green, I. J. Bush, C. J. Armstrong,          |
 | E. J. Higgins, E. L. Brown, M. S. McFly,        |
 | J. Wilkins, B-C. Shih, P. J. P. Byrne           |
 |                                                 |
 | Copyright (c) 2000 - 2017                       |
 |                                                 |
 |     Distributed under the terms of an           |
 |     Agreement between the United Kingdom        |
 |     Car-Parrinello (UKCP) Consortium,           |
 |     Daresbury Laboratory and Accelrys, Inc.     |
 |                                                 |
 | Please cite                                     |
 |                                                 |
 |     "First principles methods using CASTEP"     |
 |                                                 |
 |         Zeitschrift fuer Kristallographie       |
 |           220(5-6) pp. 567-570 (2005)           |
 |                                                 |
 | S. J. Clark, M. D. Segall, C. J. Pickard,       |
 | P. J. Hasnip, M. J. Probert, K. Refson,         |
 | M. C. Payne                                     |
 |                                                 |
 |       in all publications arising from          |
 |              your use of CASTEP                 |
 |                                                 |
 +-------------------------------------------------+


 Compiled for linux_x86_64_gfortran4.8 on Thu, 19 Jul 2018 15:42:32 +0100
 from code version 70483bd0ad64+  Sun, 10 Dec 2017 12:18:29 +0000
 Compiler: GNU Fortran 4.8.5; Optimisation: fast
 MATHLIBS: Intel MKL(2018.0.0) (LAPACK version 3.7.0)
 FFT Lib : mkl
 Fundamental constants values: CODATA 2014

 Run started: Wed, 26 Aug 2020 14:48:54 +0100

 Atomic calculation performed for H: 1s1

 Converged in 41 iterations to an ae energy of -12.488 eV

   ============================================================                
   | Pseudopotential Report - Date of generation 26-08-2020   |                
   ------------------------------------------------------------                
   | Element: H Ionic charge:  1.00 Level of theory: PBE      |                
   | Atomic Solver: Koelling-Harmon                           |                
   |                                                          |                
   |               Reference Electronic Structure             |                
   |         Orbital         Occupation         Energy        |                
   |            1s              1.000           -0.239        |                
   |                                                          |                
   |                 Pseudopotential Definition               |                
   |        Beta     l      e      Rc     scheme   norm       |                
   |         loc     0   -0.239   0.702     qc      1         |                
   |                                                          |                
   | No charge augmentation                                   |                
   | No partial core correction                               |                
   ------------------------------------------------------------                
   | "0|0.7|2|6|8|10L(qc=10)"                                 |                
   ------------------------------------------------------------                
   |      Author: Chris J. Pickard, Cambridge University      |                
   ============================================================                

 Pseudo atomic calculation performed for H 1s1

 Converged in 24 iterations to a total energy of -12.4843 eV

 Calculation parallelised over 32 processes.
 Data is distributed by k-point(32-way)

 ************************************ Title ************************************
 

 ***************************** General Parameters ******************************
  
 output verbosity                               : normal  (1)
 write checkpoint data to                       : Cmca4.check
 type of calculation                            : geometry optimization
 stress calculation                             : on
 density difference calculation                 : off
 electron localisation func (ELF) calculation   : off
 Hirshfeld analysis                             : off
 unlimited duration calculation
 timing information                             : on
 memory usage estimate                          : on
 write extra output files                       : on
 write final potential to formatted file        : off
 write final density to formatted file          : off
 write structure in CELL formatted file         : on
 write BibTeX reference list                    : on
 write OTFG pseudopotential files               : on
 write electrostatic potential file             : on
 write bands file                               : on
 checkpoint writing                             : both castep_bin and check files
  
 output         length unit                     : A
 output           mass unit                     : amu
 output           time unit                     : ps
 output         charge unit                     : e
 output           spin unit                     : hbar/2
 output         energy unit                     : eV
 output          force unit                     : eV/A
 output       velocity unit                     : A/ps
 output       pressure unit                     : GPa
 output     inv_length unit                     : 1/A
 output      frequency unit                     : cm-1
 output force constant unit                     : eV/A**2
 output         volume unit                     : A**3
 output   IR intensity unit                     : (D/A)**2/amu
 output         dipole unit                     : D
 output         efield unit                     : eV/A/e
 output        entropy unit                     : J/mol/K
  
 wavefunctions paging                           : none
 random number generator seed                   : randomised (144854679)
 data distribution                              : optimal for this architecture
 optimization strategy                          : maximize speed(+++)

 *********************** Exchange-Correlation Parameters ***********************
  
 using functional                               : Perdew Burke Ernzerhof
 relativistic treatment                         : Koelling-Harmon
 DFT+D: Semi-empirical dispersion correction    : off

 ************************* Pseudopotential Parameters **************************
  
 pseudopotential representation                 : reciprocal space
 <beta|phi> representation                      : reciprocal space
 spin-orbit coupling                            : off

 **************************** Basis Set Parameters *****************************
  
 plane wave basis set cut-off                   :  1200.0000   eV
 size of standard grid                          :     2.0000
 size of   fine   gmax                          :    35.4943   1/A
 finite basis set correction                    : automatic
 number of sample energies                      :          3
           sample  spacing                      :     5.0000   eV

 **************************** Electronic Parameters ****************************
  
 number of  electrons                           :  8.000    
 net charge of system                           :  0.000    
 treating system as non-spin-polarized
 number of bands                                :          4

 ********************* Electronic Minimization Parameters **********************
  
 Method: Treating system as non-metallic,
         and number of  SD  steps               :          1
         and number of  CG  steps               :          4
  
 total energy / atom convergence tol.           : 0.1000E-10   eV
 eigen-energy convergence tolerance             : 0.2000E-10   eV
 max force / atom convergence tol.              : ignored
 convergence tolerance window                   :          3   cycles
 max. number of SCF cycles                      :        100
 periodic dipole correction                     : NONE

 ************************** Density Mixing Parameters **************************
  
 density-mixing scheme                          : Broyden
 max. length of mixing history                  :         20
 charge density mixing amplitude                : 0.8000    
 cut-off energy for mixing                      :  1200.       eV

 *********************** Population Analysis Parameters ************************
  
 Population analysis with cutoff                :  3.000       A
 Population analysis output                     : summary and pdos components

 ********************** Geometry Optimization Parameters ***********************
  
 optimization method                            : LBFGS
 max. no. of LBFGS updates                      : unbounded
 variable cell method                           : fixed basis quality
 max. number of steps                           :         60
 estimated bulk modulus                         :  500.0       GPa
 estimated <frequency>                          :  1668.       cm-1
 geom line minimiser                            : on
 with line minimiser tolerance                  :     0.4000
 total energy convergence tolerance             : 0.1000E-08   eV/atom
        max ionic |force| tolerance             : 0.1000E-04   eV/A
 max ionic |displacement| tolerance             : 0.1000E-04   A
   max |stress component| tolerance             : 0.1000E-04   GPa
 convergence tolerance window                   :          2   steps
 backup results every                           :      14400   seconds
 write geom trajectory file                     : on

 *******************************************************************************
  

                           -------------------------------
                                      Unit Cell
                           -------------------------------
        Real Lattice(A)                      Reciprocal Lattice(1/A)
     1.6673920    -0.0000000     0.0000000        3.768271257   0.000000000   0.000000000
    -0.0000000     2.8674252     0.0000000        0.000000000   2.191228983   0.000000000
     0.0000000     0.0000000     2.6114716        0.000000000   0.000000000   2.405994111

                       Lattice parameters(A)       Cell Angles
                    a =      1.667392          alpha =   90.000000
                    b =      2.867425          beta  =   90.000000
                    c =      2.611472          gamma =   90.000000

                       Current cell volume =            12.485764       A**3
                                   density =             0.645817   AMU/A**3
                                           =             1.072405     g/cm^3

                           -------------------------------
                                     Cell Contents
                           -------------------------------
                         Total number of ions in cell =    8
                      Total number of species in cell =    1
                        Max number of any one species =    8

            xxxxxxxxxxxxxxxxxxxxxxxxxxxxxxxxxxxxxxxxxxxxxxxxxxxxxxxxxxxx
            x  Element    Atom        Fractional coordinates of atoms  x
            x            Number           u          v          w      x
            x----------------------------------------------------------x
            x  H            1         0.000000   0.375181   0.442487   x 
            x  H            2        -0.000000   0.124819   0.942487   x 
            x  H            3         0.000000   0.875181   0.057513   x 
            x  H            4         0.000000   0.624819   0.557513   x 
            x  H            5         0.500000   0.875181   0.442487   x 
            x  H            6         0.500000   0.624819   0.942487   x 
            x  H            7         0.500000   0.375181   0.057513   x 
            x  H            8         0.500000   0.124819   0.557513   x 
            xxxxxxxxxxxxxxxxxxxxxxxxxxxxxxxxxxxxxxxxxxxxxxxxxxxxxxxxxxxx


                         No user defined ionic velocities

                           -------------------------------
                                   Details of Species
                           -------------------------------

                               Mass of species in AMU
                                    H    1.0079400

                          Electric Quadrupole Moment (Barn)
                                    H    0.0028600 Isotope  2

                          Files used for pseudopotentials:
                                    H 0|0.7|2|6|8|10L(qc=10)

                           -------------------------------
                              k-Points For BZ Sampling
                           -------------------------------
                       MP grid size for SCF calculation is 11 11 11
                            with an offset of   0.000  0.000  0.000
                       Number of kpoints used =           216

                           -------------------------------
                               Symmetry and Constraints
                           -------------------------------

                      Cell is a supercell containing 2 primitive cells
                      Maximum deviation from symmetry = 0.310389E-14     ANG

                      Number of symmetry operations   =          16
                      Number of ionic constraints     =           3
                      Point group of crystal =     8: D2h, mmm, 2/m 2/m 2/m
                      Space group of crystal =    64: Cmce, -C 2bc 2

             Set iprint > 1 for details on symmetry rotations/translations

                         Centre of mass is constrained
             Set iprint > 1 for details of linear ionic constraints

                         Number of cell constraints= 3
                         Cell constraints are:  1 2 3 0 0 0

                         External pressure/stress (GPa)
                        240.00000   0.00000   0.00000
                                  240.00000   0.00000
                                            240.00000
  
+---------------- MEMORY AND SCRATCH DISK ESTIMATES PER PROCESS --------------+
|                                                     Memory          Disk    |
| Baseline code, static data and system overhead      478.0 MB         0.0 MB |
| BLAS internal memory storage                          0.0 MB         0.0 MB |
| Model and support data                               12.0 MB         0.0 MB |
| Electronic energy minimisation requirements           5.6 MB         0.0 MB |
| Force calculation requirements                        2.5 MB         0.0 MB |
| Stress calculation requirements                       3.1 MB         0.0 MB |
|                                               ----------------------------- |
| Approx. total storage required per process          495.6 MB         0.0 MB |
|                                                                             |
| Requirements will fluctuate during execution and may exceed these estimates |
+-----------------------------------------------------------------------------+
Calculating finite basis set correction with  3 cut-off energies.
Calculating total energy with cut-off of 1190.000 eV.
------------------------------------------------------------------------ <-- SCF
SCF loop      Energy                           Energy gain       Timer   <-- SCF
                                               per atom          (sec)   <-- SCF
------------------------------------------------------------------------ <-- SCF
Initial   1.77760481E+002                                          3.02  <-- SCF
      1  -1.01858746E+002                    3.49524035E+001       3.31  <-- SCF
      2  -1.15067985E+002                    1.65115487E+000       3.50  <-- SCF
      3  -1.14977391E+002                   -1.13242574E-002       3.87  <-- SCF
      4  -1.14974944E+002                   -3.05896206E-004       4.25  <-- SCF
      5  -1.14975050E+002                    1.32583078E-005       4.62  <-- SCF
      6  -1.14975058E+002                    1.05717651E-006       5.01  <-- SCF
      7  -1.14975058E+002                    1.38387395E-009       5.37  <-- SCF
      8  -1.14975059E+002                    7.95236448E-011       5.69  <-- SCF
      9  -1.14975059E+002                    2.70385830E-012       5.98  <-- SCF
     10  -1.14975059E+002                    2.17517093E-013       6.27  <-- SCF
------------------------------------------------------------------------ <-- SCF
 
Final energy =  -114.9750585006     eV
(energy not corrected for finite basis set)
 
Calculating total energy with cut-off of 1195.000 eV.
------------------------------------------------------------------------ <-- SCF
SCF loop      Energy                           Energy gain       Timer   <-- SCF
                                               per atom          (sec)   <-- SCF
------------------------------------------------------------------------ <-- SCF
Initial  -1.14975059E+002                                          6.55  <-- SCF
      1  -1.14975687E+002                    7.85485094E-005       6.77  <-- SCF
      2  -1.14975687E+002                    1.55156151E-010       7.13  <-- SCF
      3  -1.14975687E+002                    2.53940873E-008       7.49  <-- SCF
      4  -1.14975687E+002                    1.06583073E-009       7.87  <-- SCF
      5  -1.14975687E+002                    5.06029347E-012       8.23  <-- SCF
      6  -1.14975687E+002                    3.17212427E-013       8.52  <-- SCF
------------------------------------------------------------------------ <-- SCF
 
Final energy =  -114.9756871017     eV
(energy not corrected for finite basis set)
 
Calculating total energy with cut-off of 1200.000 eV.
------------------------------------------------------------------------ <-- SCF
SCF loop      Energy                           Energy gain       Timer   <-- SCF
                                               per atom          (sec)   <-- SCF
------------------------------------------------------------------------ <-- SCF
Initial  -1.14975687E+002                                          8.79  <-- SCF
      1  -1.14976306E+002                    7.73435099E-005       9.02  <-- SCF
      2  -1.14976306E+002                    1.50050541E-010       9.38  <-- SCF
      3  -1.14976306E+002                    2.48167033E-008       9.75  <-- SCF
      4  -1.14976306E+002                    1.07160702E-009      10.13  <-- SCF
      5  -1.14976306E+002                    4.23252009E-012      10.43  <-- SCF
      6  -1.14976306E+002                    4.25970973E-013      10.74  <-- SCF
------------------------------------------------------------------------ <-- SCF
 
Final energy =  -114.9763060581     eV
(energy not corrected for finite basis set)
 
 For future reference: finite basis dEtot/dlog(Ecut) =      -0.150712eV
 Total energy corrected for finite basis set =    -114.976312 eV
 
+---------------- MEMORY AND SCRATCH DISK ESTIMATES PER PROCESS --------------+
|                                                     Memory          Disk    |
| Model and support data                               22.0 MB         0.0 MB |
| Electronic energy minimisation requirements           5.6 MB         0.0 MB |
| Geometry minimisation requirements                    6.7 MB         0.0 MB |
|                                               ----------------------------- |
| Approx. total storage required per process           34.4 MB         0.0 MB |
|                                                                             |
| Requirements will fluctuate during execution and may exceed these estimates |
+-----------------------------------------------------------------------------+
 

 ******************************** Symmetrised Forces ********************************
 *                                                                                  *
 *                           Cartesian components (eV/A)                            *
 * -------------------------------------------------------------------------------- *
 *                         x                    y                    z              *
 *                                                                                  *
 * H               1      0.00000              0.00000              0.00000         *
 * H               2      0.00000             -0.00000              0.00000         *
 * H               3      0.00000              0.00000             -0.00000         *
 * H               4      0.00000             -0.00000             -0.00000         *
 * H               5      0.00000              0.00000              0.00000         *
 * H               6      0.00000             -0.00000              0.00000         *
 * H               7      0.00000              0.00000             -0.00000         *
 * H               8      0.00000             -0.00000             -0.00000         *
 *                                                                                  *
 ************************************************************************************

 *********** Symmetrised Stress Tensor ***********
 *                                               *
 *          Cartesian components (GPa)           *
 * --------------------------------------------- *
 *             x             y             z     *
 *                                               *
 *  x   -249.999079      0.000000      0.000000  *
 *  y      0.000000   -249.999073      0.000000  *
 *  z      0.000000      0.000000   -249.999073  *
 *                                               *
 *  Pressure:  249.9991                          *
 *                                               *
 *************************************************
 LBFGS: finished iteration     0 with enthalpy= -9.62731090E+001 eV
  
 +-----------+-----------------+-----------------+------------+-----+ <-- LBFGS
 | Parameter |      value      |    tolerance    |    units   | OK? | <-- LBFGS
 +-----------+-----------------+-----------------+------------+-----+ <-- LBFGS
 |  dE/ion   |   0.000000E+000 |   1.000000E-009 |         eV | No  | <-- LBFGS
 |  |F|max   |   6.943614E-008 |   1.000000E-005 |       eV/A | Yes | <-- LBFGS
 |  |dR|max  |   0.000000E+000 |   1.000000E-005 |          A | No  | <-- LBFGS
 |   Smax    |   9.999079E+000 |   1.000000E-005 |        GPa | No  | <-- LBFGS
 +-----------+-----------------+-----------------+------------+-----+ <-- LBFGS
  

================================================================================
 Starting LBFGS iteration          1 ...
================================================================================
  
 +------------+-------------+-------------+-----------------+ <-- min LBFGS
 |    Step    |   lambda    |   F.delta'  |    enthalpy     | <-- min LBFGS
 +------------+-------------+-------------+-----------------+ <-- min LBFGS
 |  previous  |    0.000000 |    0.049599 |      -96.273109 | <-- min LBFGS
 +------------+-------------+-------------+-----------------+ <-- min LBFGS
  

--------------------------------------------------------------------------------
 LBFGS: starting iteration         1 with trial guess (lambda=  1.000000)
--------------------------------------------------------------------------------
 
+---------------- MEMORY AND SCRATCH DISK ESTIMATES PER PROCESS --------------+
|                                                     Memory          Disk    |
| Model and support data                               22.1 MB         0.0 MB |
| Electronic energy minimisation requirements           5.6 MB         0.0 MB |
| Geometry minimisation requirements                    6.8 MB         0.0 MB |
|                                               ----------------------------- |
| Approx. total storage required per process           34.6 MB         0.0 MB |
|                                                                             |
| Requirements will fluctuate during execution and may exceed these estimates |
+-----------------------------------------------------------------------------+
 

                           -------------------------------
                                      Unit Cell
                           -------------------------------
        Real Lattice(A)              Reciprocal Lattice(1/A)
     1.6785069    -0.0000000     0.0000000        3.743318101   0.000000000   0.000000000
    -0.0000000     2.8865396     0.0000000        0.000000000   2.176718869   0.000000000
     0.0000000     0.0000000     2.6288798        0.000000000   0.000000000   2.390061842

                       Lattice parameters(A)       Cell Angles
                    a =      1.678507          alpha =   90.000000
                    b =      2.886540          beta  =   90.000000
                    c =      2.628880          gamma =   90.000000

                Current cell volume =            12.737124 A**3

                           -------------------------------
                                     Cell Contents
                           -------------------------------

            xxxxxxxxxxxxxxxxxxxxxxxxxxxxxxxxxxxxxxxxxxxxxxxxxxxxxxxxxxxxxxxxx
            x  Element         Atom        Fractional coordinates of atoms  x
            x                 Number           u          v          w      x
            x---------------------------------------------------------------x
            x  H                 1         0.000000   0.375181   0.442487   x
            x  H                 2        -0.000000   0.124819   0.942487   x
            x  H                 3         0.000000   0.875181   0.057513   x
            x  H                 4        -0.000000   0.624819   0.557513   x
            x  H                 5         0.500000   0.875181   0.442487   x
            x  H                 6         0.500000   0.624819   0.942487   x
            x  H                 7         0.500000   0.375181   0.057513   x
            x  H                 8         0.500000   0.124819   0.557513   x
            xxxxxxxxxxxxxxxxxxxxxxxxxxxxxxxxxxxxxxxxxxxxxxxxxxxxxxxxxxxxxxxxx


------------------------------------------------------------------------ <-- SCF
SCF loop      Energy                           Energy gain       Timer   <-- SCF
                                               per atom          (sec)   <-- SCF
------------------------------------------------------------------------ <-- SCF
Initial  -1.15353653E+002                                         11.71  <-- SCF
      1  -1.15357749E+002                    5.12045358E-004      11.95  <-- SCF
      2  -1.15357765E+002                    1.94099728E-006      12.33  <-- SCF
      3  -1.15357770E+002                    6.68361722E-007      12.70  <-- SCF
      4  -1.15357771E+002                    1.37290825E-007      13.32  <-- SCF
      5  -1.15357771E+002                    2.61735901E-009      13.82  <-- SCF
      6  -1.15357771E+002                    2.37797540E-010      14.12  <-- SCF
      7  -1.15357771E+002                    6.19319500E-013      14.41  <-- SCF
      8  -1.15357771E+002                   -6.64635561E-013      14.70  <-- SCF
------------------------------------------------------------------------ <-- SCF
 
Final energy =  -115.3577710135     eV
(energy not corrected for finite basis set)
 

 ******************************** Symmetrised Forces ********************************
 *                                                                                  *
 *                           Cartesian components (eV/A)                            *
 * -------------------------------------------------------------------------------- *
 *                         x                    y                    z              *
 *                                                                                  *
 * H               1      0.00000              0.08226              0.03976         *
 * H               2      0.00000             -0.08226              0.03976         *
 * H               3      0.00000              0.08226             -0.03976         *
 * H               4      0.00000             -0.08226             -0.03976         *
 * H               5      0.00000              0.08226              0.03976         *
 * H               6      0.00000             -0.08226              0.03976         *
 * H               7      0.00000              0.08226             -0.03976         *
 * H               8      0.00000             -0.08226             -0.03976         *
 *                                                                                  *
 ************************************************************************************

 *********** Symmetrised Stress Tensor ***********
 *                                               *
 *          Cartesian components (GPa)           *
 * --------------------------------------------- *
 *             x             y             z     *
 *                                               *
 *  x   -237.680471      0.000000      0.000000  *
 *  y      0.000000   -234.315257      0.000000  *
 *  z      0.000000      0.000000   -237.591343  *
 *                                               *
 *  Pressure:  236.5290                          *
 *                                               *
 *************************************************
  
 +------------+-------------+-------------+-----------------+ <-- min LBFGS
 |    Step    |   lambda    |   F.delta'  |    enthalpy     | <-- min LBFGS
 +------------+-------------+-------------+-----------------+ <-- min LBFGS
 |  previous  |    0.000000 |    0.049599 |      -96.273109 | <-- min LBFGS
 | trial step |    1.000000 |   -0.017448 |      -96.278051 | <-- min LBFGS
 +------------+-------------+-------------+-----------------+ <-- min LBFGS
  
 LBFGS: finished iteration     1 with enthalpy= -9.62780514E+001 eV
  
 +-----------+-----------------+-----------------+------------+-----+ <-- LBFGS
 | Parameter |      value      |    tolerance    |    units   | OK? | <-- LBFGS
 +-----------+-----------------+-----------------+------------+-----+ <-- LBFGS
 |  dE/ion   |   6.178005E-004 |   1.000000E-009 |         eV | No  | <-- LBFGS
 |  |F|max   |   9.136822E-002 |   1.000000E-005 |       eV/A | No  | <-- LBFGS
 |  |dR|max  |   6.779503E-009 |   1.000000E-005 |          A | Yes | <-- LBFGS
 |   Smax    |   5.684743E+000 |   1.000000E-005 |        GPa | No  | <-- LBFGS
 +-----------+-----------------+-----------------+------------+-----+ <-- LBFGS
  

================================================================================
 Starting LBFGS iteration          2 ...
================================================================================
  
 +------------+-------------+-------------+-----------------+ <-- min LBFGS
 |    Step    |   lambda    |   F.delta'  |    enthalpy     | <-- min LBFGS
 +------------+-------------+-------------+-----------------+ <-- min LBFGS
 |  previous  |    0.000000 |    0.028389 |      -96.278051 | <-- min LBFGS
 +------------+-------------+-------------+-----------------+ <-- min LBFGS
  

--------------------------------------------------------------------------------
 LBFGS: starting iteration         2 with trial guess (lambda=  1.000000)
--------------------------------------------------------------------------------

                           -------------------------------
                                      Unit Cell
                           -------------------------------
        Real Lattice(A)              Reciprocal Lattice(1/A)
     1.6792894    -0.0000000     0.0000000        3.741573789   0.000000000   0.000000000
    -0.0000000     2.8830627     0.0000000        0.000000000   2.179343935   0.000000000
     0.0000000     0.0000000     2.6299891        0.000000000   0.000000000   2.389053787

                       Lattice parameters(A)       Cell Angles
                    a =      1.679289          alpha =   90.000000
                    b =      2.883063          beta  =   90.000000
                    c =      2.629989          gamma =   90.000000

                Current cell volume =            12.733084 A**3

                           -------------------------------
                                     Cell Contents
                           -------------------------------

            xxxxxxxxxxxxxxxxxxxxxxxxxxxxxxxxxxxxxxxxxxxxxxxxxxxxxxxxxxxxxxxxx
            x  Element         Atom        Fractional coordinates of atoms  x
            x                 Number           u          v          w      x
            x---------------------------------------------------------------x
            x  H                 1         0.000000   0.377254   0.443586   x
            x  H                 2        -0.000000   0.122746   0.943586   x
            x  H                 3         0.000000   0.877254   0.056414   x
            x  H                 4        -0.000000   0.622746   0.556414   x
            x  H                 5         0.500000   0.877254   0.443586   x
            x  H                 6         0.500000   0.622746   0.943586   x
            x  H                 7         0.500000   0.377254   0.056414   x
            x  H                 8         0.500000   0.122746   0.556414   x
            xxxxxxxxxxxxxxxxxxxxxxxxxxxxxxxxxxxxxxxxxxxxxxxxxxxxxxxxxxxxxxxxx


------------------------------------------------------------------------ <-- SCF
SCF loop      Energy                           Energy gain       Timer   <-- SCF
                                               per atom          (sec)   <-- SCF
------------------------------------------------------------------------ <-- SCF
Initial  -1.15316304E+002                                         15.41  <-- SCF
      1  -1.15352034E+002                    4.46624940E-003      15.66  <-- SCF
      2  -1.15352141E+002                    1.34305525E-005      16.03  <-- SCF
      3  -1.15350366E+002                   -2.21856815E-004      16.41  <-- SCF
      4  -1.15350277E+002                   -1.12001272E-005      16.79  <-- SCF
      5  -1.15350277E+002                    1.69766985E-008      17.16  <-- SCF
      6  -1.15350277E+002                    1.04338418E-009      17.54  <-- SCF
      7  -1.15350277E+002                    2.74313222E-012      17.82  <-- SCF
      8  -1.15350277E+002                    4.95455600E-013      18.11  <-- SCF
------------------------------------------------------------------------ <-- SCF
 
Final energy =  -115.3502770277     eV
(energy not corrected for finite basis set)
 

 ******************************** Symmetrised Forces ********************************
 *                                                                                  *
 *                           Cartesian components (eV/A)                            *
 * -------------------------------------------------------------------------------- *
 *                         x                    y                    z              *
 *                                                                                  *
 * H               1      0.00000             -0.13951             -0.06067         *
 * H               2      0.00000              0.13951             -0.06067         *
 * H               3     -0.00000             -0.13951              0.06067         *
 * H               4     -0.00000              0.13951              0.06067         *
 * H               5      0.00000             -0.13951             -0.06067         *
 * H               6      0.00000              0.13951             -0.06067         *
 * H               7     -0.00000             -0.13951              0.06067         *
 * H               8     -0.00000              0.13951              0.06067         *
 *                                                                                  *
 ************************************************************************************

 *********** Symmetrised Stress Tensor ***********
 *                                               *
 *          Cartesian components (GPa)           *
 * --------------------------------------------- *
 *             x             y             z     *
 *                                               *
 *  x   -239.119896      0.000000      0.000000  *
 *  y      0.000000   -242.260928      0.000000  *
 *  z      0.000000      0.000000   -239.002291  *
 *                                               *
 *  Pressure:  240.1277                          *
 *                                               *
 *************************************************
  
 +------------+-------------+-------------+-----------------+ <-- min LBFGS
 |    Step    |   lambda    |   F.delta'  |    enthalpy     | <-- min LBFGS
 +------------+-------------+-------------+-----------------+ <-- min LBFGS
 |  previous  |    0.000000 |    0.028389 |      -96.278051 | <-- min LBFGS
 | trial step |    1.000000 |   -0.045316 |      -96.276603 | <-- min LBFGS
 +------------+-------------+-------------+-----------------+ <-- min LBFGS
  

--------------------------------------------------------------------------------
 LBFGS: improving iteration         2 with line minimization (lambda=  0.385176)
--------------------------------------------------------------------------------

                           -------------------------------
                                      Unit Cell
                           -------------------------------
        Real Lattice(A)              Reciprocal Lattice(1/A)
     1.6788083    -0.0000000     0.0000000        3.742646041   0.000000000   0.000000000
    -0.0000000     2.8852004     0.0000000        0.000000000   2.177729232   0.000000000
     0.0000000     0.0000000     2.6293071        0.000000000   0.000000000   2.389673463

                       Lattice parameters(A)       Cell Angles
                    a =      1.678808          alpha =   90.000000
                    b =      2.885200          beta  =   90.000000
                    c =      2.629307          gamma =   90.000000

                Current cell volume =            12.735571 A**3

                           -------------------------------
                                     Cell Contents
                           -------------------------------

            xxxxxxxxxxxxxxxxxxxxxxxxxxxxxxxxxxxxxxxxxxxxxxxxxxxxxxxxxxxxxxxxx
            x  Element         Atom        Fractional coordinates of atoms  x
            x                 Number           u          v          w      x
            x---------------------------------------------------------------x
            x  H                 1         0.000000   0.375980   0.442910   x
            x  H                 2        -0.000000   0.124020   0.942910   x
            x  H                 3         0.000000   0.875980   0.057090   x
            x  H                 4        -0.000000   0.624020   0.557090   x
            x  H                 5         0.500000   0.875980   0.442910   x
            x  H                 6         0.500000   0.624020   0.942910   x
            x  H                 7         0.500000   0.375980   0.057090   x
            x  H                 8         0.500000   0.124020   0.557090   x
            xxxxxxxxxxxxxxxxxxxxxxxxxxxxxxxxxxxxxxxxxxxxxxxxxxxxxxxxxxxxxxxxx


------------------------------------------------------------------------ <-- SCF
SCF loop      Energy                           Energy gain       Timer   <-- SCF
                                               per atom          (sec)   <-- SCF
------------------------------------------------------------------------ <-- SCF
Initial  -1.15343510E+002                                         18.82  <-- SCF
      1  -1.15357167E+002                    1.70717402E-003      19.05  <-- SCF
      2  -1.15357208E+002                    5.12978215E-006      19.42  <-- SCF
      3  -1.15356526E+002                   -8.51947767E-005      19.80  <-- SCF
      4  -1.15356492E+002                   -4.26694990E-006      20.19  <-- SCF
      5  -1.15356492E+002                    6.16618360E-009      20.56  <-- SCF
      6  -1.15356492E+002                    3.69223180E-010      20.90  <-- SCF
      7  -1.15356492E+002                    1.30812363E-012      21.20  <-- SCF
      8  -1.15356492E+002                    3.35338851E-013      21.49  <-- SCF
------------------------------------------------------------------------ <-- SCF
 
Final energy =  -115.3564923615     eV
(energy not corrected for finite basis set)
 

 ******************************** Symmetrised Forces ********************************
 *                                                                                  *
 *                           Cartesian components (eV/A)                            *
 * -------------------------------------------------------------------------------- *
 *                         x                    y                    z              *
 *                                                                                  *
 * H               1      0.00000             -0.00007              0.00232         *
 * H               2      0.00000              0.00007              0.00232         *
 * H               3     -0.00000             -0.00007             -0.00232         *
 * H               4     -0.00000              0.00007             -0.00232         *
 * H               5      0.00000             -0.00007              0.00232         *
 * H               6      0.00000              0.00007              0.00232         *
 * H               7      0.00000             -0.00007             -0.00232         *
 * H               8     -0.00000              0.00007             -0.00232         *
 *                                                                                  *
 ************************************************************************************

 *********** Symmetrised Stress Tensor ***********
 *                                               *
 *          Cartesian components (GPa)           *
 * --------------------------------------------- *
 *             x             y             z     *
 *                                               *
 *  x   -238.186739      0.000000      0.000000  *
 *  y      0.000000   -237.344250      0.000000  *
 *  z      0.000000      0.000000   -238.101083  *
 *                                               *
 *  Pressure:  237.8774                          *
 *                                               *
 *************************************************
  
 +------------+-------------+-------------+-----------------+ <-- min LBFGS
 |    Step    |   lambda    |   F.delta'  |    enthalpy     | <-- min LBFGS
 +------------+-------------+-------------+-----------------+ <-- min LBFGS
 |  previous  |    0.000000 |    0.028389 |      -96.278051 | <-- min LBFGS
 | trial step |    1.000000 |   -0.045316 |      -96.276603 | <-- min LBFGS
 |  line step |    0.385176 |    0.000944 |      -96.279095 | <-- min LBFGS
 +------------+-------------+-------------+-----------------+ <-- min LBFGS
  
 LBFGS: finished iteration     2 with enthalpy= -9.62790948E+001 eV
  
 +-----------+-----------------+-----------------+------------+-----+ <-- LBFGS
 | Parameter |      value      |    tolerance    |    units   | OK? | <-- LBFGS
 +-----------+-----------------+-----------------+------------+-----+ <-- LBFGS
 |  dE/ion   |   1.304251E-004 |   1.000000E-009 |         eV | No  | <-- LBFGS
 |  |F|max   |   2.323298E-003 |   1.000000E-005 |       eV/A | No  | <-- LBFGS
 |  |dR|max  |   2.557988E-003 |   1.000000E-005 |          A | No  | <-- LBFGS
 |   Smax    |   2.655750E+000 |   1.000000E-005 |        GPa | No  | <-- LBFGS
 +-----------+-----------------+-----------------+------------+-----+ <-- LBFGS
  

================================================================================
 Starting LBFGS iteration          3 ...
================================================================================
  
 +------------+-------------+-------------+-----------------+ <-- min LBFGS
 |    Step    |   lambda    |   F.delta'  |    enthalpy     | <-- min LBFGS
 +------------+-------------+-------------+-----------------+ <-- min LBFGS
 |  previous  |    0.000000 |    0.010484 |      -96.279095 | <-- min LBFGS
 +------------+-------------+-------------+-----------------+ <-- min LBFGS
  

--------------------------------------------------------------------------------
 LBFGS: starting iteration         3 with trial guess (lambda=  1.000000)
--------------------------------------------------------------------------------

                           -------------------------------
                                      Unit Cell
                           -------------------------------
        Real Lattice(A)              Reciprocal Lattice(1/A)
     1.6767031    -0.0000000     0.0000000        3.747345124   0.000000000   0.000000000
    -0.0000000     2.8803945     0.0000000        0.000000000   2.181362799   0.000000000
     0.0000000     0.0000000     2.6258658        0.000000000   0.000000000   2.392805209

                       Lattice parameters(A)       Cell Angles
                    a =      1.676703          alpha =   90.000000
                    b =      2.880394          beta  =   90.000000
                    c =      2.625866          gamma =   90.000000

                Current cell volume =            12.681793 A**3

                           -------------------------------
                                     Cell Contents
                           -------------------------------

            xxxxxxxxxxxxxxxxxxxxxxxxxxxxxxxxxxxxxxxxxxxxxxxxxxxxxxxxxxxxxxxxx
            x  Element         Atom        Fractional coordinates of atoms  x
            x                 Number           u          v          w      x
            x---------------------------------------------------------------x
            x  H                 1        -0.000000   0.375760   0.442885   x
            x  H                 2         0.000000   0.124240   0.942885   x
            x  H                 3        -0.000000   0.875760   0.057115   x
            x  H                 4         0.000000   0.624240   0.557115   x
            x  H                 5         0.500000   0.875760   0.442885   x
            x  H                 6         0.500000   0.624240   0.942885   x
            x  H                 7         0.500000   0.375760   0.057115   x
            x  H                 8         0.500000   0.124240   0.557115   x
            xxxxxxxxxxxxxxxxxxxxxxxxxxxxxxxxxxxxxxxxxxxxxxxxxxxxxxxxxxxxxxxxx


------------------------------------------------------------------------ <-- SCF
SCF loop      Energy                           Energy gain       Timer   <-- SCF
                                               per atom          (sec)   <-- SCF
------------------------------------------------------------------------ <-- SCF
Initial  -1.15275775E+002                                         22.22  <-- SCF
      1  -1.15276246E+002                    5.88865813E-005      22.45  <-- SCF
      2  -1.15276248E+002                    2.18731321E-007      22.82  <-- SCF
      3  -1.15276225E+002                   -2.81428332E-006      23.20  <-- SCF
      4  -1.15276224E+002                   -1.41860512E-007      23.59  <-- SCF
      5  -1.15276224E+002                    3.50480457E-010      23.93  <-- SCF
      6  -1.15276224E+002                    2.62047675E-011      24.22  <-- SCF
      7  -1.15276224E+002                    7.25056975E-014      24.52  <-- SCF
      8  -1.15276224E+002                   -9.36531926E-014      24.82  <-- SCF
------------------------------------------------------------------------ <-- SCF
 
Final energy =  -115.2762239422     eV
(energy not corrected for finite basis set)
 

 ******************************** Symmetrised Forces ********************************
 *                                                                                  *
 *                           Cartesian components (eV/A)                            *
 * -------------------------------------------------------------------------------- *
 *                         x                    y                    z              *
 *                                                                                  *
 * H               1     -0.00000             -0.00047              0.00109         *
 * H               2     -0.00000              0.00047              0.00109         *
 * H               3      0.00000             -0.00047             -0.00109         *
 * H               4      0.00000              0.00047             -0.00109         *
 * H               5     -0.00000             -0.00047              0.00109         *
 * H               6      0.00000              0.00047              0.00109         *
 * H               7      0.00000             -0.00047             -0.00109         *
 * H               8      0.00000              0.00047             -0.00109         *
 *                                                                                  *
 ************************************************************************************

 *********** Symmetrised Stress Tensor ***********
 *                                               *
 *          Cartesian components (GPa)           *
 * --------------------------------------------- *
 *             x             y             z     *
 *                                               *
 *  x   -240.541912     -0.000000      0.000000  *
 *  y     -0.000000   -240.352081      0.000000  *
 *  z      0.000000      0.000000   -240.463186  *
 *                                               *
 *  Pressure:  240.4524                          *
 *                                               *
 *************************************************
  
 +------------+-------------+-------------+-----------------+ <-- min LBFGS
 |    Step    |   lambda    |   F.delta'  |    enthalpy     | <-- min LBFGS
 +------------+-------------+-------------+-----------------+ <-- min LBFGS
 |  previous  |    0.000000 |    0.010484 |      -96.279095 | <-- min LBFGS
 | trial step |    1.000000 |   -0.002108 |      -96.279377 | <-- min LBFGS
 +------------+-------------+-------------+-----------------+ <-- min LBFGS
  
 LBFGS: finished iteration     3 with enthalpy= -9.62793773E+001 eV
  
 +-----------+-----------------+-----------------+------------+-----+ <-- LBFGS
 | Parameter |      value      |    tolerance    |    units   | OK? | <-- LBFGS
 +-----------+-----------------+-----------------+------------+-----+ <-- LBFGS
 |  dE/ion   |   3.530317E-005 |   1.000000E-009 |         eV | No  | <-- LBFGS
 |  |F|max   |   1.191409E-003 |   1.000000E-005 |       eV/A | No  | <-- LBFGS
 |  |dR|max  |   6.358555E-004 |   1.000000E-005 |          A | No  | <-- LBFGS
 |   Smax    |   5.419118E-001 |   1.000000E-005 |        GPa | No  | <-- LBFGS
 +-----------+-----------------+-----------------+------------+-----+ <-- LBFGS
  

================================================================================
 Starting LBFGS iteration          4 ...
================================================================================
  
 +------------+-------------+-------------+-----------------+ <-- min LBFGS
 |    Step    |   lambda    |   F.delta'  |    enthalpy     | <-- min LBFGS
 +------------+-------------+-------------+-----------------+ <-- min LBFGS
 |  previous  |    0.000000 |    0.002259 |      -96.279377 | <-- min LBFGS
 +------------+-------------+-------------+-----------------+ <-- min LBFGS
  

--------------------------------------------------------------------------------
 LBFGS: starting iteration         4 with trial guess (lambda=  1.000000)
--------------------------------------------------------------------------------

                           -------------------------------
                                      Unit Cell
                           -------------------------------
        Real Lattice(A)              Reciprocal Lattice(1/A)
     1.6772170    -0.0000000     0.0000000        3.746196913   0.000000000   0.000000000
    -0.0000000     2.8808978     0.0000000        0.000000000   2.180981675   0.000000000
     0.0000000     0.0000000     2.6265529        0.000000000   0.000000000   2.392179240

                       Lattice parameters(A)       Cell Angles
                    a =      1.677217          alpha =   90.000000
                    b =      2.880898          beta  =   90.000000
                    c =      2.626553          gamma =   90.000000

                Current cell volume =            12.691217 A**3

                           -------------------------------
                                     Cell Contents
                           -------------------------------

            xxxxxxxxxxxxxxxxxxxxxxxxxxxxxxxxxxxxxxxxxxxxxxxxxxxxxxxxxxxxxxxxx
            x  Element         Atom        Fractional coordinates of atoms  x
            x                 Number           u          v          w      x
            x---------------------------------------------------------------x
            x  H                 1         0.000000   0.375775   0.442934   x
            x  H                 2         0.000000   0.124225   0.942934   x
            x  H                 3        -0.000000   0.875775   0.057066   x
            x  H                 4        -0.000000   0.624225   0.557066   x
            x  H                 5         0.500000   0.875775   0.442934   x
            x  H                 6         0.500000   0.624225   0.942934   x
            x  H                 7         0.500000   0.375775   0.057066   x
            x  H                 8         0.500000   0.124225   0.557066   x
            xxxxxxxxxxxxxxxxxxxxxxxxxxxxxxxxxxxxxxxxxxxxxxxxxxxxxxxxxxxxxxxxx


------------------------------------------------------------------------ <-- SCF
SCF loop      Energy                           Energy gain       Timer   <-- SCF
                                               per atom          (sec)   <-- SCF
------------------------------------------------------------------------ <-- SCF
Initial  -1.15290262E+002                                         25.57  <-- SCF
      1  -1.15290362E+002                    1.24622089E-005      25.82  <-- SCF
      2  -1.15290362E+002                    2.44538244E-008      26.21  <-- SCF
      3  -1.15290362E+002                   -6.60739980E-008      26.59  <-- SCF
      4  -1.15290362E+002                   -3.16296740E-009      26.97  <-- SCF
      5  -1.15290362E+002                    1.42111167E-011      27.27  <-- SCF
      6  -1.15290362E+002                    1.22051257E-012      27.56  <-- SCF
      7  -1.15290362E+002                    0.00000000E+000      27.86  <-- SCF
------------------------------------------------------------------------ <-- SCF
 
Final energy =  -115.2903616272     eV
(energy not corrected for finite basis set)
 

 ******************************** Symmetrised Forces ********************************
 *                                                                                  *
 *                           Cartesian components (eV/A)                            *
 * -------------------------------------------------------------------------------- *
 *                         x                    y                    z              *
 *                                                                                  *
 * H               1     -0.00000             -0.00060              0.00081         *
 * H               2     -0.00000              0.00060              0.00081         *
 * H               3     -0.00000             -0.00060             -0.00081         *
 * H               4      0.00000              0.00060             -0.00081         *
 * H               5     -0.00000             -0.00060              0.00081         *
 * H               6     -0.00000              0.00060              0.00081         *
 * H               7      0.00000             -0.00060             -0.00081         *
 * H               8      0.00000              0.00060             -0.00081         *
 *                                                                                  *
 ************************************************************************************

 *********** Symmetrised Stress Tensor ***********
 *                                               *
 *          Cartesian components (GPa)           *
 * --------------------------------------------- *
 *             x             y             z     *
 *                                               *
 *  x   -240.079213      0.000000      0.000000  *
 *  y      0.000000   -239.942960      0.000000  *
 *  z      0.000000      0.000000   -240.020073  *
 *                                               *
 *  Pressure:  240.0141                          *
 *                                               *
 *************************************************
  
 +------------+-------------+-------------+-----------------+ <-- min LBFGS
 |    Step    |   lambda    |   F.delta'  |    enthalpy     | <-- min LBFGS
 +------------+-------------+-------------+-----------------+ <-- min LBFGS
 |  previous  |    0.000000 |    0.002259 |      -96.279377 | <-- min LBFGS
 | trial step |    1.000000 |    0.000173 |      -96.279394 | <-- min LBFGS
 +------------+-------------+-------------+-----------------+ <-- min LBFGS
  
 LBFGS: finished iteration     4 with enthalpy= -9.62793943E+001 eV
  
 +-----------+-----------------+-----------------+------------+-----+ <-- LBFGS
 | Parameter |      value      |    tolerance    |    units   | OK? | <-- LBFGS
 +-----------+-----------------+-----------------+------------+-----+ <-- LBFGS
 |  dE/ion   |   2.130837E-006 |   1.000000E-009 |         eV | No  | <-- LBFGS
 |  |F|max   |   1.009017E-003 |   1.000000E-005 |       eV/A | No  | <-- LBFGS
 |  |dR|max  |   1.365125E-004 |   1.000000E-005 |          A | No  | <-- LBFGS
 |   Smax    |   7.921321E-002 |   1.000000E-005 |        GPa | No  | <-- LBFGS
 +-----------+-----------------+-----------------+------------+-----+ <-- LBFGS
  

================================================================================
 Starting LBFGS iteration          5 ...
================================================================================
  
 +------------+-------------+-------------+-----------------+ <-- min LBFGS
 |    Step    |   lambda    |   F.delta'  |    enthalpy     | <-- min LBFGS
 +------------+-------------+-------------+-----------------+ <-- min LBFGS
 |  previous  |    0.000000 |    0.000393 |      -96.279394 | <-- min LBFGS
 +------------+-------------+-------------+-----------------+ <-- min LBFGS
  

--------------------------------------------------------------------------------
 LBFGS: starting iteration         5 with trial guess (lambda=  1.000000)
--------------------------------------------------------------------------------

                           -------------------------------
                                      Unit Cell
                           -------------------------------
        Real Lattice(A)              Reciprocal Lattice(1/A)
     1.6773323    -0.0000000     0.0000000        3.745939465   0.000000000   0.000000000
    -0.0000000     2.8807807     0.0000000        0.000000000   2.181070306   0.000000000
     0.0000000     0.0000000     2.6266145        0.000000000   0.000000000   2.392123139

                       Lattice parameters(A)       Cell Angles
                    a =      1.677332          alpha =   90.000000
                    b =      2.880781          beta  =   90.000000
                    c =      2.626614          gamma =   90.000000

                Current cell volume =            12.691871 A**3

                           -------------------------------
                                     Cell Contents
                           -------------------------------

            xxxxxxxxxxxxxxxxxxxxxxxxxxxxxxxxxxxxxxxxxxxxxxxxxxxxxxxxxxxxxxxxx
            x  Element         Atom        Fractional coordinates of atoms  x
            x                 Number           u          v          w      x
            x---------------------------------------------------------------x
            x  H                 1         0.000000   0.375756   0.442971   x
            x  H                 2         0.000000   0.124244   0.942971   x
            x  H                 3        -0.000000   0.875756   0.057029   x
            x  H                 4         0.000000   0.624244   0.557029   x
            x  H                 5         0.500000   0.875756   0.442971   x
            x  H                 6         0.500000   0.624244   0.942971   x
            x  H                 7         0.500000   0.375756   0.057029   x
            x  H                 8         0.500000   0.124244   0.557029   x
            xxxxxxxxxxxxxxxxxxxxxxxxxxxxxxxxxxxxxxxxxxxxxxxxxxxxxxxxxxxxxxxxx


------------------------------------------------------------------------ <-- SCF
SCF loop      Energy                           Energy gain       Timer   <-- SCF
                                               per atom          (sec)   <-- SCF
------------------------------------------------------------------------ <-- SCF
Initial  -1.15291330E+002                                         28.57  <-- SCF
      1  -1.15291340E+002                    1.28561651E-006      28.81  <-- SCF
      2  -1.15291340E+002                    3.29023907E-009      29.20  <-- SCF
      3  -1.15291340E+002                    5.72762685E-009      29.58  <-- SCF
      4  -1.15291340E+002                    3.84721273E-010      29.91  <-- SCF
      5  -1.15291340E+002                    4.50743753E-012      30.21  <-- SCF
      6  -1.15291340E+002                    7.94541602E-013      30.50  <-- SCF
------------------------------------------------------------------------ <-- SCF
 
Final energy =  -115.2913402992     eV
(energy not corrected for finite basis set)
 

 ******************************** Symmetrised Forces ********************************
 *                                                                                  *
 *                           Cartesian components (eV/A)                            *
 * -------------------------------------------------------------------------------- *
 *                         x                    y                    z              *
 *                                                                                  *
 * H               1      0.00000             -0.00037              0.00061         *
 * H               2      0.00000              0.00037              0.00061         *
 * H               3      0.00000             -0.00037             -0.00061         *
 * H               4      0.00000              0.00037             -0.00061         *
 * H               5      0.00000             -0.00037              0.00061         *
 * H               6      0.00000              0.00037              0.00061         *
 * H               7      0.00000             -0.00037             -0.00061         *
 * H               8      0.00000              0.00037             -0.00061         *
 *                                                                                  *
 ************************************************************************************

 *********** Symmetrised Stress Tensor ***********
 *                                               *
 *          Cartesian components (GPa)           *
 * --------------------------------------------- *
 *             x             y             z     *
 *                                               *
 *  x   -240.017778     -0.000000      0.000000  *
 *  y     -0.000000   -239.959403      0.000000  *
 *  z      0.000000      0.000000   -239.983360  *
 *                                               *
 *  Pressure:  239.9868                          *
 *                                               *
 *************************************************
  
 +------------+-------------+-------------+-----------------+ <-- min LBFGS
 |    Step    |   lambda    |   F.delta'  |    enthalpy     | <-- min LBFGS
 +------------+-------------+-------------+-----------------+ <-- min LBFGS
 |  previous  |    0.000000 |    0.000393 |      -96.279394 | <-- min LBFGS
 | trial step |    1.000000 |    0.000212 |      -96.279394 | <-- min LBFGS
 +------------+-------------+-------------+-----------------+ <-- min LBFGS
  

--------------------------------------------------------------------------------
 LBFGS: improving iteration         5 with line minimization (lambda=  2.170192)
--------------------------------------------------------------------------------

                           -------------------------------
                                      Unit Cell
                           -------------------------------
        Real Lattice(A)              Reciprocal Lattice(1/A)
     1.6774672    -0.0000000     0.0000000        3.745638246   0.000000000   0.000000000
    -0.0000000     2.8806437     0.0000000        0.000000000   2.181174029   0.000000000
     0.0000000     0.0000000     2.6266866        0.000000000   0.000000000   2.392057493

                       Lattice parameters(A)       Cell Angles
                    a =      1.677467          alpha =   90.000000
                    b =      2.880644          beta  =   90.000000
                    c =      2.626687          gamma =   90.000000

                Current cell volume =            12.692636 A**3

                           -------------------------------
                                     Cell Contents
                           -------------------------------

            xxxxxxxxxxxxxxxxxxxxxxxxxxxxxxxxxxxxxxxxxxxxxxxxxxxxxxxxxxxxxxxxx
            x  Element         Atom        Fractional coordinates of atoms  x
            x                 Number           u          v          w      x
            x---------------------------------------------------------------x
            x  H                 1         0.000000   0.375734   0.443015   x
            x  H                 2         0.000000   0.124266   0.943015   x
            x  H                 3        -0.000000   0.875734   0.056985   x
            x  H                 4         0.000000   0.624266   0.556985   x
            x  H                 5         0.500000   0.875734   0.443015   x
            x  H                 6         0.500000   0.624266   0.943015   x
            x  H                 7         0.500000   0.375734   0.056985   x
            x  H                 8         0.500000   0.124266   0.556985   x
            xxxxxxxxxxxxxxxxxxxxxxxxxxxxxxxxxxxxxxxxxxxxxxxxxxxxxxxxxxxxxxxxx


------------------------------------------------------------------------ <-- SCF
SCF loop      Energy                           Energy gain       Timer   <-- SCF
                                               per atom          (sec)   <-- SCF
------------------------------------------------------------------------ <-- SCF
Initial  -1.15292469E+002                                         31.19  <-- SCF
      1  -1.15292485E+002                    2.02709229E-006      31.42  <-- SCF
      2  -1.15292485E+002                    6.70998238E-009      31.80  <-- SCF
      3  -1.15292486E+002                    7.87259915E-009      32.18  <-- SCF
      4  -1.15292486E+002                    5.30074049E-010      32.55  <-- SCF
      5  -1.15292486E+002                    5.70982368E-012      32.84  <-- SCF
      6  -1.15292486E+002                    3.92739195E-013      33.13  <-- SCF
------------------------------------------------------------------------ <-- SCF
 
Final energy =  -115.2924855581     eV
(energy not corrected for finite basis set)
 

 ******************************** Symmetrised Forces ********************************
 *                                                                                  *
 *                           Cartesian components (eV/A)                            *
 * -------------------------------------------------------------------------------- *
 *                         x                    y                    z              *
 *                                                                                  *
 * H               1      0.00000             -0.00011              0.00037         *
 * H               2      0.00000              0.00011              0.00037         *
 * H               3      0.00000             -0.00011             -0.00037         *
 * H               4      0.00000              0.00011             -0.00037         *
 * H               5      0.00000             -0.00011              0.00037         *
 * H               6      0.00000              0.00011              0.00037         *
 * H               7      0.00000             -0.00011             -0.00037         *
 * H               8      0.00000              0.00011             -0.00037         *
 *                                                                                  *
 ************************************************************************************

 *********** Symmetrised Stress Tensor ***********
 *                                               *
 *          Cartesian components (GPa)           *
 * --------------------------------------------- *
 *             x             y             z     *
 *                                               *
 *  x   -239.946487      0.000000      0.000000  *
 *  y      0.000000   -239.978102      0.000000  *
 *  z      0.000000      0.000000   -239.940619  *
 *                                               *
 *  Pressure:  239.9551                          *
 *                                               *
 *************************************************
  
 +------------+-------------+-------------+-----------------+ <-- min LBFGS
 |    Step    |   lambda    |   F.delta'  |    enthalpy     | <-- min LBFGS
 +------------+-------------+-------------+-----------------+ <-- min LBFGS
 |  previous  |    0.000000 |    0.000393 |      -96.279394 | <-- min LBFGS
 | trial step |    1.000000 |    0.000212 |      -96.279394 | <-- min LBFGS
 |  line step |    2.170192 |  1.289E-006 |      -96.279392 | <-- min LBFGS
 +------------+-------------+-------------+-----------------+ <-- min LBFGS
  
 LBFGS: finished iteration     5 with enthalpy= -9.62793923E+001 eV
  
 +-----------+-----------------+-----------------+------------+-----+ <-- LBFGS
 | Parameter |      value      |    tolerance    |    units   | OK? | <-- LBFGS
 +-----------+-----------------+-----------------+------------+-----+ <-- LBFGS
 |  dE/ion   |   2.566649E-007 |   1.000000E-009 |         eV | No  | <-- LBFGS
 |  |F|max   |   3.892783E-004 |   1.000000E-005 |       eV/A | No  | <-- LBFGS
 |  |dR|max  |   2.404805E-004 |   1.000000E-005 |          A | No  | <-- LBFGS
 |   Smax    |   5.938131E-002 |   1.000000E-005 |        GPa | No  | <-- LBFGS
 +-----------+-----------------+-----------------+------------+-----+ <-- LBFGS
  

================================================================================
 Starting LBFGS iteration          6 ...
================================================================================
  
 +------------+-------------+-------------+-----------------+ <-- min LBFGS
 |    Step    |   lambda    |   F.delta'  |    enthalpy     | <-- min LBFGS
 +------------+-------------+-------------+-----------------+ <-- min LBFGS
 |  previous  |    0.000000 |    0.000203 |      -96.279392 | <-- min LBFGS
 +------------+-------------+-------------+-----------------+ <-- min LBFGS
  

--------------------------------------------------------------------------------
 LBFGS: starting iteration         6 with trial guess (lambda=  1.000000)
--------------------------------------------------------------------------------

                           -------------------------------
                                      Unit Cell
                           -------------------------------
        Real Lattice(A)              Reciprocal Lattice(1/A)
     1.6774424    -0.0000000     0.0000000        3.745693724   0.000000000   0.000000000
    -0.0000000     2.8806030     0.0000000        0.000000000   2.181204904   0.000000000
     0.0000000     0.0000000     2.6266124        0.000000000   0.000000000   2.392125032

                       Lattice parameters(A)       Cell Angles
                    a =      1.677442          alpha =   90.000000
                    b =      2.880603          beta  =   90.000000
                    c =      2.626612          gamma =   90.000000

                Current cell volume =            12.691910 A**3

                           -------------------------------
                                     Cell Contents
                           -------------------------------

            xxxxxxxxxxxxxxxxxxxxxxxxxxxxxxxxxxxxxxxxxxxxxxxxxxxxxxxxxxxxxxxxx
            x  Element         Atom        Fractional coordinates of atoms  x
            x                 Number           u          v          w      x
            x---------------------------------------------------------------x
            x  H                 1         0.000000   0.375724   0.443035   x
            x  H                 2         0.000000   0.124276   0.943035   x
            x  H                 3        -0.000000   0.875724   0.056965   x
            x  H                 4         0.000000   0.624276   0.556965   x
            x  H                 5         0.500000   0.875724   0.443035   x
            x  H                 6         0.500000   0.624276   0.943035   x
            x  H                 7         0.500000   0.375724   0.056965   x
            x  H                 8         0.500000   0.124276   0.556965   x
            xxxxxxxxxxxxxxxxxxxxxxxxxxxxxxxxxxxxxxxxxxxxxxxxxxxxxxxxxxxxxxxxx


------------------------------------------------------------------------ <-- SCF
SCF loop      Energy                           Energy gain       Timer   <-- SCF
                                               per atom          (sec)   <-- SCF
------------------------------------------------------------------------ <-- SCF
Initial  -1.15291398E+002                                         33.84  <-- SCF
      1  -1.15291400E+002                    1.89854154E-007      34.08  <-- SCF
      2  -1.15291400E+002                    7.15507371E-010      34.46  <-- SCF
      3  -1.15291400E+002                    3.45879367E-010      34.84  <-- SCF
      4  -1.15291400E+002                    4.30804686E-011      35.14  <-- SCF
      5  -1.15291400E+002                    1.18425973E-012      35.43  <-- SCF
      6  -1.15291400E+002                    6.04214146E-015      35.72  <-- SCF
------------------------------------------------------------------------ <-- SCF
 
Final energy =  -115.2913995610     eV
(energy not corrected for finite basis set)
 

 ******************************** Symmetrised Forces ********************************
 *                                                                                  *
 *                           Cartesian components (eV/A)                            *
 * -------------------------------------------------------------------------------- *
 *                         x                    y                    z              *
 *                                                                                  *
 * H               1      0.00000             -0.00005              0.00022         *
 * H               2      0.00000              0.00005              0.00022         *
 * H               3      0.00000             -0.00005             -0.00022         *
 * H               4      0.00000              0.00005             -0.00022         *
 * H               5      0.00000             -0.00005              0.00022         *
 * H               6      0.00000              0.00005              0.00022         *
 * H               7      0.00000             -0.00005             -0.00022         *
 * H               8      0.00000              0.00005             -0.00022         *
 *                                                                                  *
 ************************************************************************************

 *********** Symmetrised Stress Tensor ***********
 *                                               *
 *          Cartesian components (GPa)           *
 * --------------------------------------------- *
 *             x             y             z     *
 *                                               *
 *  x   -239.976636      0.000000      0.000000  *
 *  y      0.000000   -240.011208      0.000000  *
 *  z      0.000000      0.000000   -239.982815  *
 *                                               *
 *  Pressure:  239.9902                          *
 *                                               *
 *************************************************
  
 +------------+-------------+-------------+-----------------+ <-- min LBFGS
 |    Step    |   lambda    |   F.delta'  |    enthalpy     | <-- min LBFGS
 +------------+-------------+-------------+-----------------+ <-- min LBFGS
 |  previous  |    0.000000 |    0.000203 |      -96.279392 | <-- min LBFGS
 | trial step |    1.000000 |    0.000080 |      -96.279394 | <-- min LBFGS
 +------------+-------------+-------------+-----------------+ <-- min LBFGS
  

--------------------------------------------------------------------------------
 LBFGS: improving iteration         6 with line minimization (lambda=  1.653610)
--------------------------------------------------------------------------------

                           -------------------------------
                                      Unit Cell
                           -------------------------------
        Real Lattice(A)              Reciprocal Lattice(1/A)
     1.6774261    -0.0000000     0.0000000        3.745729986   0.000000000   0.000000000
    -0.0000000     2.8805763     0.0000000        0.000000000   2.181225084   0.000000000
[...]
            x  H                 2         0.000000   0.124287   0.943066   x
            x  H                 3        -0.000000   0.875713   0.056934   x
            x  H                 4         0.000000   0.624287   0.556934   x
            x  H                 5         0.500000   0.875713   0.443066   x
            x  H                 6         0.500000   0.624287   0.943066   x
            x  H                 7         0.500000   0.375713   0.056934   x
            x  H                 8         0.500000   0.124287   0.556934   x
            xxxxxxxxxxxxxxxxxxxxxxxxxxxxxxxxxxxxxxxxxxxxxxxxxxxxxxxxxxxxxxxxx


------------------------------------------------------------------------ <-- SCF
SCF loop      Energy                           Energy gain       Timer   <-- SCF
                                               per atom          (sec)   <-- SCF
------------------------------------------------------------------------ <-- SCF
Initial  -1.15291092E+002                                         46.21  <-- SCF
      1  -1.15291092E+002                    2.02124737E-010      46.44  <-- SCF
      2  -1.15291092E+002                    1.44105074E-012      46.73  <-- SCF
      3  -1.15291092E+002                    2.90022790E-012      47.01  <-- SCF
      4  -1.15291092E+002                    1.90327456E-013      47.30  <-- SCF
------------------------------------------------------------------------ <-- SCF
 
Final energy =  -115.2910924806     eV
(energy not corrected for finite basis set)
 

 ******************************** Symmetrised Forces ********************************
 *                                                                                  *
 *                           Cartesian components (eV/A)                            *
 * -------------------------------------------------------------------------------- *
 *                         x                    y                    z              *
 *                                                                                  *
 * H               1      0.00000             -0.00001             -0.00000         *
 * H               2      0.00000              0.00001             -0.00000         *
 * H               3      0.00000             -0.00001              0.00000         *
 * H               4      0.00000              0.00001              0.00000         *
 * H               5      0.00000             -0.00001             -0.00000         *
 * H               6      0.00000              0.00001             -0.00000         *
 * H               7      0.00000             -0.00001              0.00000         *
 * H               8      0.00000              0.00001              0.00000         *
 *                                                                                  *
 ************************************************************************************

 *********** Symmetrised Stress Tensor ***********
 *                                               *
 *          Cartesian components (GPa)           *
 * --------------------------------------------- *
 *             x             y             z     *
 *                                               *
 *  x   -239.999839      0.000000      0.000000  *
 *  y      0.000000   -239.999821      0.000000  *
 *  z      0.000000      0.000000   -239.999846  *
 *                                               *
 *  Pressure:  239.9998                          *
 *                                               *
 *************************************************
  
 +------------+-------------+-------------+-----------------+ <-- min LBFGS
 |    Step    |   lambda    |   F.delta'  |    enthalpy     | <-- min LBFGS
 +------------+-------------+-------------+-----------------+ <-- min LBFGS
 |  previous  |    0.000000 |    0.000019 |      -96.279396 | <-- min LBFGS
 | trial step |    1.000000 |  8.097E-006 |      -96.279395 | <-- min LBFGS
 |  line step |    1.716545 |  7.634E-008 |      -96.279395 | <-- min LBFGS
 +------------+-------------+-------------+-----------------+ <-- min LBFGS
  
 LBFGS: finished iteration     8 with enthalpy= -9.62793948E+001 eV
  
 +-----------+-----------------+-----------------+------------+-----+ <-- LBFGS
 | Parameter |      value      |    tolerance    |    units   | OK? | <-- LBFGS
 +-----------+-----------------+-----------------+------------+-----+ <-- LBFGS
 |  dE/ion   |   8.851245E-008 |   1.000000E-009 |         eV | No  | <-- LBFGS
 |  |F|max   |   6.183662E-006 |   1.000000E-005 |       eV/A | Yes | <-- LBFGS
 |  |dR|max  |   1.642245E-006 |   1.000000E-005 |          A | Yes | <-- LBFGS
 |   Smax    |   1.789263E-004 |   1.000000E-005 |        GPa | No  | <-- LBFGS
 +-----------+-----------------+-----------------+------------+-----+ <-- LBFGS
  

================================================================================
 Starting LBFGS iteration          9 ...
================================================================================
  
 +------------+-------------+-------------+-----------------+ <-- min LBFGS
 |    Step    |   lambda    |   F.delta'  |    enthalpy     | <-- min LBFGS
 +------------+-------------+-------------+-----------------+ <-- min LBFGS
 |  previous  |    0.000000 |  1.323E-006 |      -96.279395 | <-- min LBFGS
 +------------+-------------+-------------+-----------------+ <-- min LBFGS
  

--------------------------------------------------------------------------------
 LBFGS: starting iteration         9 with trial guess (lambda=  1.000000)
--------------------------------------------------------------------------------

                           -------------------------------
                                      Unit Cell
                           -------------------------------
        Real Lattice(A)              Reciprocal Lattice(1/A)
     1.6773981    -0.0000000     0.0000000        3.745792574   0.000000000   0.000000000
    -0.0000000     2.8806648     0.0000000        0.000000000   2.181158112   0.000000000
     0.0000000     0.0000000     2.6265819        0.000000000   0.000000000   2.392152860

                       Lattice parameters(A)       Cell Angles
                    a =      1.677398          alpha =   90.000000
                    b =      2.880665          beta  =   90.000000
                    c =      2.626582          gamma =   90.000000

                Current cell volume =            12.691700 A**3

                           -------------------------------
                                     Cell Contents
                           -------------------------------

            xxxxxxxxxxxxxxxxxxxxxxxxxxxxxxxxxxxxxxxxxxxxxxxxxxxxxxxxxxxxxxxxx
            x  Element         Atom        Fractional coordinates of atoms  x
            x                 Number           u          v          w      x
            x---------------------------------------------------------------x
            x  H                 1         0.000000   0.375713   0.443066   x
            x  H                 2         0.000000   0.124287   0.943066   x
            x  H                 3        -0.000000   0.875713   0.056934   x
            x  H                 4         0.000000   0.624287   0.556934   x
            x  H                 5         0.500000   0.875713   0.443066   x
            x  H                 6         0.500000   0.624287   0.943066   x
            x  H                 7         0.500000   0.375713   0.056934   x
            x  H                 8         0.500000   0.124287   0.556934   x
            xxxxxxxxxxxxxxxxxxxxxxxxxxxxxxxxxxxxxxxxxxxxxxxxxxxxxxxxxxxxxxxxx


------------------------------------------------------------------------ <-- SCF
SCF loop      Energy                           Energy gain       Timer   <-- SCF
                                               per atom          (sec)   <-- SCF
------------------------------------------------------------------------ <-- SCF
Initial  -1.15291085E+002                                         48.02  <-- SCF
      1  -1.15291085E+002                    2.06852713E-011      48.22  <-- SCF
      2  -1.15291085E+002                    3.08149214E-013      48.50  <-- SCF
      3  -1.15291085E+002                   -3.23254568E-013      48.79  <-- SCF
      4  -1.15291085E+002                   -3.14191356E-013      49.07  <-- SCF
------------------------------------------------------------------------ <-- SCF
 
Final energy =  -115.2910851571     eV
(energy not corrected for finite basis set)
 

 ******************************** Symmetrised Forces ********************************
 *                                                                                  *
 *                           Cartesian components (eV/A)                            *
 * -------------------------------------------------------------------------------- *
 *                         x                    y                    z              *
 *                                                                                  *
 * H               1      0.00000             -0.00000             -0.00000         *
 * H               2      0.00000              0.00000             -0.00000         *
 * H               3      0.00000             -0.00000              0.00000         *
 * H               4     -0.00000              0.00000              0.00000         *
 * H               5      0.00000             -0.00000             -0.00000         *
 * H               6      0.00000              0.00000             -0.00000         *
 * H               7      0.00000             -0.00000              0.00000         *
 * H               8     -0.00000              0.00000              0.00000         *
 *                                                                                  *
 ************************************************************************************

 *********** Symmetrised Stress Tensor ***********
 *                                               *
 *          Cartesian components (GPa)           *
 * --------------------------------------------- *
 *             x             y             z     *
 *                                               *
 *  x   -239.999995      0.000000      0.000000  *
 *  y      0.000000   -240.000001      0.000000  *
 *  z      0.000000      0.000000   -240.000007  *
 *                                               *
 *  Pressure:  240.0000                          *
 *                                               *
 *************************************************
  
 +------------+-------------+-------------+-----------------+ <-- min LBFGS
 |    Step    |   lambda    |   F.delta'  |    enthalpy     | <-- min LBFGS
 +------------+-------------+-------------+-----------------+ <-- min LBFGS
 |  previous  |    0.000000 |  1.323E-006 |      -96.279395 | <-- min LBFGS
 | trial step |    1.000000 | -2.780E-008 |      -96.279395 | <-- min LBFGS
 +------------+-------------+-------------+-----------------+ <-- min LBFGS
  
 LBFGS: finished iteration     9 with enthalpy= -9.62793948E+001 eV
  
 +-----------+-----------------+-----------------+------------+-----+ <-- LBFGS
 | Parameter |      value      |    tolerance    |    units   | OK? | <-- LBFGS
 +-----------+-----------------+-----------------+------------+-----+ <-- LBFGS
 |  dE/ion   |   1.327761E-012 |   1.000000E-009 |         eV | Yes | <-- LBFGS
 |  |F|max   |   2.962810E-007 |   1.000000E-005 |       eV/A | Yes | <-- LBFGS
 |  |dR|max  |   5.602660E-007 |   1.000000E-005 |          A | Yes | <-- LBFGS
 |   Smax    |   6.553504E-006 |   1.000000E-005 |        GPa | Yes | <-- LBFGS
 +-----------+-----------------+-----------------+------------+-----+ <-- LBFGS
  
 LBFGS: Geometry optimization completed successfully.

================================================================================
 LBFGS: Final Configuration:
================================================================================

                           -------------------------------
                                      Unit Cell
                           -------------------------------
        Real Lattice(A)              Reciprocal Lattice(1/A)
     1.6773981    -0.0000000     0.0000000        3.745792574   0.000000000   0.000000000
    -0.0000000     2.8806648     0.0000000        0.000000000   2.181158112   0.000000000
     0.0000000     0.0000000     2.6265819        0.000000000   0.000000000   2.392152860

                       Lattice parameters(A)       Cell Angles
                    a =      1.677398          alpha =   90.000000
                    b =      2.880665          beta  =   90.000000
                    c =      2.626582          gamma =   90.000000

                Current cell volume =            12.691700 A**3

                           -------------------------------
                                     Cell Contents
                           -------------------------------

            xxxxxxxxxxxxxxxxxxxxxxxxxxxxxxxxxxxxxxxxxxxxxxxxxxxxxxxxxxxxxxxxx
            x  Element         Atom        Fractional coordinates of atoms  x
            x                 Number           u          v          w      x
            x---------------------------------------------------------------x
            x  H                 1         0.000000   0.375713   0.443066   x
            x  H                 2         0.000000   0.124287   0.943066   x
            x  H                 3        -0.000000   0.875713   0.056934   x
            x  H                 4         0.000000   0.624287   0.556934   x
            x  H                 5         0.500000   0.875713   0.443066   x
            x  H                 6         0.500000   0.624287   0.943066   x
            x  H                 7         0.500000   0.375713   0.056934   x
            x  H                 8         0.500000   0.124287   0.556934   x
            xxxxxxxxxxxxxxxxxxxxxxxxxxxxxxxxxxxxxxxxxxxxxxxxxxxxxxxxxxxxxxxxx


 LBFGS: Final Enthalpy     = -9.62793948E+001 eV
 LBFGS: Final <frequency>  =     828.98218 cm-1
 LBFGS: Final bulk modulus =     600.27125 GPa

 ******************************** Symmetrised Forces ********************************
 *                                                                                  *
 *                           Cartesian components (eV/A)                            *
 * -------------------------------------------------------------------------------- *
 *                         x                    y                    z              *
 *                                                                                  *
 * H               1      0.00000             -0.00000             -0.00000         *
 * H               2      0.00000              0.00000             -0.00000         *
 * H               3      0.00000             -0.00000              0.00000         *
 * H               4     -0.00000              0.00000              0.00000         *
 * H               5      0.00000             -0.00000             -0.00000         *
 * H               6      0.00000              0.00000             -0.00000         *
 * H               7      0.00000             -0.00000              0.00000         *
 * H               8     -0.00000              0.00000              0.00000         *
 *                                                                                  *
 ************************************************************************************

 *********** Symmetrised Stress Tensor ***********
 *                                               *
 *          Cartesian components (GPa)           *
 * --------------------------------------------- *
 *             x             y             z     *
 *                                               *
 *  x   -239.999995      0.000000      0.000000  *
 *  y      0.000000   -240.000001      0.000000  *
 *  z      0.000000      0.000000   -240.000007  *
 *                                               *
 *  Pressure:  240.0000                          *
 *                                               *
 *************************************************

 Pseudo atomic calculation performed for H 1s1

 Converged in 24 iterations to a total energy of -12.4843 eV

Charge spilling parameter for spin component 1 = 0.62%

            Orbital Populations       
     Ion    Atom   Orbital             Charge
  -------------------------------------------
      H     1      S                    0.998
      H     2      S                    1.002
      H     3      S                    1.002
      H     4      S                    0.998
      H     5      S                    0.998
      H     6      S                    1.002
      H     7      S                    1.002
      H     8      S                    0.998
  -------------------------------------------
                           Total:       8.000
  -------------------------------------------

     Atomic Populations (Mulliken)
     -----------------------------
Species          Ion     s      p      d      f     Total  Charge (e)
=====================================================================
  H               1     1.00   0.00   0.00   0.00   1.00     0.00
  H               2     1.00   0.00   0.00   0.00   1.00     0.00
  H               3     1.00   0.00   0.00   0.00   1.00     0.00
  H               4     1.00   0.00   0.00   0.00   1.00     0.00
  H               5     1.00   0.00   0.00   0.00   1.00     0.00
  H               6     1.00   0.00   0.00   0.00   1.00     0.00
  H               7     1.00   0.00   0.00   0.00   1.00     0.00
  H               8     1.00   0.00   0.00   0.00   1.00     0.00
=====================================================================

                 Bond                   Population      Length (A)
======================================================================
               H 1 -- H 4                    1.00        0.77601
               H 6 -- H 7                    1.00        0.77601
               H 5 -- H 8                    1.00        0.77601
               H 2 -- H 3                    1.00        0.77601
               H 4 -- H 5                    0.36        1.14780
               H 3 -- H 6                    0.36        1.14780
               H 1 -- H 8                    0.36        1.14780
               H 2 -- H 7                    0.36        1.14780
               H 4 -- H 6                   -0.03        1.31607
               H 2 -- H 8                   -0.03        1.31607
               H 3 -- H 5                   -0.03        1.31607
               H 1 -- H 7                   -0.03        1.31607
               H 5 -- H 6                   -0.28        1.49977
               H 3 -- H 4                   -0.28        1.49977
               H 1 -- H 2                   -0.28        1.49977
               H 7 -- H 8                   -0.28        1.49977
               H 3 -- H 7                   -0.70        1.66673
               H 1 -- H 5                   -0.70        1.66673
               H 4 -- H 8                   -0.70        1.66673
               H 2 -- H 6                   -0.70        1.66673
======================================================================


Writing analysis data to Cmca4.castep_bin

Writing model to Cmca4.check
 
 A BibTeX formatted list of references used in this run has been written to 
 Cmca4.bib
 
Initialisation time =      2.74 s
Calculation time    =     48.06 s
Finalisation time   =      0.70 s
Total time          =     51.50 s
Peak Memory Use     = 513464 kB
  
Overall parallel efficiency rating: Very good (85%)                             
  
Data was distributed by:-
k-point (32-way); efficiency rating: Very good (86%)                            
  
Parallel notes:
1) Calculation only took 50.8 s, so efficiency estimates may be inaccurate.     
