 +-------------------------------------------------+
 |                                                 |
 |      CCC   AA    SSS  TTTTT  EEEEE  PPPP        |
 |     C     A  A  S       T    E      P   P       |
 |     C     AAAA   SS     T    EEE    PPPP        |
 |     C     A  A     S    T    E      P           |
 |      CCC  A  A  SSS     T    EEEEE  P           |
 |                                                 |
 +-------------------------------------------------+
 |                                                 |
 | Welcome to Academic Release CASTEP version 18.1 |          
 | Ab Initio Total Energy Program                  |
 |                                                 |
 | Authors:                                        |
 | M. Segall, M. Probert, C. Pickard, P. Hasnip,   |
 | S. Clark, K. Refson, J. R. Yates, M. Payne      |
 |                                                 |
 | Contributors:                                   |
 | P. Lindan, P. Haynes, J. White, V. Milman,      |
 | N. Govind, M. Gibson, P. Tulip, V. Cocula,      |
 | B. Montanari, D. Quigley, M. Glover,            |
 | L. Bernasconi, A. Perlov, M. Plummer,           |
 | E. McNellis, J. Meyer, J. Gale, D. Jochym       |
 | J. Aarons, B. Walker, R. Gillen, D. Jones       |
 | T. Green, I. J. Bush, C. J. Armstrong,          |
 | E. J. Higgins, E. L. Brown, M. S. McFly,        |
 | J. Wilkins, B-C. Shih, P. J. P. Byrne           |
 |                                                 |
 | Copyright (c) 2000 - 2017                       |
 |                                                 |
 |     Distributed under the terms of an           |
 |     Agreement between the United Kingdom        |
 |     Car-Parrinello (UKCP) Consortium,           |
 |     Daresbury Laboratory and Accelrys, Inc.     |
 |                                                 |
 | Please cite                                     |
 |                                                 |
 |     "First principles methods using CASTEP"     |
 |                                                 |
 |         Zeitschrift fuer Kristallographie       |
 |           220(5-6) pp. 567-570 (2005)           |
 |                                                 |
 | S. J. Clark, M. D. Segall, C. J. Pickard,       |
 | P. J. Hasnip, M. J. Probert, K. Refson,         |
 | M. C. Payne                                     |
 |                                                 |
 |       in all publications arising from          |
 |              your use of CASTEP                 |
 |                                                 |
 +-------------------------------------------------+


 Compiled for linux_x86_64_gfortran4.8 on Thu, 19 Jul 2018 15:42:32 +0100
 from code version 70483bd0ad64+  Sun, 10 Dec 2017 12:18:29 +0000
 Compiler: GNU Fortran 4.8.5; Optimisation: fast
 MATHLIBS: Intel MKL(2018.0.0) (LAPACK version 3.7.0)
 FFT Lib : mkl
 Fundamental constants values: CODATA 2014

 Run started: Wed, 26 Aug 2020 14:47:52 +0100

 Atomic calculation performed for H: 1s1

 Converged in 41 iterations to an ae energy of -12.488 eV

   ============================================================                
   | Pseudopotential Report - Date of generation 26-08-2020   |                
   ------------------------------------------------------------                
   | Element: H Ionic charge:  1.00 Level of theory: PBE      |                
   | Atomic Solver: Koelling-Harmon                           |                
   |                                                          |                
   |               Reference Electronic Structure             |                
   |         Orbital         Occupation         Energy        |                
   |            1s              1.000           -0.239        |                
   |                                                          |                
   |                 Pseudopotential Definition               |                
   |        Beta     l      e      Rc     scheme   norm       |                
   |         loc     0   -0.239   0.702     qc      1         |                
   |                                                          |                
   | No charge augmentation                                   |                
   | No partial core correction                               |                
   ------------------------------------------------------------                
   | "0|0.7|2|6|8|10L(qc=10)"                                 |                
   ------------------------------------------------------------                
   |      Author: Chris J. Pickard, Cambridge University      |                
   ============================================================                

 Pseudo atomic calculation performed for H 1s1

 Converged in 24 iterations to a total energy of -12.4843 eV

 Calculation parallelised over 32 processes.
 Data is distributed by k-point(32-way)

 ************************************ Title ************************************
 

 ***************************** General Parameters ******************************
  
 output verbosity                               : normal  (1)
 write checkpoint data to                       : Cmca4.check
 type of calculation                            : geometry optimization
 stress calculation                             : on
 density difference calculation                 : off
 electron localisation func (ELF) calculation   : off
 Hirshfeld analysis                             : off
 unlimited duration calculation
 timing information                             : on
 memory usage estimate                          : on
 write extra output files                       : on
 write final potential to formatted file        : off
 write final density to formatted file          : off
 write structure in CELL formatted file         : on
 write BibTeX reference list                    : on
 write OTFG pseudopotential files               : on
 write electrostatic potential file             : on
 write bands file                               : on
 checkpoint writing                             : both castep_bin and check files
  
 output         length unit                     : A
 output           mass unit                     : amu
 output           time unit                     : ps
 output         charge unit                     : e
 output           spin unit                     : hbar/2
 output         energy unit                     : eV
 output          force unit                     : eV/A
 output       velocity unit                     : A/ps
 output       pressure unit                     : GPa
 output     inv_length unit                     : 1/A
 output      frequency unit                     : cm-1
 output force constant unit                     : eV/A**2
 output         volume unit                     : A**3
 output   IR intensity unit                     : (D/A)**2/amu
 output         dipole unit                     : D
 output         efield unit                     : eV/A/e
 output        entropy unit                     : J/mol/K
  
 wavefunctions paging                           : none
 random number generator seed                   : randomised (144752356)
 data distribution                              : optimal for this architecture
 optimization strategy                          : maximize speed(+++)

 *********************** Exchange-Correlation Parameters ***********************
  
 using functional                               : Perdew Burke Ernzerhof
 relativistic treatment                         : Koelling-Harmon
 DFT+D: Semi-empirical dispersion correction    : off

 ************************* Pseudopotential Parameters **************************
  
 pseudopotential representation                 : reciprocal space
 <beta|phi> representation                      : reciprocal space
 spin-orbit coupling                            : off

 **************************** Basis Set Parameters *****************************
  
 plane wave basis set cut-off                   :  1200.0000   eV
 size of standard grid                          :     2.0000
 size of   fine   gmax                          :    35.4943   1/A
 finite basis set correction                    : automatic
 number of sample energies                      :          3
           sample  spacing                      :     5.0000   eV

 **************************** Electronic Parameters ****************************
  
 number of  electrons                           :  8.000    
 net charge of system                           :  0.000    
 treating system as non-spin-polarized
 number of bands                                :          4

 ********************* Electronic Minimization Parameters **********************
  
 Method: Treating system as non-metallic,
         and number of  SD  steps               :          1
         and number of  CG  steps               :          4
  
 total energy / atom convergence tol.           : 0.1000E-10   eV
 eigen-energy convergence tolerance             : 0.2000E-10   eV
 max force / atom convergence tol.              : ignored
 convergence tolerance window                   :          3   cycles
 max. number of SCF cycles                      :        100
 periodic dipole correction                     : NONE

 ************************** Density Mixing Parameters **************************
  
 density-mixing scheme                          : Broyden
 max. length of mixing history                  :         20
 charge density mixing amplitude                : 0.8000    
 cut-off energy for mixing                      :  1200.       eV

 *********************** Population Analysis Parameters ************************
  
 Population analysis with cutoff                :  3.000       A
 Population analysis output                     : summary and pdos components

 ********************** Geometry Optimization Parameters ***********************
  
 optimization method                            : LBFGS
 max. no. of LBFGS updates                      : unbounded
 variable cell method                           : fixed basis quality
 max. number of steps                           :         60
 estimated bulk modulus                         :  500.0       GPa
 estimated <frequency>                          :  1668.       cm-1
 geom line minimiser                            : on
 with line minimiser tolerance                  :     0.4000
 total energy convergence tolerance             : 0.1000E-08   eV/atom
        max ionic |force| tolerance             : 0.1000E-04   eV/A
 max ionic |displacement| tolerance             : 0.1000E-04   A
   max |stress component| tolerance             : 0.1000E-04   GPa
 convergence tolerance window                   :          2   steps
 backup results every                           :      14400   seconds
 write geom trajectory file                     : on

 *******************************************************************************
  

                           -------------------------------
                                      Unit Cell
                           -------------------------------
        Real Lattice(A)                      Reciprocal Lattice(1/A)
     1.6581104    -0.0000000     0.0000000        3.789364889   0.000000000   0.000000000
    -0.0000000     2.8545350     0.0000000        0.000000000   2.201123957   0.000000000
     0.0000000     0.0000000     2.5971667        0.000000000   0.000000000   2.419246085

                       Lattice parameters(A)       Cell Angles
                    a =      1.658110          alpha =   90.000000
                    b =      2.854535          beta  =   90.000000
                    c =      2.597167          gamma =   90.000000

                       Current cell volume =            12.292738       A**3
                                   density =             0.655958   AMU/A**3
                                           =             1.089244     g/cm^3

                           -------------------------------
                                     Cell Contents
                           -------------------------------
                         Total number of ions in cell =    8
                      Total number of species in cell =    1
                        Max number of any one species =    8

            xxxxxxxxxxxxxxxxxxxxxxxxxxxxxxxxxxxxxxxxxxxxxxxxxxxxxxxxxxxx
            x  Element    Atom        Fractional coordinates of atoms  x
            x            Number           u          v          w      x
            x----------------------------------------------------------x
            x  H            1         0.000000   0.374695   0.441902   x 
            x  H            2         0.000000   0.125305   0.941902   x 
            x  H            3        -0.000000   0.874695   0.058098   x 
            x  H            4        -0.000000   0.625305   0.558098   x 
            x  H            5         0.500000   0.874695   0.441902   x 
            x  H            6         0.500000   0.625305   0.941902   x 
            x  H            7         0.500000   0.374695   0.058098   x 
            x  H            8         0.500000   0.125305   0.558098   x 
            xxxxxxxxxxxxxxxxxxxxxxxxxxxxxxxxxxxxxxxxxxxxxxxxxxxxxxxxxxxx


                         No user defined ionic velocities

                           -------------------------------
                                   Details of Species
                           -------------------------------

                               Mass of species in AMU
                                    H    1.0079400

                          Electric Quadrupole Moment (Barn)
                                    H    0.0028600 Isotope  2

                          Files used for pseudopotentials:
                                    H 0|0.7|2|6|8|10L(qc=10)

                           -------------------------------
                              k-Points For BZ Sampling
                           -------------------------------
                       MP grid size for SCF calculation is 11 11 11
                            with an offset of   0.000  0.000  0.000
                       Number of kpoints used =           216

                           -------------------------------
                               Symmetry and Constraints
                           -------------------------------

                      Cell is a supercell containing 2 primitive cells
                      Maximum deviation from symmetry = 0.269379E-14     ANG

                      Number of symmetry operations   =          16
                      Number of ionic constraints     =           3
                      Point group of crystal =     8: D2h, mmm, 2/m 2/m 2/m
                      Space group of crystal =    64: Cmce, -C 2bc 2

             Set iprint > 1 for details on symmetry rotations/translations

                         Centre of mass is constrained
             Set iprint > 1 for details of linear ionic constraints

                         Number of cell constraints= 3
                         Cell constraints are:  1 2 3 0 0 0

                         External pressure/stress (GPa)
                        250.00000   0.00000   0.00000
                                  250.00000   0.00000
                                            250.00000
  
+---------------- MEMORY AND SCRATCH DISK ESTIMATES PER PROCESS --------------+
|                                                     Memory          Disk    |
| Baseline code, static data and system overhead      478.0 MB         0.0 MB |
| BLAS internal memory storage                          0.0 MB         0.0 MB |
| Model and support data                               12.0 MB         0.0 MB |
| Electronic energy minimisation requirements           5.5 MB         0.0 MB |
| Force calculation requirements                        2.5 MB         0.0 MB |
| Stress calculation requirements                       3.1 MB         0.0 MB |
|                                               ----------------------------- |
| Approx. total storage required per process          495.5 MB         0.0 MB |
|                                                                             |
| Requirements will fluctuate during execution and may exceed these estimates |
+-----------------------------------------------------------------------------+
Calculating finite basis set correction with  3 cut-off energies.
Calculating total energy with cut-off of 1190.000 eV.
------------------------------------------------------------------------ <-- SCF
SCF loop      Energy                           Energy gain       Timer   <-- SCF
                                               per atom          (sec)   <-- SCF
------------------------------------------------------------------------ <-- SCF
Initial   1.76024771E+002                                          3.05  <-- SCF
      1  -1.01900764E+002                    3.47406918E+001       3.33  <-- SCF
      2  -1.14746730E+002                    1.60574577E+000       3.53  <-- SCF
      3  -1.14669618E+002                   -9.63894891E-003       3.89  <-- SCF
      4  -1.14667889E+002                   -2.16105996E-004       4.27  <-- SCF
      5  -1.14667995E+002                    1.31723814E-005       4.63  <-- SCF
      6  -1.14668003E+002                    9.99461524E-007       5.00  <-- SCF
      7  -1.14668003E+002                    2.17038555E-009       5.37  <-- SCF
      8  -1.14668003E+002                    1.05610591E-010       5.68  <-- SCF
      9  -1.14668003E+002                    3.10566071E-012       5.97  <-- SCF
     10  -1.14668003E+002                   -3.86697053E-013       6.25  <-- SCF
------------------------------------------------------------------------ <-- SCF
 
Final energy =  -114.6680027881     eV
(energy not corrected for finite basis set)
 
Calculating total energy with cut-off of 1195.000 eV.
------------------------------------------------------------------------ <-- SCF
SCF loop      Energy                           Energy gain       Timer   <-- SCF
                                               per atom          (sec)   <-- SCF
------------------------------------------------------------------------ <-- SCF
Initial  -1.14668003E+002                                          6.52  <-- SCF
      1  -1.14668640E+002                    7.96024236E-005       6.75  <-- SCF
      2  -1.14668640E+002                    1.95321286E-010       7.10  <-- SCF
      3  -1.14668640E+002                    2.47787043E-008       7.46  <-- SCF
      4  -1.14668640E+002                    1.06383380E-009       7.83  <-- SCF
      5  -1.14668640E+002                    4.19626724E-012       8.13  <-- SCF
      6  -1.14668640E+002                    1.69179961E-013       8.49  <-- SCF
------------------------------------------------------------------------ <-- SCF
 
Final energy =  -114.6686398158     eV
(energy not corrected for finite basis set)
 
Calculating total energy with cut-off of 1200.000 eV.
------------------------------------------------------------------------ <-- SCF
SCF loop      Energy                           Energy gain       Timer   <-- SCF
                                               per atom          (sec)   <-- SCF
------------------------------------------------------------------------ <-- SCF
Initial  -1.14668640E+002                                          8.76  <-- SCF
      1  -1.14669265E+002                    7.81471645E-005       9.00  <-- SCF
      2  -1.14669265E+002                    1.64334163E-010       9.34  <-- SCF
      3  -1.14669265E+002                    2.49117976E-008       9.71  <-- SCF
      4  -1.14669265E+002                    1.12266311E-009      10.08  <-- SCF
      5  -1.14669265E+002                    4.25970973E-012      10.38  <-- SCF
      6  -1.14669265E+002                    1.60116749E-013      10.69  <-- SCF
------------------------------------------------------------------------ <-- SCF
 
Final energy =  -114.6692652027     eV
(energy not corrected for finite basis set)
 
 For future reference: finite basis dEtot/dlog(Ecut) =      -0.150820eV
 Total energy corrected for finite basis set =    -114.669251 eV
 
+---------------- MEMORY AND SCRATCH DISK ESTIMATES PER PROCESS --------------+
|                                                     Memory          Disk    |
| Model and support data                               22.0 MB         0.0 MB |
| Electronic energy minimisation requirements           5.5 MB         0.0 MB |
| Geometry minimisation requirements                    6.7 MB         0.0 MB |
|                                               ----------------------------- |
| Approx. total storage required per process           34.2 MB         0.0 MB |
|                                                                             |
| Requirements will fluctuate during execution and may exceed these estimates |
+-----------------------------------------------------------------------------+
 

 ******************************** Symmetrised Forces ********************************
 *                                                                                  *
 *                           Cartesian components (eV/A)                            *
 * -------------------------------------------------------------------------------- *
 *                         x                    y                    z              *
 *                                                                                  *
 * H               1      0.00000             -0.00000              0.00000         *
 * H               2      0.00000              0.00000              0.00000         *
 * H               3      0.00000             -0.00000             -0.00000         *
 * H               4      0.00000              0.00000             -0.00000         *
 * H               5      0.00000             -0.00000              0.00000         *
 * H               6      0.00000              0.00000              0.00000         *
 * H               7      0.00000             -0.00000             -0.00000         *
 * H               8      0.00000              0.00000             -0.00000         *
 *                                                                                  *
 ************************************************************************************

 *********** Symmetrised Stress Tensor ***********
 *                                               *
 *          Cartesian components (GPa)           *
 * --------------------------------------------- *
 *             x             y             z     *
 *                                               *
 *  x   -259.921007     -0.000000      0.000000  *
 *  y     -0.000000   -259.921032      0.000000  *
 *  z      0.000000      0.000000   -259.921027  *
 *                                               *
 *  Pressure:  259.9210                          *
 *                                               *
 *************************************************
 LBFGS: finished iteration     0 with enthalpy= -9.54879421E+001 eV
  
 +-----------+-----------------+-----------------+------------+-----+ <-- LBFGS
 | Parameter |      value      |    tolerance    |    units   | OK? | <-- LBFGS
 +-----------+-----------------+-----------------+------------+-----+ <-- LBFGS
 |  dE/ion   |   0.000000E+000 |   1.000000E-009 |         eV | No  | <-- LBFGS
 |  |F|max   |   1.511969E-007 |   1.000000E-005 |       eV/A | Yes | <-- LBFGS
 |  |dR|max  |   0.000000E+000 |   1.000000E-005 |          A | No  | <-- LBFGS
 |   Smax    |   9.921032E+000 |   1.000000E-005 |        GPa | No  | <-- LBFGS
 +-----------+-----------------+-----------------+------------+-----+ <-- LBFGS
  

================================================================================
 Starting LBFGS iteration          1 ...
================================================================================
  
 +------------+-------------+-------------+-----------------+ <-- min LBFGS
 |    Step    |   lambda    |   F.delta'  |    enthalpy     | <-- min LBFGS
 +------------+-------------+-------------+-----------------+ <-- min LBFGS
 |  previous  |    0.000000 |    0.048451 |      -95.487942 | <-- min LBFGS
 +------------+-------------+-------------+-----------------+ <-- min LBFGS
  

--------------------------------------------------------------------------------
 LBFGS: starting iteration         1 with trial guess (lambda=  1.000000)
--------------------------------------------------------------------------------
 
+---------------- MEMORY AND SCRATCH DISK ESTIMATES PER PROCESS --------------+
|                                                     Memory          Disk    |
| Model and support data                               22.0 MB         0.0 MB |
| Electronic energy minimisation requirements           5.6 MB         0.0 MB |
| Geometry minimisation requirements                    6.8 MB         0.0 MB |
|                                               ----------------------------- |
| Approx. total storage required per process           34.4 MB         0.0 MB |
|                                                                             |
| Requirements will fluctuate during execution and may exceed these estimates |
+-----------------------------------------------------------------------------+
 

                           -------------------------------
                                      Unit Cell
                           -------------------------------
        Real Lattice(A)              Reciprocal Lattice(1/A)
     1.6690771    -0.0000000     0.0000000        3.764466688   0.000000000   0.000000000
    -0.0000000     2.8734149     0.0000000        0.000000000   2.186661331   0.000000000
     0.0000000     0.0000000     2.6143444        0.000000000   0.000000000   2.403350283

                       Lattice parameters(A)       Cell Angles
                    a =      1.669077          alpha =   90.000000
                    b =      2.873415          beta  =   90.000000
                    c =      2.614344          gamma =   90.000000

                Current cell volume =            12.538268 A**3

                           -------------------------------
                                     Cell Contents
                           -------------------------------

            xxxxxxxxxxxxxxxxxxxxxxxxxxxxxxxxxxxxxxxxxxxxxxxxxxxxxxxxxxxxxxxxx
            x  Element         Atom        Fractional coordinates of atoms  x
            x                 Number           u          v          w      x
            x---------------------------------------------------------------x
            x  H                 1        -0.000000   0.374695   0.441902   x
            x  H                 2         0.000000   0.125305   0.941902   x
            x  H                 3        -0.000000   0.874695   0.058098   x
            x  H                 4         0.000000   0.625305   0.558098   x
            x  H                 5         0.500000   0.874695   0.441902   x
            x  H                 6         0.500000   0.625305   0.941902   x
            x  H                 7         0.500000   0.374695   0.058098   x
            x  H                 8         0.500000   0.125305   0.558098   x
            xxxxxxxxxxxxxxxxxxxxxxxxxxxxxxxxxxxxxxxxxxxxxxxxxxxxxxxxxxxxxxxxx


------------------------------------------------------------------------ <-- SCF
SCF loop      Energy                           Energy gain       Timer   <-- SCF
                                               per atom          (sec)   <-- SCF
------------------------------------------------------------------------ <-- SCF
Initial  -1.15052765E+002                                         11.41  <-- SCF
      1  -1.15056783E+002                    5.02202756E-004      11.65  <-- SCF
      2  -1.15056797E+002                    1.75436346E-006      12.03  <-- SCF
      3  -1.15056804E+002                    9.27979825E-007      12.41  <-- SCF
      4  -1.15056805E+002                    1.46832744E-007      12.79  <-- SCF
      5  -1.15056805E+002                    2.40351856E-009      13.17  <-- SCF
      6  -1.15056805E+002                    2.18924911E-010      13.55  <-- SCF
      7  -1.15056805E+002                    6.88804126E-013      13.85  <-- SCF
      8  -1.15056805E+002                    1.60116749E-013      14.14  <-- SCF
------------------------------------------------------------------------ <-- SCF
 
Final energy =  -115.0568053843     eV
(energy not corrected for finite basis set)
 

 ******************************** Symmetrised Forces ********************************
 *                                                                                  *
 *                           Cartesian components (eV/A)                            *
 * -------------------------------------------------------------------------------- *
 *                         x                    y                    z              *
 *                                                                                  *
 * H               1      0.00000              0.07993              0.03917         *
 * H               2      0.00000             -0.07993              0.03917         *
 * H               3      0.00000              0.07993             -0.03917         *
 * H               4      0.00000             -0.07993             -0.03917         *
 * H               5      0.00000              0.07993              0.03917         *
 * H               6      0.00000             -0.07993              0.03917         *
 * H               7      0.00000              0.07993             -0.03917         *
 * H               8      0.00000             -0.07993             -0.03917         *
 *                                                                                  *
 ************************************************************************************

 *********** Symmetrised Stress Tensor ***********
 *                                               *
 *          Cartesian components (GPa)           *
 * --------------------------------------------- *
 *             x             y             z     *
 *                                               *
 *  x   -247.217679      0.000000      0.000000  *
 *  y      0.000000   -243.938244      0.000000  *
 *  z      0.000000      0.000000   -247.158384  *
 *                                               *
 *  Pressure:  246.1048                          *
 *                                               *
 *************************************************
  
 +------------+-------------+-------------+-----------------+ <-- min LBFGS
 |    Step    |   lambda    |   F.delta'  |    enthalpy     | <-- min LBFGS
 +------------+-------------+-------------+-----------------+ <-- min LBFGS
 |  previous  |    0.000000 |    0.048451 |      -95.487942 | <-- min LBFGS
 | trial step |    1.000000 |   -0.019276 |      -95.492373 | <-- min LBFGS
 +------------+-------------+-------------+-----------------+ <-- min LBFGS
  
 LBFGS: finished iteration     1 with enthalpy= -9.54923729E+001 eV
  
 +-----------+-----------------+-----------------+------------+-----+ <-- LBFGS
 | Parameter |      value      |    tolerance    |    units   | OK? | <-- LBFGS
 +-----------+-----------------+-----------------+------------+-----+ <-- LBFGS
 |  dE/ion   |   5.538558E-004 |   1.000000E-009 |         eV | No  | <-- LBFGS
 |  |F|max   |   8.901183E-002 |   1.000000E-005 |       eV/A | No  | <-- LBFGS
 |  |dR|max  |   1.476158E-008 |   1.000000E-005 |          A | Yes | <-- LBFGS
 |   Smax    |   6.061756E+000 |   1.000000E-005 |        GPa | No  | <-- LBFGS
 +-----------+-----------------+-----------------+------------+-----+ <-- LBFGS
  

================================================================================
 Starting LBFGS iteration          2 ...
================================================================================
  
 +------------+-------------+-------------+-----------------+ <-- min LBFGS
 |    Step    |   lambda    |   F.delta'  |    enthalpy     | <-- min LBFGS
 +------------+-------------+-------------+-----------------+ <-- min LBFGS
 |  previous  |    0.000000 |    0.028984 |      -95.492373 | <-- min LBFGS
 +------------+-------------+-------------+-----------------+ <-- min LBFGS
  

--------------------------------------------------------------------------------
 LBFGS: starting iteration         2 with trial guess (lambda=  1.000000)
--------------------------------------------------------------------------------

                           -------------------------------
                                      Unit Cell
                           -------------------------------
        Real Lattice(A)              Reciprocal Lattice(1/A)
     1.6693000    -0.0000000     0.0000000        3.763964179   0.000000000   0.000000000
    -0.0000000     2.8692747     0.0000000        0.000000000   2.189816616   0.000000000
     0.0000000     0.0000000     2.6146190        0.000000000   0.000000000   2.403097858

                       Lattice parameters(A)       Cell Angles
                    a =      1.669300          alpha =   90.000000
                    b =      2.869275          beta  =   90.000000
                    c =      2.614619          gamma =   90.000000

                Current cell volume =            12.523189 A**3

                           -------------------------------
                                     Cell Contents
                           -------------------------------

            xxxxxxxxxxxxxxxxxxxxxxxxxxxxxxxxxxxxxxxxxxxxxxxxxxxxxxxxxxxxxxxxx
            x  Element         Atom        Fractional coordinates of atoms  x
            x                 Number           u          v          w      x
            x---------------------------------------------------------------x
            x  H                 1         0.000000   0.376650   0.442956   x
            x  H                 2        -0.000000   0.123350   0.942956   x
            x  H                 3         0.000000   0.876650   0.057044   x
            x  H                 4        -0.000000   0.623350   0.557044   x
            x  H                 5         0.500000   0.876650   0.442956   x
            x  H                 6         0.500000   0.623350   0.942956   x
            x  H                 7         0.500000   0.376650   0.057044   x
            x  H                 8         0.500000   0.123350   0.557044   x
            xxxxxxxxxxxxxxxxxxxxxxxxxxxxxxxxxxxxxxxxxxxxxxxxxxxxxxxxxxxxxxxxx


------------------------------------------------------------------------ <-- SCF
SCF loop      Energy                           Energy gain       Timer   <-- SCF
                                               per atom          (sec)   <-- SCF
------------------------------------------------------------------------ <-- SCF
Initial  -1.15002288E+002                                         14.84  <-- SCF
      1  -1.15033662E+002                    3.92181584E-003      15.08  <-- SCF
      2  -1.15033754E+002                    1.14262070E-005      15.45  <-- SCF
      3  -1.15032229E+002                   -1.90577434E-004      15.83  <-- SCF
      4  -1.15032152E+002                   -9.64668711E-006      16.21  <-- SCF
      5  -1.15032152E+002                    1.39815637E-008      16.57  <-- SCF
      6  -1.15032152E+002                    8.47954132E-010      16.95  <-- SCF
      7  -1.15032152E+002                    2.11474951E-012      17.24  <-- SCF
      8  -1.15032152E+002                    3.86697053E-013      17.52  <-- SCF
------------------------------------------------------------------------ <-- SCF
 
Final energy =  -115.0321521906     eV
(energy not corrected for finite basis set)
 

 ******************************** Symmetrised Forces ********************************
 *                                                                                  *
 *                           Cartesian components (eV/A)                            *
 * -------------------------------------------------------------------------------- *
 *                         x                    y                    z              *
 *                                                                                  *
 * H               1      0.00000             -0.13339             -0.05781         *
 * H               2     -0.00000              0.13339             -0.05781         *
 * H               3      0.00000             -0.13339              0.05781         *
 * H               4     -0.00000              0.13339              0.05781         *
 * H               5      0.00000             -0.13339             -0.05781         *
 * H               6     -0.00000              0.13339             -0.05781         *
 * H               7      0.00000             -0.13339              0.05781         *
 * H               8     -0.00000              0.13339              0.05781         *
 *                                                                                  *
 ************************************************************************************

 *********** Symmetrised Stress Tensor ***********
 *                                               *
 *          Cartesian components (GPa)           *
 * --------------------------------------------- *
 *             x             y             z     *
 *                                               *
 *  x   -248.934687      0.000000      0.000000  *
 *  y      0.000000   -252.405660      0.000000  *
 *  z      0.000000      0.000000   -248.977937  *
 *                                               *
 *  Pressure:  250.1061                          *
 *                                               *
 *************************************************
  
 +------------+-------------+-------------+-----------------+ <-- min LBFGS
 |    Step    |   lambda    |   F.delta'  |    enthalpy     | <-- min LBFGS
 +------------+-------------+-------------+-----------------+ <-- min LBFGS
 |  previous  |    0.000000 |    0.028984 |      -95.492373 | <-- min LBFGS
 | trial step |    1.000000 |   -0.043028 |      -95.491252 | <-- min LBFGS
 +------------+-------------+-------------+-----------------+ <-- min LBFGS
  

--------------------------------------------------------------------------------
 LBFGS: improving iteration         2 with line minimization (lambda=  0.402488)
--------------------------------------------------------------------------------

                           -------------------------------
                                      Unit Cell
                           -------------------------------
        Real Lattice(A)              Reciprocal Lattice(1/A)
     1.6691668    -0.0000000     0.0000000        3.764264418   0.000000000   0.000000000
    -0.0000000     2.8717485     0.0000000        0.000000000   2.187930201   0.000000000
     0.0000000     0.0000000     2.6144549        0.000000000   0.000000000   2.403248678

                       Lattice parameters(A)       Cell Angles
                    a =      1.669167          alpha =   90.000000
                    b =      2.871749          beta  =   90.000000
                    c =      2.614455          gamma =   90.000000

                Current cell volume =            12.532200 A**3

                           -------------------------------
                                     Cell Contents
                           -------------------------------

            xxxxxxxxxxxxxxxxxxxxxxxxxxxxxxxxxxxxxxxxxxxxxxxxxxxxxxxxxxxxxxxxx
            x  Element         Atom        Fractional coordinates of atoms  x
            x                 Number           u          v          w      x
            x---------------------------------------------------------------x
            x  H                 1         0.000000   0.375482   0.442326   x
            x  H                 2        -0.000000   0.124518   0.942326   x
            x  H                 3         0.000000   0.875482   0.057674   x
            x  H                 4        -0.000000   0.624518   0.557674   x
            x  H                 5         0.500000   0.875482   0.442326   x
            x  H                 6         0.500000   0.624518   0.942326   x
            x  H                 7         0.500000   0.375482   0.057674   x
            x  H                 8         0.500000   0.124518   0.557674   x
            xxxxxxxxxxxxxxxxxxxxxxxxxxxxxxxxxxxxxxxxxxxxxxxxxxxxxxxxxxxxxxxxx


------------------------------------------------------------------------ <-- SCF
SCF loop      Energy                           Energy gain       Timer   <-- SCF
                                               per atom          (sec)   <-- SCF
------------------------------------------------------------------------ <-- SCF
Initial  -1.15037589E+002                                         18.22  <-- SCF
      1  -1.15048945E+002                    1.41954751E-003      18.45  <-- SCF
      2  -1.15048979E+002                    4.24393062E-006      18.82  <-- SCF
      3  -1.15048427E+002                   -6.90282744E-005      19.20  <-- SCF
      4  -1.15048399E+002                   -3.46902996E-006      19.57  <-- SCF
      5  -1.15048399E+002                    4.81782536E-009      19.94  <-- SCF
      6  -1.15048399E+002                    2.85394510E-010      20.26  <-- SCF
      7  -1.15048399E+002                    1.18123866E-012      20.55  <-- SCF
      8  -1.15048399E+002                    6.94846268E-014      20.84  <-- SCF
------------------------------------------------------------------------ <-- SCF
 
Final energy =  -115.0483989699     eV
(energy not corrected for finite basis set)
 

 ******************************** Symmetrised Forces ********************************
 *                                                                                  *
 *                           Cartesian components (eV/A)                            *
 * -------------------------------------------------------------------------------- *
 *                         x                    y                    z              *
 *                                                                                  *
 * H               1      0.00000             -0.00297              0.00133         *
 * H               2      0.00000              0.00297              0.00133         *
 * H               3      0.00000             -0.00297             -0.00133         *
 * H               4      0.00000              0.00297             -0.00133         *
 * H               5      0.00000             -0.00297              0.00133         *
 * H               6      0.00000              0.00297              0.00133         *
 * H               7      0.00000             -0.00297             -0.00133         *
 * H               8      0.00000              0.00297             -0.00133         *
 *                                                                                  *
 ************************************************************************************

 *********** Symmetrised Stress Tensor ***********
 *                                               *
 *          Cartesian components (GPa)           *
 * --------------------------------------------- *
 *             x             y             z     *
 *                                               *
 *  x   -247.875372      0.000000      0.000000  *
 *  y      0.000000   -247.302350      0.000000  *
 *  z      0.000000      0.000000   -247.862190  *
 *                                               *
 *  Pressure:  247.6800                          *
 *                                               *
 *************************************************
  
 +------------+-------------+-------------+-----------------+ <-- min LBFGS
 |    Step    |   lambda    |   F.delta'  |    enthalpy     | <-- min LBFGS
 +------------+-------------+-------------+-----------------+ <-- min LBFGS
 |  previous  |    0.000000 |    0.028984 |      -95.492373 | <-- min LBFGS
 | trial step |    1.000000 |   -0.043028 |      -95.491252 | <-- min LBFGS
 |  line step |    0.402488 |    0.000914 |      -95.493437 | <-- min LBFGS
 +------------+-------------+-------------+-----------------+ <-- min LBFGS
  
 LBFGS: finished iteration     2 with enthalpy= -9.54934367E+001 eV
  
 +-----------+-----------------+-----------------+------------+-----+ <-- LBFGS
 | Parameter |      value      |    tolerance    |    units   | OK? | <-- LBFGS
 +-----------+-----------------+-----------------+------------+-----+ <-- LBFGS
 |  dE/ion   |   1.329750E-004 |   1.000000E-009 |         eV | No  | <-- LBFGS
 |  |F|max   |   3.256322E-003 |   1.000000E-005 |       eV/A | No  | <-- LBFGS
 |  |dR|max  |   2.517664E-003 |   1.000000E-005 |          A | No  | <-- LBFGS
 |   Smax    |   2.697650E+000 |   1.000000E-005 |        GPa | No  | <-- LBFGS
 +-----------+-----------------+-----------------+------------+-----+ <-- LBFGS
  

================================================================================
 Starting LBFGS iteration          3 ...
================================================================================
  
 +------------+-------------+-------------+-----------------+ <-- min LBFGS
 |    Step    |   lambda    |   F.delta'  |    enthalpy     | <-- min LBFGS
 +------------+-------------+-------------+-----------------+ <-- min LBFGS
 |  previous  |    0.000000 |    0.011329 |      -95.493437 | <-- min LBFGS
 +------------+-------------+-------------+-----------------+ <-- min LBFGS
  

--------------------------------------------------------------------------------
 LBFGS: starting iteration         3 with trial guess (lambda=  1.000000)
--------------------------------------------------------------------------------

                           -------------------------------
                                      Unit Cell
                           -------------------------------
        Real Lattice(A)              Reciprocal Lattice(1/A)
     1.6666478    -0.0000000     0.0000000        3.769953754   0.000000000   0.000000000
    -0.0000000     2.8666684     0.0000000        0.000000000   2.191807473   0.000000000
     0.0000000     0.0000000     2.6104920        0.000000000   0.000000000   2.406896983

                       Lattice parameters(A)       Cell Angles
                    a =      1.666648          alpha =   90.000000
                    b =      2.866668          beta  =   90.000000
                    c =      2.610492          gamma =   90.000000

                Current cell volume =            12.472218 A**3

                           -------------------------------
                                     Cell Contents
                           -------------------------------

            xxxxxxxxxxxxxxxxxxxxxxxxxxxxxxxxxxxxxxxxxxxxxxxxxxxxxxxxxxxxxxxxx
            x  Element         Atom        Fractional coordinates of atoms  x
            x                 Number           u          v          w      x
            x---------------------------------------------------------------x
            x  H                 1         0.000000   0.375204   0.442285   x
            x  H                 2        -0.000000   0.124796   0.942285   x
            x  H                 3         0.000000   0.875204   0.057715   x
            x  H                 4        -0.000000   0.624796   0.557715   x
            x  H                 5         0.500000   0.875204   0.442285   x
            x  H                 6         0.500000   0.624796   0.942285   x
            x  H                 7         0.500000   0.375204   0.057715   x
            x  H                 8         0.500000   0.124796   0.557715   x
            xxxxxxxxxxxxxxxxxxxxxxxxxxxxxxxxxxxxxxxxxxxxxxxxxxxxxxxxxxxxxxxxx


------------------------------------------------------------------------ <-- SCF
SCF loop      Energy                           Energy gain       Timer   <-- SCF
                                               per atom          (sec)   <-- SCF
------------------------------------------------------------------------ <-- SCF
Initial  -1.14954444E+002                                         21.53  <-- SCF
      1  -1.14955180E+002                    9.20350615E-005      21.77  <-- SCF
      2  -1.14955183E+002                    2.96888569E-007      22.14  <-- SCF
      3  -1.14955146E+002                   -4.54330909E-006      22.50  <-- SCF
      4  -1.14955145E+002                   -2.30820459E-007      22.88  <-- SCF
      5  -1.14955145E+002                    4.89957251E-010      23.24  <-- SCF
      6  -1.14955145E+002                    3.41048675E-011      23.53  <-- SCF
      7  -1.14955145E+002                    4.62223822E-013      23.83  <-- SCF
      8  -1.14955145E+002                    1.41990324E-013      24.12  <-- SCF
------------------------------------------------------------------------ <-- SCF
 
Final energy =  -114.9551445784     eV
(energy not corrected for finite basis set)
 

 ******************************** Symmetrised Forces ********************************
 *                                                                                  *
 *                           Cartesian components (eV/A)                            *
 * -------------------------------------------------------------------------------- *
 *                         x                    y                    z              *
 *                                                                                  *
 * H               1      0.00000              0.00062              0.00157         *
 * H               2      0.00000             -0.00062              0.00157         *
 * H               3     -0.00000              0.00062             -0.00157         *
 * H               4     -0.00000             -0.00062             -0.00157         *
 * H               5      0.00000              0.00062              0.00157         *
 * H               6      0.00000             -0.00062              0.00157         *
 * H               7     -0.00000              0.00062             -0.00157         *
 * H               8     -0.00000             -0.00062             -0.00157         *
 *                                                                                  *
 ************************************************************************************

 *********** Symmetrised Stress Tensor ***********
 *                                               *
 *          Cartesian components (GPa)           *
 * --------------------------------------------- *
 *             x             y             z     *
 *                                               *
 *  x   -250.705645     -0.000000      0.000000  *
 *  y     -0.000000   -250.593184      0.000000  *
 *  z      0.000000      0.000000   -250.658951  *
 *                                               *
 *  Pressure:  250.6526                          *
 *                                               *
 *************************************************
  
 +------------+-------------+-------------+-----------------+ <-- min LBFGS
 |    Step    |   lambda    |   F.delta'  |    enthalpy     | <-- min LBFGS
 +------------+-------------+-------------+-----------------+ <-- min LBFGS
 |  previous  |    0.000000 |    0.011329 |      -95.493437 | <-- min LBFGS
 | trial step |    1.000000 |   -0.003138 |      -95.493781 | <-- min LBFGS
 +------------+-------------+-------------+-----------------+ <-- min LBFGS
  
 LBFGS: finished iteration     3 with enthalpy= -9.54937807E+001 eV
  
 +-----------+-----------------+-----------------+------------+-----+ <-- LBFGS
 | Parameter |      value      |    tolerance    |    units   | OK? | <-- LBFGS
 +-----------+-----------------+-----------------+------------+-----+ <-- LBFGS
 |  dE/ion   |   4.299293E-005 |   1.000000E-009 |         eV | No  | <-- LBFGS
 |  |F|max   |   1.687555E-003 |   1.000000E-005 |       eV/A | No  | <-- LBFGS
 |  |dR|max  |   8.038662E-004 |   1.000000E-005 |          A | No  | <-- LBFGS
 |   Smax    |   7.056447E-001 |   1.000000E-005 |        GPa | No  | <-- LBFGS
 +-----------+-----------------+-----------------+------------+-----+ <-- LBFGS
  

================================================================================
 Starting LBFGS iteration          4 ...
================================================================================
  
 +------------+-------------+-------------+-----------------+ <-- min LBFGS
 |    Step    |   lambda    |   F.delta'  |    enthalpy     | <-- min LBFGS
 +------------+-------------+-------------+-----------------+ <-- min LBFGS
 |  previous  |    0.000000 |    0.003206 |      -95.493781 | <-- min LBFGS
 +------------+-------------+-------------+-----------------+ <-- min LBFGS
  

--------------------------------------------------------------------------------
 LBFGS: starting iteration         4 with trial guess (lambda=  1.000000)
--------------------------------------------------------------------------------

                           -------------------------------
                                      Unit Cell
                           -------------------------------
        Real Lattice(A)              Reciprocal Lattice(1/A)
     1.6672952    -0.0000000     0.0000000        3.768489965   0.000000000   0.000000000
    -0.0000000     2.8675531     0.0000000        0.000000000   2.191131310   0.000000000
     0.0000000     0.0000000     2.6114411        0.000000000   0.000000000   2.406022237

                       Lattice parameters(A)       Cell Angles
                    a =      1.667295          alpha =   90.000000
                    b =      2.867553          beta  =   90.000000
                    c =      2.611441          gamma =   90.000000

                Current cell volume =            12.485450 A**3

                           -------------------------------
                                     Cell Contents
                           -------------------------------

            xxxxxxxxxxxxxxxxxxxxxxxxxxxxxxxxxxxxxxxxxxxxxxxxxxxxxxxxxxxxxxxxx
            x  Element         Atom        Fractional coordinates of atoms  x
            x                 Number           u          v          w      x
            x---------------------------------------------------------------x
            x  H                 1        -0.000000   0.375244   0.442344   x
            x  H                 2         0.000000   0.124756   0.942344   x
            x  H                 3        -0.000000   0.875244   0.057656   x
            x  H                 4        -0.000000   0.624756   0.557656   x
            x  H                 5         0.500000   0.875244   0.442344   x
            x  H                 6         0.500000   0.624756   0.942344   x
            x  H                 7         0.500000   0.375244   0.057656   x
            x  H                 8         0.500000   0.124756   0.557656   x
            xxxxxxxxxxxxxxxxxxxxxxxxxxxxxxxxxxxxxxxxxxxxxxxxxxxxxxxxxxxxxxxxx


------------------------------------------------------------------------ <-- SCF
SCF loop      Energy                           Energy gain       Timer   <-- SCF
                                               per atom          (sec)   <-- SCF
------------------------------------------------------------------------ <-- SCF
Initial  -1.14975676E+002                                         24.83  <-- SCF
      1  -1.14975817E+002                    1.76868787E-005      25.07  <-- SCF
      2  -1.14975817E+002                    2.28327692E-008      25.45  <-- SCF
      3  -1.14975816E+002                   -1.98414932E-007      25.82  <-- SCF
      4  -1.14975816E+002                   -9.86509499E-009      26.20  <-- SCF
      5  -1.14975816E+002                    2.71020255E-011      26.49  <-- SCF
      6  -1.14975816E+002                    2.59207869E-012      26.78  <-- SCF
      7  -1.14975816E+002                   -3.41380992E-013      27.07  <-- SCF
------------------------------------------------------------------------ <-- SCF
 
Final energy =  -114.9758156993     eV
(energy not corrected for finite basis set)
 

 ******************************** Symmetrised Forces ********************************
 *                                                                                  *
 *                           Cartesian components (eV/A)                            *
 * -------------------------------------------------------------------------------- *
 *                         x                    y                    z              *
 *                                                                                  *
 * H               1     -0.00000             -0.00057              0.00094         *
 * H               2      0.00000              0.00057              0.00094         *
 * H               3      0.00000             -0.00057             -0.00094         *
 * H               4      0.00000              0.00057             -0.00094         *
 * H               5     -0.00000             -0.00057              0.00094         *
 * H               6      0.00000              0.00057              0.00094         *
 * H               7      0.00000             -0.00057             -0.00094         *
 * H               8      0.00000              0.00057             -0.00094         *
 *                                                                                  *
 ************************************************************************************

 *********** Symmetrised Stress Tensor ***********
 *                                               *
 *          Cartesian components (GPa)           *
 * --------------------------------------------- *
 *             x             y             z     *
 *                                               *
 *  x   -250.045310     -0.000000      0.000000  *
 *  y     -0.000000   -249.963216      0.000000  *
 *  z      0.000000      0.000000   -250.015590  *
 *                                               *
 *  Pressure:  250.0080                          *
 *                                               *
 *************************************************
  
 +------------+-------------+-------------+-----------------+ <-- min LBFGS
 |    Step    |   lambda    |   F.delta'  |    enthalpy     | <-- min LBFGS
 +------------+-------------+-------------+-----------------+ <-- min LBFGS
 |  previous  |    0.000000 |    0.003206 |      -95.493781 | <-- min LBFGS
 | trial step |    1.000000 |    0.000089 |      -95.493808 | <-- min LBFGS
 +------------+-------------+-------------+-----------------+ <-- min LBFGS
  
 LBFGS: finished iteration     4 with enthalpy= -9.54938076E+001 eV
  
 +-----------+-----------------+-----------------+------------+-----+ <-- LBFGS
 | Parameter |      value      |    tolerance    |    units   | OK? | <-- LBFGS
 +-----------+-----------------+-----------------+------------+-----+ <-- LBFGS
 |  dE/ion   |   3.367474E-006 |   1.000000E-009 |         eV | No  | <-- LBFGS
 |  |F|max   |   1.101226E-003 |   1.000000E-005 |       eV/A | No  | <-- LBFGS
 |  |dR|max  |   1.936735E-004 |   1.000000E-005 |          A | No  | <-- LBFGS
 |   Smax    |   4.530955E-002 |   1.000000E-005 |        GPa | No  | <-- LBFGS
 +-----------+-----------------+-----------------+------------+-----+ <-- LBFGS
  

================================================================================
 Starting LBFGS iteration          5 ...
================================================================================
  
 +------------+-------------+-------------+-----------------+ <-- min LBFGS
 |    Step    |   lambda    |   F.delta'  |    enthalpy     | <-- min LBFGS
 +------------+-------------+-------------+-----------------+ <-- min LBFGS
 |  previous  |    0.000000 |    0.000344 |      -95.493808 | <-- min LBFGS
 +------------+-------------+-------------+-----------------+ <-- min LBFGS
  

--------------------------------------------------------------------------------
 LBFGS: starting iteration         5 with trial guess (lambda=  1.000000)
--------------------------------------------------------------------------------

                           -------------------------------
                                      Unit Cell
                           -------------------------------
        Real Lattice(A)              Reciprocal Lattice(1/A)
     1.6673568    -0.0000000     0.0000000        3.768350722   0.000000000   0.000000000
    -0.0000000     2.8674858     0.0000000        0.000000000   2.191182690   0.000000000
     0.0000000     0.0000000     2.6114826        0.000000000   0.000000000   2.405983959

                       Lattice parameters(A)       Cell Angles
                    a =      1.667357          alpha =   90.000000
                    b =      2.867486          beta  =   90.000000
                    c =      2.611483          gamma =   90.000000

                Current cell volume =            12.485817 A**3

                           -------------------------------
                                     Cell Contents
                           -------------------------------

            xxxxxxxxxxxxxxxxxxxxxxxxxxxxxxxxxxxxxxxxxxxxxxxxxxxxxxxxxxxxxxxxx
            x  Element         Atom        Fractional coordinates of atoms  x
            x                 Number           u          v          w      x
            x---------------------------------------------------------------x
            x  H                 1        -0.000000   0.375227   0.442383   x
            x  H                 2         0.000000   0.124773   0.942383   x
            x  H                 3        -0.000000   0.875227   0.057617   x
            x  H                 4         0.000000   0.624773   0.557617   x
            x  H                 5         0.500000   0.875227   0.442383   x
            x  H                 6         0.500000   0.624773   0.942383   x
            x  H                 7         0.500000   0.375227   0.057617   x
            x  H                 8         0.500000   0.124773   0.557617   x
            xxxxxxxxxxxxxxxxxxxxxxxxxxxxxxxxxxxxxxxxxxxxxxxxxxxxxxxxxxxxxxxxx


------------------------------------------------------------------------ <-- SCF
SCF loop      Energy                           Energy gain       Timer   <-- SCF
                                               per atom          (sec)   <-- SCF
------------------------------------------------------------------------ <-- SCF
Initial  -1.14976379E+002                                         27.78  <-- SCF
      1  -1.14976389E+002                    1.25391354E-006      28.02  <-- SCF
      2  -1.14976389E+002                    3.67683341E-009      28.40  <-- SCF
      3  -1.14976389E+002                    5.15494664E-009      28.78  <-- SCF
      4  -1.14976389E+002                    3.41879469E-010      29.12  <-- SCF
      5  -1.14976389E+002                    4.19324617E-012      29.41  <-- SCF
      6  -1.14976389E+002                   -4.35034185E-013      29.70  <-- SCF
------------------------------------------------------------------------ <-- SCF
 
Final energy =  -114.9763889965     eV
(energy not corrected for finite basis set)
 

 ******************************** Symmetrised Forces ********************************
 *                                                                                  *
 *                           Cartesian components (eV/A)                            *
 * -------------------------------------------------------------------------------- *
 *                         x                    y                    z              *
 *                                                                                  *
 * H               1      0.00000             -0.00040              0.00069         *
 * H               2      0.00000              0.00040              0.00069         *
 * H               3      0.00000             -0.00040             -0.00069         *
 * H               4     -0.00000              0.00040             -0.00069         *
 * H               5      0.00000             -0.00040              0.00069         *
 * H               6     -0.00000              0.00040              0.00069         *
 * H               7      0.00000             -0.00040             -0.00069         *
 * H               8     -0.00000              0.00040             -0.00069         *
 *                                                                                  *
 ************************************************************************************

 *********** Symmetrised Stress Tensor ***********
 *                                               *
 *          Cartesian components (GPa)           *
 * --------------------------------------------- *
 *             x             y             z     *
 *                                               *
 *  x   -250.009916      0.000000      0.000000  *
 *  y      0.000000   -249.975856      0.000000  *
 *  z      0.000000      0.000000   -249.992190  *
 *                                               *
 *  Pressure:  249.9927                          *
 *                                               *
 *************************************************
  
 +------------+-------------+-------------+-----------------+ <-- min LBFGS
 |    Step    |   lambda    |   F.delta'  |    enthalpy     | <-- min LBFGS
 +------------+-------------+-------------+-----------------+ <-- min LBFGS
 |  previous  |    0.000000 |    0.000344 |      -95.493808 | <-- min LBFGS
 | trial step |    1.000000 |    0.000223 |      -95.493808 | <-- min LBFGS
 +------------+-------------+-------------+-----------------+ <-- min LBFGS
  

--------------------------------------------------------------------------------
 LBFGS: improving iteration         5 with line minimization (lambda=  2.838278)
--------------------------------------------------------------------------------

                           -------------------------------
                                      Unit Cell
                           -------------------------------
        Real Lattice(A)              Reciprocal Lattice(1/A)
     1.6674701    -0.0000000     0.0000000        3.768094782   0.000000000   0.000000000
    -0.0000000     2.8673622     0.0000000        0.000000000   2.191277147   0.000000000
     0.0000000     0.0000000     2.6115590        0.000000000   0.000000000   2.405913596

                       Lattice parameters(A)       Cell Angles
                    a =      1.667470          alpha =   90.000000
                    b =      2.867362          beta  =   90.000000
                    c =      2.611559          gamma =   90.000000

                Current cell volume =            12.486492 A**3

                           -------------------------------
                                     Cell Contents
                           -------------------------------

            xxxxxxxxxxxxxxxxxxxxxxxxxxxxxxxxxxxxxxxxxxxxxxxxxxxxxxxxxxxxxxxxx
            x  Element         Atom        Fractional coordinates of atoms  x
            x                 Number           u          v          w      x
            x---------------------------------------------------------------x
            x  H                 1        -0.000000   0.375194   0.442454   x
            x  H                 2         0.000000   0.124806   0.942454   x
            x  H                 3        -0.000000   0.875194   0.057546   x
            x  H                 4         0.000000   0.624806   0.557546   x
            x  H                 5         0.500000   0.875194   0.442454   x
            x  H                 6         0.500000   0.624806   0.942454   x
            x  H                 7         0.500000   0.375194   0.057546   x
            x  H                 8         0.500000   0.124806   0.557546   x
            xxxxxxxxxxxxxxxxxxxxxxxxxxxxxxxxxxxxxxxxxxxxxxxxxxxxxxxxxxxxxxxxx


------------------------------------------------------------------------ <-- SCF
SCF loop      Energy                           Energy gain       Timer   <-- SCF
                                               per atom          (sec)   <-- SCF
------------------------------------------------------------------------ <-- SCF
Initial  -1.14977415E+002                                         30.38  <-- SCF
      1  -1.14977440E+002                    3.06129253E-006      30.62  <-- SCF
      2  -1.14977440E+002                    1.17016190E-008      31.00  <-- SCF
      3  -1.14977440E+002                    1.74946339E-008      31.38  <-- SCF
      4  -1.14977440E+002                    1.16122708E-009      31.75  <-- SCF
      5  -1.14977440E+002                    1.23440950E-011      32.04  <-- SCF
      6  -1.14977440E+002                    1.00299548E-012      32.34  <-- SCF
      7  -1.14977440E+002                    9.66742633E-014      32.63  <-- SCF
------------------------------------------------------------------------ <-- SCF
 
Final energy =  -114.9774399417     eV
(energy not corrected for finite basis set)
 

 ******************************** Symmetrised Forces ********************************
 *                                                                                  *
 *                           Cartesian components (eV/A)                            *
 * -------------------------------------------------------------------------------- *
 *                         x                    y                    z              *
 *                                                                                  *
 * H               1      0.00000             -0.00008              0.00024         *
 * H               2      0.00000              0.00008              0.00024         *
 * H               3      0.00000             -0.00008             -0.00024         *
 * H               4      0.00000              0.00008             -0.00024         *
 * H               5      0.00000             -0.00008              0.00024         *
 * H               6      0.00000              0.00008              0.00024         *
 * H               7      0.00000             -0.00008             -0.00024         *
 * H               8      0.00000              0.00008             -0.00024         *
 *                                                                                  *
 ************************************************************************************

 *********** Symmetrised Stress Tensor ***********
 *                                               *
 *          Cartesian components (GPa)           *
 * --------------------------------------------- *
 *             x             y             z     *
 *                                               *
 *  x   -249.944666     -0.000000      0.000000  *
 *  y     -0.000000   -249.999155      0.000000  *
 *  z      0.000000      0.000000   -249.949193  *
 *                                               *
 *  Pressure:  249.9643                          *
 *                                               *
 *************************************************
  
 +------------+-------------+-------------+-----------------+ <-- min LBFGS
 |    Step    |   lambda    |   F.delta'  |    enthalpy     | <-- min LBFGS
 +------------+-------------+-------------+-----------------+ <-- min LBFGS
 |  previous  |    0.000000 |    0.000344 |      -95.493808 | <-- min LBFGS
 | trial step |    1.000000 |    0.000223 |      -95.493808 | <-- min LBFGS
 |  line step |    2.838278 |  2.481E-006 |      -95.493807 | <-- min LBFGS
 +------------+-------------+-------------+-----------------+ <-- min LBFGS
  
 LBFGS: finished iteration     5 with enthalpy= -9.54938074E+001 eV
  
 +-----------+-----------------+-----------------+------------+-----+ <-- LBFGS
 | Parameter |      value      |    tolerance    |    units   | OK? | <-- LBFGS
 +-----------+-----------------+-----------------+------------+-----+ <-- LBFGS
 |  dE/ion   |   3.140714E-008 |   1.000000E-009 |         eV | No  | <-- LBFGS
 |  |F|max   |   2.566331E-004 |   1.000000E-005 |       eV/A | No  | <-- LBFGS
 |  |dR|max  |   3.206466E-004 |   1.000000E-005 |          A | No  | <-- LBFGS
 |   Smax    |   5.533364E-002 |   1.000000E-005 |        GPa | No  | <-- LBFGS
 +-----------+-----------------+-----------------+------------+-----+ <-- LBFGS
  

================================================================================
 Starting LBFGS iteration          6 ...
================================================================================
  
 +------------+-------------+-------------+-----------------+ <-- min LBFGS
 |    Step    |   lambda    |   F.delta'  |    enthalpy     | <-- min LBFGS
 +------------+-------------+-------------+-----------------+ <-- min LBFGS
 |  previous  |    0.000000 |    0.000175 |      -95.493807 | <-- min LBFGS
 +------------+-------------+-------------+-----------------+ <-- min LBFGS
  

--------------------------------------------------------------------------------
 LBFGS: starting iteration         6 with trial guess (lambda=  1.000000)
--------------------------------------------------------------------------------

                           -------------------------------
                                      Unit Cell
                           -------------------------------
        Real Lattice(A)              Reciprocal Lattice(1/A)
     1.6674303    -0.0000000     0.0000000        3.768184786   0.000000000   0.000000000
    -0.0000000     2.8673631     0.0000000        0.000000000   2.191276471   0.000000000
     0.0000000     0.0000000     2.6114916        0.000000000   0.000000000   2.405975664

                       Lattice parameters(A)       Cell Angles
                    a =      1.667430          alpha =   90.000000
                    b =      2.867363          beta  =   90.000000
                    c =      2.611492          gamma =   90.000000

                Current cell volume =            12.485876 A**3

                           -------------------------------
                                     Cell Contents
                           -------------------------------

            xxxxxxxxxxxxxxxxxxxxxxxxxxxxxxxxxxxxxxxxxxxxxxxxxxxxxxxxxxxxxxxxx
            x  Element         Atom        Fractional coordinates of atoms  x
            x                 Number           u          v          w      x
            x---------------------------------------------------------------x
            x  H                 1        -0.000000   0.375186   0.442471   x
            x  H                 2         0.000000   0.124814   0.942471   x
            x  H                 3        -0.000000   0.875186   0.057529   x
            x  H                 4         0.000000   0.624814   0.557529   x
            x  H                 5         0.500000   0.875186   0.442471   x
            x  H                 6         0.500000   0.624814   0.942471   x
            x  H                 7         0.500000   0.375186   0.057529   x
            x  H                 8         0.500000   0.124814   0.557529   x
            xxxxxxxxxxxxxxxxxxxxxxxxxxxxxxxxxxxxxxxxxxxxxxxxxxxxxxxxxxxxxxxxx


------------------------------------------------------------------------ <-- SCF
SCF loop      Energy                           Energy gain       Timer   <-- SCF
                                               per atom          (sec)   <-- SCF
------------------------------------------------------------------------ <-- SCF
Initial  -1.14976478E+002                                         33.34  <-- SCF
      1  -1.14976479E+002                    1.34121341E-007      33.57  <-- SCF
      2  -1.14976479E+002                    4.90573549E-010      33.93  <-- SCF
      3  -1.14976479E+002                    2.69839016E-010      34.31  <-- SCF
      4  -1.14976479E+002                    3.18420855E-011      34.60  <-- SCF
      5  -1.14976479E+002                    1.17217544E-012      34.89  <-- SCF
      6  -1.14976479E+002                    6.64635561E-014      35.18  <-- SCF
------------------------------------------------------------------------ <-- SCF
 
Final energy =  -114.9764791825     eV
(energy not corrected for finite basis set)
 

 ******************************** Symmetrised Forces ********************************
 *                                                                                  *
 *                           Cartesian components (eV/A)                            *
 * -------------------------------------------------------------------------------- *
 *                         x                    y                    z              *
 *                                                                                  *
 * H               1      0.00000             -0.00001              0.00012         *
 * H               2      0.00000              0.00001              0.00012         *
 * H               3      0.00000             -0.00001             -0.00012         *
 * H               4      0.00000              0.00001             -0.00012         *
 * H               5      0.00000             -0.00001              0.00012         *
 * H               6      0.00000              0.00001              0.00012         *
 * H               7      0.00000             -0.00001             -0.00012         *
 * H               8      0.00000              0.00001             -0.00012         *
 *                                                                                  *
 ************************************************************************************

 *********** Symmetrised Stress Tensor ***********
 *                                               *
 *          Cartesian components (GPa)           *
 * --------------------------------------------- *
 *             x             y             z     *
 *                                               *
 *  x   -249.979852     -0.000000      0.000000  *
 *  y     -0.000000   -250.016012      0.000000  *
 *  z      0.000000      0.000000   -249.988649  *
 *                                               *
 *  Pressure:  249.9948                          *
 *                                               *
 *************************************************
  
 +------------+-------------+-------------+-----------------+ <-- min LBFGS
 |    Step    |   lambda    |   F.delta'  |    enthalpy     | <-- min LBFGS
 +------------+-------------+-------------+-----------------+ <-- min LBFGS
 |  previous  |    0.000000 |    0.000175 |      -95.493807 | <-- min LBFGS
 | trial step |    1.000000 |    0.000060 |      -95.493808 | <-- min LBFGS
 +------------+-------------+-------------+-----------------+ <-- min LBFGS
  

--------------------------------------------------------------------------------
 LBFGS: improving iteration         6 with line minimization (lambda=  1.516221)
--------------------------------------------------------------------------------

                           -------------------------------
                                      Unit Cell
                           -------------------------------
        Real Lattice(A)              Reciprocal Lattice(1/A)
     1.6674097    -0.0000000     0.0000000        3.768231250   0.000000000   0.000000000
[...]
            x  H                 1         0.000000   0.375181   0.442487   x
            x  H                 2        -0.000000   0.124819   0.942487   x
            x  H                 3        -0.000000   0.875181   0.057513   x
            x  H                 4         0.000000   0.624819   0.557513   x
            x  H                 5         0.500000   0.875181   0.442487   x
            x  H                 6         0.500000   0.624819   0.942487   x
            x  H                 7         0.500000   0.375181   0.057513   x
            x  H                 8         0.500000   0.124819   0.557513   x
            xxxxxxxxxxxxxxxxxxxxxxxxxxxxxxxxxxxxxxxxxxxxxxxxxxxxxxxxxxxxxxxxx


------------------------------------------------------------------------ <-- SCF
SCF loop      Energy                           Energy gain       Timer   <-- SCF
                                               per atom          (sec)   <-- SCF
------------------------------------------------------------------------ <-- SCF
Initial  -1.14976306E+002                                         54.53  <-- SCF
      1  -1.14976306E+002                    4.22949902E-014      54.69  <-- SCF
      2  -1.14976306E+002                    3.02107073E-015      54.98  <-- SCF
      3  -1.14976306E+002                    1.90327456E-013      55.27  <-- SCF
      4  -1.14976306E+002                    3.02107073E-014      55.56  <-- SCF
------------------------------------------------------------------------ <-- SCF
 
Final energy =  -114.9763061190     eV
(energy not corrected for finite basis set)
 

 ******************************** Symmetrised Forces ********************************
 *                                                                                  *
 *                           Cartesian components (eV/A)                            *
 * -------------------------------------------------------------------------------- *
 *                         x                    y                    z              *
 *                                                                                  *
 * H               1     -0.00000             -0.00000             -0.00000         *
 * H               2      0.00000              0.00000             -0.00000         *
 * H               3      0.00000             -0.00000              0.00000         *
 * H               4     -0.00000              0.00000              0.00000         *
 * H               5     -0.00000             -0.00000             -0.00000         *
 * H               6     -0.00000              0.00000             -0.00000         *
 * H               7      0.00000             -0.00000              0.00000         *
 * H               8      0.00000              0.00000              0.00000         *
 *                                                                                  *
 ************************************************************************************

 *********** Symmetrised Stress Tensor ***********
 *                                               *
 *          Cartesian components (GPa)           *
 * --------------------------------------------- *
 *             x             y             z     *
 *                                               *
 *  x   -249.999995     -0.000000      0.000000  *
 *  y     -0.000000   -250.000013      0.000000  *
 *  z      0.000000      0.000000   -249.999993  *
 *                                               *
 *  Pressure:  250.0000                          *
 *                                               *
 *************************************************
  
 +------------+-------------+-------------+-----------------+ <-- min LBFGS
 |    Step    |   lambda    |   F.delta'  |    enthalpy     | <-- min LBFGS
 +------------+-------------+-------------+-----------------+ <-- min LBFGS
 |  previous  |    0.000000 |  5.008E-008 |      -95.493809 | <-- min LBFGS
 | trial step |    1.000000 |  1.350E-008 |      -95.493809 | <-- min LBFGS
 +------------+-------------+-------------+-----------------+ <-- min LBFGS
  
 LBFGS: finished iteration    12 with enthalpy= -9.54938089E+001 eV
  
 +-----------+-----------------+-----------------+------------+-----+ <-- LBFGS
 | Parameter |      value      |    tolerance    |    units   | OK? | <-- LBFGS
 +-----------+-----------------+-----------------+------------+-----+ <-- LBFGS
 |  dE/ion   |   1.283955E-013 |   1.000000E-009 |         eV | Yes | <-- LBFGS
 |  |F|max   |   2.384590E-007 |   1.000000E-005 |       eV/A | Yes | <-- LBFGS
 |  |dR|max  |   1.011939E-008 |   1.000000E-005 |          A | Yes | <-- LBFGS
 |   Smax    |   1.295911E-005 |   1.000000E-005 |        GPa | No  | <-- LBFGS
 +-----------+-----------------+-----------------+------------+-----+ <-- LBFGS
  

================================================================================
 Starting LBFGS iteration         13 ...
================================================================================
  
 +------------+-------------+-------------+-----------------+ <-- min LBFGS
 |    Step    |   lambda    |   F.delta'  |    enthalpy     | <-- min LBFGS
 +------------+-------------+-------------+-----------------+ <-- min LBFGS
 |  previous  |    0.000000 |  5.001E-008 |      -95.493809 | <-- min LBFGS
 +------------+-------------+-------------+-----------------+ <-- min LBFGS
  

--------------------------------------------------------------------------------
 LBFGS: starting iteration        13 with trial guess (lambda=  1.000000)
--------------------------------------------------------------------------------

                           -------------------------------
                                      Unit Cell
                           -------------------------------
        Real Lattice(A)              Reciprocal Lattice(1/A)
     1.6673920    -0.0000000     0.0000000        3.768271257   0.000000000   0.000000000
    -0.0000000     2.8674252     0.0000000        0.000000000   2.191228983   0.000000000
     0.0000000     0.0000000     2.6114716        0.000000000   0.000000000   2.405994111

                       Lattice parameters(A)       Cell Angles
                    a =      1.667392          alpha =   90.000000
                    b =      2.867425          beta  =   90.000000
                    c =      2.611472          gamma =   90.000000

                Current cell volume =            12.485764 A**3

                           -------------------------------
                                     Cell Contents
                           -------------------------------

            xxxxxxxxxxxxxxxxxxxxxxxxxxxxxxxxxxxxxxxxxxxxxxxxxxxxxxxxxxxxxxxxx
            x  Element         Atom        Fractional coordinates of atoms  x
            x                 Number           u          v          w      x
            x---------------------------------------------------------------x
            x  H                 1         0.000000   0.375181   0.442487   x
            x  H                 2        -0.000000   0.124819   0.942487   x
            x  H                 3         0.000000   0.875181   0.057513   x
            x  H                 4         0.000000   0.624819   0.557513   x
            x  H                 5         0.500000   0.875181   0.442487   x
            x  H                 6         0.500000   0.624819   0.942487   x
            x  H                 7         0.500000   0.375181   0.057513   x
            x  H                 8         0.500000   0.124819   0.557513   x
            xxxxxxxxxxxxxxxxxxxxxxxxxxxxxxxxxxxxxxxxxxxxxxxxxxxxxxxxxxxxxxxxx


------------------------------------------------------------------------ <-- SCF
SCF loop      Energy                           Energy gain       Timer   <-- SCF
                                               per atom          (sec)   <-- SCF
------------------------------------------------------------------------ <-- SCF
Initial  -1.14976306E+002                                         56.26  <-- SCF
      1  -1.14976306E+002                    1.51053536E-014      56.42  <-- SCF
      2  -1.14976306E+002                   -9.06321219E-015      56.71  <-- SCF
      3  -1.14976306E+002                    3.32317780E-014      57.00  <-- SCF
      4  -1.14976306E+002                   -3.80654912E-013      57.29  <-- SCF
------------------------------------------------------------------------ <-- SCF
 
Final energy =  -114.9763060581     eV
(energy not corrected for finite basis set)
 

 ******************************** Symmetrised Forces ********************************
 *                                                                                  *
 *                           Cartesian components (eV/A)                            *
 * -------------------------------------------------------------------------------- *
 *                         x                    y                    z              *
 *                                                                                  *
 * H               1     -0.00000             -0.00000             -0.00000         *
 * H               2      0.00000              0.00000             -0.00000         *
 * H               3     -0.00000             -0.00000              0.00000         *
 * H               4     -0.00000              0.00000              0.00000         *
 * H               5     -0.00000             -0.00000             -0.00000         *
 * H               6      0.00000              0.00000             -0.00000         *
 * H               7     -0.00000             -0.00000              0.00000         *
 * H               8      0.00000              0.00000              0.00000         *
 *                                                                                  *
 ************************************************************************************

 *********** Symmetrised Stress Tensor ***********
 *                                               *
 *          Cartesian components (GPa)           *
 * --------------------------------------------- *
 *             x             y             z     *
 *                                               *
 *  x   -249.999999      0.000000      0.000000  *
 *  y      0.000000   -250.000005      0.000000  *
 *  z      0.000000      0.000000   -249.999996  *
 *                                               *
 *  Pressure:  250.0000                          *
 *                                               *
 *************************************************
  
 +------------+-------------+-------------+-----------------+ <-- min LBFGS
 |    Step    |   lambda    |   F.delta'  |    enthalpy     | <-- min LBFGS
 +------------+-------------+-------------+-----------------+ <-- min LBFGS
 |  previous  |    0.000000 |  5.001E-008 |      -95.493809 | <-- min LBFGS
 | trial step |    1.000000 |  1.837E-008 |      -95.493809 | <-- min LBFGS
 +------------+-------------+-------------+-----------------+ <-- min LBFGS
  
 LBFGS: finished iteration    13 with enthalpy= -9.54938089E+001 eV
  
 +-----------+-----------------+-----------------+------------+-----+ <-- LBFGS
 | Parameter |      value      |    tolerance    |    units   | OK? | <-- LBFGS
 +-----------+-----------------+-----------------+------------+-----+ <-- LBFGS
 |  dE/ion   |   1.812642E-013 |   1.000000E-009 |         eV | Yes | <-- LBFGS
 |  |F|max   |   8.128046E-008 |   1.000000E-005 |       eV/A | Yes | <-- LBFGS
 |  |dR|max  |   1.291557E-008 |   1.000000E-005 |          A | Yes | <-- LBFGS
 |   Smax    |   5.312318E-006 |   1.000000E-005 |        GPa | Yes | <-- LBFGS
 +-----------+-----------------+-----------------+------------+-----+ <-- LBFGS
  
 LBFGS: Geometry optimization completed successfully.

================================================================================
 LBFGS: Final Configuration:
================================================================================

                           -------------------------------
                                      Unit Cell
                           -------------------------------
        Real Lattice(A)              Reciprocal Lattice(1/A)
     1.6673920    -0.0000000     0.0000000        3.768271257   0.000000000   0.000000000
    -0.0000000     2.8674252     0.0000000        0.000000000   2.191228983   0.000000000
     0.0000000     0.0000000     2.6114716        0.000000000   0.000000000   2.405994111

                       Lattice parameters(A)       Cell Angles
                    a =      1.667392          alpha =   90.000000
                    b =      2.867425          beta  =   90.000000
                    c =      2.611472          gamma =   90.000000

                Current cell volume =            12.485764 A**3

                           -------------------------------
                                     Cell Contents
                           -------------------------------

            xxxxxxxxxxxxxxxxxxxxxxxxxxxxxxxxxxxxxxxxxxxxxxxxxxxxxxxxxxxxxxxxx
            x  Element         Atom        Fractional coordinates of atoms  x
            x                 Number           u          v          w      x
            x---------------------------------------------------------------x
            x  H                 1         0.000000   0.375181   0.442487   x
            x  H                 2        -0.000000   0.124819   0.942487   x
            x  H                 3         0.000000   0.875181   0.057513   x
            x  H                 4         0.000000   0.624819   0.557513   x
            x  H                 5         0.500000   0.875181   0.442487   x
            x  H                 6         0.500000   0.624819   0.942487   x
            x  H                 7         0.500000   0.375181   0.057513   x
            x  H                 8         0.500000   0.124819   0.557513   x
            xxxxxxxxxxxxxxxxxxxxxxxxxxxxxxxxxxxxxxxxxxxxxxxxxxxxxxxxxxxxxxxxx


 LBFGS: Final Enthalpy     = -9.54938089E+001 eV
 LBFGS: Final <frequency>  =    2183.64578 cm-1
 LBFGS: Final bulk modulus =     642.85460 GPa

 ******************************** Symmetrised Forces ********************************
 *                                                                                  *
 *                           Cartesian components (eV/A)                            *
 * -------------------------------------------------------------------------------- *
 *                         x                    y                    z              *
 *                                                                                  *
 * H               1     -0.00000             -0.00000             -0.00000         *
 * H               2      0.00000              0.00000             -0.00000         *
 * H               3     -0.00000             -0.00000              0.00000         *
 * H               4     -0.00000              0.00000              0.00000         *
 * H               5     -0.00000             -0.00000             -0.00000         *
 * H               6      0.00000              0.00000             -0.00000         *
 * H               7     -0.00000             -0.00000              0.00000         *
 * H               8      0.00000              0.00000              0.00000         *
 *                                                                                  *
 ************************************************************************************

 *********** Symmetrised Stress Tensor ***********
 *                                               *
 *          Cartesian components (GPa)           *
 * --------------------------------------------- *
 *             x             y             z     *
 *                                               *
 *  x   -249.999999      0.000000      0.000000  *
 *  y      0.000000   -250.000005      0.000000  *
 *  z      0.000000      0.000000   -249.999996  *
 *                                               *
 *  Pressure:  250.0000                          *
 *                                               *
 *************************************************

 Pseudo atomic calculation performed for H 1s1

 Converged in 24 iterations to a total energy of -12.4843 eV

Charge spilling parameter for spin component 1 = 0.63%

            Orbital Populations       
     Ion    Atom   Orbital             Charge
  -------------------------------------------
      H     1      S                    0.998
      H     2      S                    1.002
      H     3      S                    1.002
      H     4      S                    0.998
      H     5      S                    0.998
      H     6      S                    1.002
      H     7      S                    1.002
      H     8      S                    0.998
  -------------------------------------------
                           Total:       8.000
  -------------------------------------------

     Atomic Populations (Mulliken)
     -----------------------------
Species          Ion     s      p      d      f     Total  Charge (e)
=====================================================================
  H               1     1.00   0.00   0.00   0.00   1.00     0.00
  H               2     1.00   0.00   0.00   0.00   1.00     0.00
  H               3     1.00   0.00   0.00   0.00   1.00     0.00
  H               4     1.00   0.00   0.00   0.00   1.00     0.00
  H               5     1.00   0.00   0.00   0.00   1.00     0.00
  H               6     1.00   0.00   0.00   0.00   1.00     0.00
  H               7     1.00   0.00   0.00   0.00   1.00     0.00
  H               8     1.00   0.00   0.00   0.00   1.00     0.00
=====================================================================

                 Bond                   Population      Length (A)
======================================================================
               H 6 -- H 7                    1.00        0.77629
               H 5 -- H 8                    1.00        0.77629
               H 2 -- H 3                    1.00        0.77629
               H 1 -- H 4                    1.00        0.77629
               H 4 -- H 5                    0.38        1.14046
               H 3 -- H 6                    0.38        1.14046
               H 1 -- H 8                    0.38        1.14046
               H 2 -- H 7                    0.38        1.14046
               H 4 -- H 6                   -0.03        1.30605
               H 2 -- H 8                   -0.03        1.30605
               H 3 -- H 5                   -0.03        1.30605
               H 1 -- H 7                   -0.03        1.30605
               H 5 -- H 6                   -0.30        1.49007
               H 3 -- H 4                   -0.30        1.49007
               H 1 -- H 2                   -0.30        1.49007
               H 7 -- H 8                   -0.30        1.49007
               H 4 -- H 8                   -0.71        1.65849
               H 2 -- H 6                   -0.71        1.65849
               H 3 -- H 7                   -0.71        1.65849
               H 1 -- H 5                   -0.71        1.65849
======================================================================


Writing analysis data to Cmca4.castep_bin

Writing model to Cmca4.check
 
 A BibTeX formatted list of references used in this run has been written to 
 Cmca4.bib
 
Initialisation time =      2.78 s
Calculation time    =     56.55 s
Finalisation time   =      1.49 s
Total time          =     60.82 s
Peak Memory Use     = 513552 kB
  
Overall parallel efficiency rating: Very good (85%)                             
  
Data was distributed by:-
k-point (32-way); efficiency rating: Very good (86%)                            
  
Parallel notes:
1) Calculation only took 59.3 s, so efficiency estimates may be inaccurate.     
