 +-------------------------------------------------+
 |                                                 |
 |      CCC   AA    SSS  TTTTT  EEEEE  PPPP        |
 |     C     A  A  S       T    E      P   P       |
 |     C     AAAA   SS     T    EEE    PPPP        |
 |     C     A  A     S    T    E      P           |
 |      CCC  A  A  SSS     T    EEEEE  P           |
 |                                                 |
 +-------------------------------------------------+
 |                                                 |
 | Welcome to Academic Release CASTEP version 18.1 |          
 | Ab Initio Total Energy Program                  |
 |                                                 |
 | Authors:                                        |
 | M. Segall, M. Probert, C. Pickard, P. Hasnip,   |
 | S. Clark, K. Refson, J. R. Yates, M. Payne      |
 |                                                 |
 | Contributors:                                   |
 | P. Lindan, P. Haynes, J. White, V. Milman,      |
 | N. Govind, M. Gibson, P. Tulip, V. Cocula,      |
 | B. Montanari, D. Quigley, M. Glover,            |
 | L. Bernasconi, A. Perlov, M. Plummer,           |
 | E. McNellis, J. Meyer, J. Gale, D. Jochym       |
 | J. Aarons, B. Walker, R. Gillen, D. Jones       |
 | T. Green, I. J. Bush, C. J. Armstrong,          |
 | E. J. Higgins, E. L. Brown, M. S. McFly,        |
 | J. Wilkins, B-C. Shih, P. J. P. Byrne           |
 |                                                 |
 | Copyright (c) 2000 - 2017                       |
 |                                                 |
 |     Distributed under the terms of an           |
 |     Agreement between the United Kingdom        |
 |     Car-Parrinello (UKCP) Consortium,           |
 |     Daresbury Laboratory and Accelrys, Inc.     |
 |                                                 |
 | Please cite                                     |
 |                                                 |
 |     "First principles methods using CASTEP"     |
 |                                                 |
 |         Zeitschrift fuer Kristallographie       |
 |           220(5-6) pp. 567-570 (2005)           |
 |                                                 |
 | S. J. Clark, M. D. Segall, C. J. Pickard,       |
 | P. J. Hasnip, M. J. Probert, K. Refson,         |
 | M. C. Payne                                     |
 |                                                 |
 |       in all publications arising from          |
 |              your use of CASTEP                 |
 |                                                 |
 +-------------------------------------------------+


 Compiled for linux_x86_64_gfortran4.8 on Thu, 19 Jul 2018 15:42:32 +0100
 from code version 70483bd0ad64+  Sun, 10 Dec 2017 12:18:29 +0000
 Compiler: GNU Fortran 4.8.5; Optimisation: fast
 MATHLIBS: Intel MKL(2018.0.0) (LAPACK version 3.7.0)
 FFT Lib : mkl
 Fundamental constants values: CODATA 2014

 Run started: Wed, 26 Aug 2020 15:07:25 +0100

 Atomic calculation performed for H: 1s1

 Converged in 41 iterations to an ae energy of -12.488 eV

   ============================================================                
   | Pseudopotential Report - Date of generation 26-08-2020   |                
   ------------------------------------------------------------                
   | Element: H Ionic charge:  1.00 Level of theory: PBE      |                
   | Atomic Solver: Koelling-Harmon                           |                
   |                                                          |                
   |               Reference Electronic Structure             |                
   |         Orbital         Occupation         Energy        |                
   |            1s              1.000           -0.239        |                
   |                                                          |                
   |                 Pseudopotential Definition               |                
   |        Beta     l      e      Rc     scheme   norm       |                
   |         loc     0   -0.239   0.702     qc      1         |                
   |                                                          |                
   | No charge augmentation                                   |                
   | No partial core correction                               |                
   ------------------------------------------------------------                
   | "0|0.7|2|6|8|10L(qc=10)"                                 |                
   ------------------------------------------------------------                
   |      Author: Chris J. Pickard, Cambridge University      |                
   ============================================================                

 Pseudo atomic calculation performed for H 1s1

 Converged in 24 iterations to a total energy of -12.4843 eV

 Calculation parallelised over 32 processes.
 Data is distributed by k-point(32-way)

 ************************************ Title ************************************
 

 ***************************** General Parameters ******************************
  
 output verbosity                               : normal  (1)
 write checkpoint data to                       : Cmca4.check
 type of calculation                            : geometry optimization
 stress calculation                             : on
 density difference calculation                 : off
 electron localisation func (ELF) calculation   : off
 Hirshfeld analysis                             : off
 unlimited duration calculation
 timing information                             : on
 memory usage estimate                          : on
 write extra output files                       : on
 write final potential to formatted file        : off
 write final density to formatted file          : off
 write structure in CELL formatted file         : on
 write BibTeX reference list                    : on
 write OTFG pseudopotential files               : on
 write electrostatic potential file             : on
 write bands file                               : on
 checkpoint writing                             : both castep_bin and check files
  
 output         length unit                     : A
 output           mass unit                     : amu
 output           time unit                     : ps
 output         charge unit                     : e
 output           spin unit                     : hbar/2
 output         energy unit                     : eV
 output          force unit                     : eV/A
 output       velocity unit                     : A/ps
 output       pressure unit                     : GPa
 output     inv_length unit                     : 1/A
 output      frequency unit                     : cm-1
 output force constant unit                     : eV/A**2
 output         volume unit                     : A**3
 output   IR intensity unit                     : (D/A)**2/amu
 output         dipole unit                     : D
 output         efield unit                     : eV/A/e
 output        entropy unit                     : J/mol/K
  
 wavefunctions paging                           : none
 random number generator seed                   : randomised (150725845)
 data distribution                              : optimal for this architecture
 optimization strategy                          : maximize speed(+++)

 *********************** Exchange-Correlation Parameters ***********************
  
 using functional                               : Perdew Burke Ernzerhof
 relativistic treatment                         : Koelling-Harmon
 DFT+D: Semi-empirical dispersion correction    : off

 ************************* Pseudopotential Parameters **************************
  
 pseudopotential representation                 : reciprocal space
 <beta|phi> representation                      : reciprocal space
 spin-orbit coupling                            : off

 **************************** Basis Set Parameters *****************************
  
 plane wave basis set cut-off                   :  1200.0000   eV
 size of standard grid                          :     2.0000
 size of   fine   gmax                          :    35.4943   1/A
 finite basis set correction                    : automatic
 number of sample energies                      :          3
           sample  spacing                      :     5.0000   eV

 **************************** Electronic Parameters ****************************
  
 number of  electrons                           :  8.000    
 net charge of system                           :  0.000    
 treating system as non-spin-polarized
 number of bands                                :          4

 ********************* Electronic Minimization Parameters **********************
  
 Method: Treating system as non-metallic,
         and number of  SD  steps               :          1
         and number of  CG  steps               :          4
  
 total energy / atom convergence tol.           : 0.1000E-10   eV
 eigen-energy convergence tolerance             : 0.2000E-10   eV
 max force / atom convergence tol.              : ignored
 convergence tolerance window                   :          3   cycles
 max. number of SCF cycles                      :        100
 periodic dipole correction                     : NONE

 ************************** Density Mixing Parameters **************************
  
 density-mixing scheme                          : Broyden
 max. length of mixing history                  :         20
 charge density mixing amplitude                : 0.8000    
 cut-off energy for mixing                      :  1200.       eV

 *********************** Population Analysis Parameters ************************
  
 Population analysis with cutoff                :  3.000       A
 Population analysis output                     : summary and pdos components

 ********************** Geometry Optimization Parameters ***********************
  
 optimization method                            : LBFGS
 max. no. of LBFGS updates                      : unbounded
 variable cell method                           : fixed basis quality
 max. number of steps                           :         60
 estimated bulk modulus                         :  500.0       GPa
 estimated <frequency>                          :  1668.       cm-1
 geom line minimiser                            : on
 with line minimiser tolerance                  :     0.4000
 total energy convergence tolerance             : 0.1000E-08   eV/atom
        max ionic |force| tolerance             : 0.1000E-04   eV/A
 max ionic |displacement| tolerance             : 0.1000E-04   A
   max |stress component| tolerance             : 0.1000E-04   GPa
 convergence tolerance window                   :          2   steps
 backup results every                           :      14400   seconds
 write geom trajectory file                     : on

 *******************************************************************************
  

                           -------------------------------
                                      Unit Cell
                           -------------------------------
        Real Lattice(A)                      Reciprocal Lattice(1/A)
     1.9463798    -0.0000000     0.0000000        3.228139315   0.000000000   0.000000000
    -0.0000000     3.1237307     0.0000000        0.000000000   2.011436280   0.000000000
     0.0000000     0.0000000     2.9976432        0.000000000   0.000000000   2.096041755

                       Lattice parameters(A)       Cell Angles
                    a =      1.946380          alpha =   90.000000
                    b =      3.123731          beta  =   90.000000
                    c =      2.997643          gamma =   90.000000

                       Current cell volume =            18.225570       A**3
                                   density =             0.442429   AMU/A**3
                                           =             0.734671     g/cm^3

                           -------------------------------
                                     Cell Contents
                           -------------------------------
                         Total number of ions in cell =    8
                      Total number of species in cell =    1
                        Max number of any one species =    8

            xxxxxxxxxxxxxxxxxxxxxxxxxxxxxxxxxxxxxxxxxxxxxxxxxxxxxxxxxxxx
            x  Element    Atom        Fractional coordinates of atoms  x
            x            Number           u          v          w      x
            x----------------------------------------------------------x
            x  H            1         0.000000   0.390765   0.448166   x 
            x  H            2         0.000000   0.109235   0.948166   x 
            x  H            3         0.000000   0.890765   0.051834   x 
            x  H            4         0.000000   0.609235   0.551834   x 
            x  H            5         0.500000   0.890765   0.448166   x 
            x  H            6         0.500000   0.609235   0.948166   x 
            x  H            7         0.500000   0.390765   0.051834   x 
            x  H            8         0.500000   0.109235   0.551834   x 
            xxxxxxxxxxxxxxxxxxxxxxxxxxxxxxxxxxxxxxxxxxxxxxxxxxxxxxxxxxxx


                         No user defined ionic velocities

                           -------------------------------
                                   Details of Species
                           -------------------------------

                               Mass of species in AMU
                                    H    1.0079400

                          Electric Quadrupole Moment (Barn)
                                    H    0.0028600 Isotope  2

                          Files used for pseudopotentials:
                                    H 0|0.7|2|6|8|10L(qc=10)

                           -------------------------------
                              k-Points For BZ Sampling
                           -------------------------------
                       MP grid size for SCF calculation is 11 11 11
                            with an offset of   0.000  0.000  0.000
                       Number of kpoints used =           216

                           -------------------------------
                               Symmetry and Constraints
                           -------------------------------

                      Cell is a supercell containing 2 primitive cells
                      Maximum deviation from symmetry = 0.624247E-14     ANG

                      Number of symmetry operations   =          16
                      Number of ionic constraints     =           3
                      Point group of crystal =     8: D2h, mmm, 2/m 2/m 2/m
                      Space group of crystal =    64: Cmce, -C 2bc 2

             Set iprint > 1 for details on symmetry rotations/translations

                         Centre of mass is constrained
             Set iprint > 1 for details of linear ionic constraints

                         Number of cell constraints= 3
                         Cell constraints are:  1 2 3 0 0 0

                         External pressure/stress (GPa)
                         90.00000   0.00000   0.00000
                                   90.00000   0.00000
                                             90.00000
  
+---------------- MEMORY AND SCRATCH DISK ESTIMATES PER PROCESS --------------+
|                                                     Memory          Disk    |
| Baseline code, static data and system overhead      478.0 MB         0.0 MB |
| BLAS internal memory storage                          0.0 MB         0.0 MB |
| Model and support data                               14.0 MB         0.0 MB |
| Electronic energy minimisation requirements           8.1 MB         0.0 MB |
| Force calculation requirements                        3.6 MB         0.0 MB |
| Stress calculation requirements                       4.5 MB         0.0 MB |
|                                               ----------------------------- |
| Approx. total storage required per process          500.1 MB         0.0 MB |
|                                                                             |
| Requirements will fluctuate during execution and may exceed these estimates |
+-----------------------------------------------------------------------------+
Calculating finite basis set correction with  3 cut-off energies.
Calculating total energy with cut-off of 1190.000 eV.
------------------------------------------------------------------------ <-- SCF
SCF loop      Energy                           Energy gain       Timer   <-- SCF
                                               per atom          (sec)   <-- SCF
------------------------------------------------------------------------ <-- SCF
Initial   1.98045521E+002                                          2.79  <-- SCF
      1  -9.92030989E+001                    3.71560775E+001       3.21  <-- SCF
      2  -1.21050631E+002                    2.73094149E+000       3.52  <-- SCF
      3  -1.21144662E+002                    1.17538821E-002       3.77  <-- SCF
      4  -1.20686079E+002                   -5.73229233E-002       4.31  <-- SCF
      5  -1.20669836E+002                   -2.03027139E-003       4.91  <-- SCF
      6  -1.20670284E+002                    5.60108809E-005       5.45  <-- SCF
      7  -1.20670329E+002                    5.59845215E-006       5.99  <-- SCF
      8  -1.20670329E+002                    7.97673244E-009       6.53  <-- SCF
      9  -1.20670329E+002                    4.02122641E-010       6.98  <-- SCF
     10  -1.20670329E+002                    6.99377874E-012       7.39  <-- SCF
     11  -1.20670329E+002                    1.66158890E-013       7.81  <-- SCF
------------------------------------------------------------------------ <-- SCF
 
Final energy =  -120.6703292740     eV
(energy not corrected for finite basis set)
 
Calculating total energy with cut-off of 1195.000 eV.
------------------------------------------------------------------------ <-- SCF
SCF loop      Energy                           Energy gain       Timer   <-- SCF
                                               per atom          (sec)   <-- SCF
------------------------------------------------------------------------ <-- SCF
Initial  -1.20670329E+002                                          8.21  <-- SCF
      1  -1.20670919E+002                    7.36648005E-005       8.55  <-- SCF
      2  -1.20670919E+002                    1.09797795E-010       9.06  <-- SCF
      3  -1.20670919E+002                    3.11374993E-008       9.60  <-- SCF
      4  -1.20670919E+002                    1.72229430E-009      10.14  <-- SCF
      5  -1.20670919E+002                    2.59570397E-011      10.59  <-- SCF
      6  -1.20670919E+002                    1.98786454E-012      11.05  <-- SCF
      7  -1.20670919E+002                    5.74003439E-013      11.47  <-- SCF
------------------------------------------------------------------------ <-- SCF
 
Final energy =  -120.6709188564     eV
(energy not corrected for finite basis set)
 
Calculating total energy with cut-off of 1200.000 eV.
------------------------------------------------------------------------ <-- SCF
SCF loop      Energy                           Energy gain       Timer   <-- SCF
                                               per atom          (sec)   <-- SCF
------------------------------------------------------------------------ <-- SCF
Initial  -1.20670919E+002                                         11.86  <-- SCF
      1  -1.20671497E+002                    7.22330335E-005      12.20  <-- SCF
      2  -1.20671497E+002                    9.81334405E-011      12.71  <-- SCF
      3  -1.20671497E+002                    3.06558893E-008      13.25  <-- SCF
      4  -1.20671497E+002                    1.73530001E-009      13.78  <-- SCF
      5  -1.20671497E+002                    2.66277174E-011      14.23  <-- SCF
      6  -1.20671497E+002                    1.21749150E-012      14.68  <-- SCF
      7  -1.20671497E+002                    3.74612770E-013      15.09  <-- SCF
------------------------------------------------------------------------ <-- SCF
 
Final energy =  -120.6714969808     eV
(energy not corrected for finite basis set)
 
 For future reference: finite basis dEtot/dlog(Ecut) =      -0.138108eV
 Total energy corrected for finite basis set =    -120.671492 eV
 
+---------------- MEMORY AND SCRATCH DISK ESTIMATES PER PROCESS --------------+
|                                                     Memory          Disk    |
| Model and support data                               23.6 MB         0.0 MB |
| Electronic energy minimisation requirements           8.1 MB         0.0 MB |
| Geometry minimisation requirements                    9.7 MB         0.0 MB |
|                                               ----------------------------- |
| Approx. total storage required per process           41.4 MB         0.0 MB |
|                                                                             |
| Requirements will fluctuate during execution and may exceed these estimates |
+-----------------------------------------------------------------------------+
 

 ******************************** Symmetrised Forces ********************************
 *                                                                                  *
 *                           Cartesian components (eV/A)                            *
 * -------------------------------------------------------------------------------- *
 *                         x                    y                    z              *
 *                                                                                  *
 * H               1      0.00000             -0.00000             -0.00000         *
 * H               2      0.00000              0.00000             -0.00000         *
 * H               3      0.00000             -0.00000              0.00000         *
 * H               4      0.00000              0.00000              0.00000         *
 * H               5      0.00000             -0.00000             -0.00000         *
 * H               6     -0.00000              0.00000             -0.00000         *
 * H               7      0.00000             -0.00000              0.00000         *
 * H               8      0.00000              0.00000              0.00000         *
 *                                                                                  *
 ************************************************************************************

 *********** Symmetrised Stress Tensor ***********
 *                                               *
 *          Cartesian components (GPa)           *
 * --------------------------------------------- *
 *             x             y             z     *
 *                                               *
 *  x    -99.998396     -0.000000      0.000000  *
 *  y     -0.000000    -99.998418      0.000000  *
 *  z      0.000000      0.000000    -99.998397  *
 *                                               *
 *  Pressure:   99.9984                          *
 *                                               *
 *************************************************
 LBFGS: finished iteration     0 with enthalpy= -1.10433536E+002 eV
  
 +-----------+-----------------+-----------------+------------+-----+ <-- LBFGS
 | Parameter |      value      |    tolerance    |    units   | OK? | <-- LBFGS
 +-----------+-----------------+-----------------+------------+-----+ <-- LBFGS
 |  dE/ion   |   0.000000E+000 |   1.000000E-009 |         eV | No  | <-- LBFGS
 |  |F|max   |   8.532786E-007 |   1.000000E-005 |       eV/A | Yes | <-- LBFGS
 |  |dR|max  |   0.000000E+000 |   1.000000E-005 |          A | No  | <-- LBFGS
 |   Smax    |   9.998418E+000 |   1.000000E-005 |        GPa | No  | <-- LBFGS
 +-----------+-----------------+-----------------+------------+-----+ <-- LBFGS
  

================================================================================
 Starting LBFGS iteration          1 ...
================================================================================
  
 +------------+-------------+-------------+-----------------+ <-- min LBFGS
 |    Step    |   lambda    |   F.delta'  |    enthalpy     | <-- min LBFGS
 +------------+-------------+-------------+-----------------+ <-- min LBFGS
 |  previous  |    0.000000 |    0.072395 |     -110.433536 | <-- min LBFGS
 +------------+-------------+-------------+-----------------+ <-- min LBFGS
  

--------------------------------------------------------------------------------
 LBFGS: starting iteration         1 with trial guess (lambda=  1.000000)
--------------------------------------------------------------------------------
 
+---------------- MEMORY AND SCRATCH DISK ESTIMATES PER PROCESS --------------+
|                                                     Memory          Disk    |
| Model and support data                               23.7 MB         0.0 MB |
| Electronic energy minimisation requirements           8.2 MB         0.0 MB |
| Geometry minimisation requirements                    9.8 MB         0.0 MB |
|                                               ----------------------------- |
| Approx. total storage required per process           41.7 MB         0.0 MB |
|                                                                             |
| Requirements will fluctuate during execution and may exceed these estimates |
+-----------------------------------------------------------------------------+
 

                           -------------------------------
                                      Unit Cell
                           -------------------------------
        Real Lattice(A)              Reciprocal Lattice(1/A)
     1.9593536    -0.0000000     0.0000000        3.206764315   0.000000000   0.000000000
    -0.0000000     3.1445523     0.0000000        0.000000000   1.998117602   0.000000000
     0.0000000     0.0000000     3.0176243        0.000000000   0.000000000   2.082162894

                       Lattice parameters(A)       Cell Angles
                    a =      1.959354          alpha =   90.000000
                    b =      3.144552          beta  =   90.000000
                    c =      3.017624          gamma =   90.000000

                Current cell volume =            18.592458 A**3

                           -------------------------------
                                     Cell Contents
                           -------------------------------

            xxxxxxxxxxxxxxxxxxxxxxxxxxxxxxxxxxxxxxxxxxxxxxxxxxxxxxxxxxxxxxxxx
            x  Element         Atom        Fractional coordinates of atoms  x
            x                 Number           u          v          w      x
            x---------------------------------------------------------------x
            x  H                 1         0.000000   0.390765   0.448166   x
            x  H                 2         0.000000   0.109235   0.948166   x
            x  H                 3        -0.000000   0.890765   0.051834   x
            x  H                 4         0.000000   0.609235   0.551834   x
            x  H                 5         0.500000   0.890765   0.448166   x
            x  H                 6         0.500000   0.609235   0.948166   x
            x  H                 7         0.500000   0.390765   0.051834   x
            x  H                 8         0.500000   0.109235   0.551834   x
            xxxxxxxxxxxxxxxxxxxxxxxxxxxxxxxxxxxxxxxxxxxxxxxxxxxxxxxxxxxxxxxxx


------------------------------------------------------------------------ <-- SCF
SCF loop      Energy                           Energy gain       Timer   <-- SCF
                                               per atom          (sec)   <-- SCF
------------------------------------------------------------------------ <-- SCF
Initial  -1.20888757E+002                                         16.03  <-- SCF
      1  -1.20893374E+002                    5.77106340E-004      16.37  <-- SCF
      2  -1.20893387E+002                    1.70557772E-006      16.91  <-- SCF
      3  -1.20893287E+002                   -1.25249156E-005      17.45  <-- SCF
      4  -1.20893284E+002                   -3.24155415E-007      17.98  <-- SCF
      5  -1.20893284E+002                    1.28088837E-008      18.52  <-- SCF
      6  -1.20893284E+002                    1.22215906E-009      19.06  <-- SCF
      7  -1.20893284E+002                    3.17514534E-012      19.48  <-- SCF
      8  -1.20893284E+002                    7.19014834E-013      19.90  <-- SCF
------------------------------------------------------------------------ <-- SCF
 
Final energy =  -120.8932844892     eV
(energy not corrected for finite basis set)
 

 ******************************** Symmetrised Forces ********************************
 *                                                                                  *
 *                           Cartesian components (eV/A)                            *
 * -------------------------------------------------------------------------------- *
 *                         x                    y                    z              *
 *                                                                                  *
 * H               1     -0.00000              0.12606              0.05870         *
 * H               2      0.00000             -0.12606              0.05870         *
 * H               3      0.00000              0.12606             -0.05870         *
 * H               4      0.00000             -0.12606             -0.05870         *
 * H               5     -0.00000              0.12606              0.05870         *
 * H               6      0.00000             -0.12606              0.05870         *
 * H               7      0.00000              0.12606             -0.05870         *
 * H               8      0.00000             -0.12606             -0.05870         *
 *                                                                                  *
 ************************************************************************************

 *********** Symmetrised Stress Tensor ***********
 *                                               *
 *          Cartesian components (GPa)           *
 * --------------------------------------------- *
 *             x             y             z     *
 *                                               *
 *  x    -95.083570      0.000000      0.000000  *
 *  y      0.000000    -91.705889      0.000000  *
 *  z      0.000000      0.000000    -94.611774  *
 *                                               *
 *  Pressure:   93.8004                          *
 *                                               *
 *************************************************
  
 +------------+-------------+-------------+-----------------+ <-- min LBFGS
 |    Step    |   lambda    |   F.delta'  |    enthalpy     | <-- min LBFGS
 +------------+-------------+-------------+-----------------+ <-- min LBFGS
 |  previous  |    0.000000 |    0.072395 |     -110.433536 | <-- min LBFGS
 | trial step |    1.000000 |    0.027885 |     -110.449237 | <-- min LBFGS
 +------------+-------------+-------------+-----------------+ <-- min LBFGS
  

--------------------------------------------------------------------------------
 LBFGS: improving iteration         1 with line minimization (lambda=  1.626497)
--------------------------------------------------------------------------------
 
+---------------- MEMORY AND SCRATCH DISK ESTIMATES PER PROCESS --------------+
|                                                     Memory          Disk    |
| Model and support data                               23.7 MB         0.0 MB |
| Electronic energy minimisation requirements           8.3 MB         0.0 MB |
| Geometry minimisation requirements                    9.9 MB         0.0 MB |
|                                               ----------------------------- |
| Approx. total storage required per process           41.8 MB         0.0 MB |
|                                                                             |
| Requirements will fluctuate during execution and may exceed these estimates |
+-----------------------------------------------------------------------------+
 

                           -------------------------------
                                      Unit Cell
                           -------------------------------
        Real Lattice(A)              Reciprocal Lattice(1/A)
     1.9674817    -0.0000000     0.0000000        3.193516574   0.000000000   0.000000000
    -0.0000000     3.1575970     0.0000000        0.000000000   1.989862988   0.000000000
     0.0000000     0.0000000     3.0301424        0.000000000   0.000000000   2.073561090

                       Lattice parameters(A)       Cell Angles
                    a =      1.967482          alpha =   90.000000
                    b =      3.157597          beta  =   90.000000
                    c =      3.030142          gamma =   90.000000

                Current cell volume =            18.824802 A**3

                           -------------------------------
                                     Cell Contents
                           -------------------------------

            xxxxxxxxxxxxxxxxxxxxxxxxxxxxxxxxxxxxxxxxxxxxxxxxxxxxxxxxxxxxxxxxx
            x  Element         Atom        Fractional coordinates of atoms  x
            x                 Number           u          v          w      x
            x---------------------------------------------------------------x
            x  H                 1         0.000000   0.390765   0.448166   x
            x  H                 2         0.000000   0.109235   0.948166   x
            x  H                 3        -0.000000   0.890765   0.051834   x
            x  H                 4         0.000000   0.609235   0.551834   x
            x  H                 5         0.500000   0.890765   0.448166   x
            x  H                 6         0.500000   0.609235   0.948166   x
            x  H                 7         0.500000   0.390765   0.051834   x
            x  H                 8         0.500000   0.109235   0.551834   x
            xxxxxxxxxxxxxxxxxxxxxxxxxxxxxxxxxxxxxxxxxxxxxxxxxxxxxxxxxxxxxxxxx


------------------------------------------------------------------------ <-- SCF
SCF loop      Energy                           Energy gain       Timer   <-- SCF
                                               per atom          (sec)   <-- SCF
------------------------------------------------------------------------ <-- SCF
Initial  -1.21024393E+002                                         20.78  <-- SCF
      1  -1.21026578E+002                    2.73028094E-004      21.13  <-- SCF
      2  -1.21026583E+002                    7.28815495E-007      21.68  <-- SCF
      3  -1.21026544E+002                   -4.95528375E-006      22.22  <-- SCF
      4  -1.21026543E+002                   -1.28054288E-007      22.77  <-- SCF
      5  -1.21026543E+002                    5.14411610E-009      23.32  <-- SCF
      6  -1.21026543E+002                    4.92431508E-010      23.86  <-- SCF
      7  -1.21026543E+002                    1.71596817E-012      24.28  <-- SCF
      8  -1.21026543E+002                   -3.32317780E-013      24.71  <-- SCF
------------------------------------------------------------------------ <-- SCF
 
Final energy =  -121.0265428487     eV
(energy not corrected for finite basis set)
 

 ******************************** Symmetrised Forces ********************************
 *                                                                                  *
 *                           Cartesian components (eV/A)                            *
 * -------------------------------------------------------------------------------- *
 *                         x                    y                    z              *
 *                                                                                  *
 * H               1      0.00000              0.20345              0.09467         *
 * H               2      0.00000             -0.20345              0.09467         *
 * H               3      0.00000              0.20345             -0.09467         *
 * H               4      0.00000             -0.20345             -0.09467         *
 * H               5      0.00000              0.20345              0.09467         *
 * H               6     -0.00000             -0.20345              0.09467         *
 * H               7      0.00000              0.20345             -0.09467         *
 * H               8      0.00000             -0.20345             -0.09467         *
 *                                                                                  *
 ************************************************************************************

 *********** Symmetrised Stress Tensor ***********
 *                                               *
 *          Cartesian components (GPa)           *
 * --------------------------------------------- *
 *             x             y             z     *
 *                                               *
 *  x    -92.136824     -0.000000      0.000000  *
 *  y     -0.000000    -86.732472      0.000000  *
 *  z      0.000000      0.000000    -91.378406  *
 *                                               *
 *  Pressure:   90.0826                          *
 *                                               *
 *************************************************
  
 +------------+-------------+-------------+-----------------+ <-- min LBFGS
 |    Step    |   lambda    |   F.delta'  |    enthalpy     | <-- min LBFGS
 +------------+-------------+-------------+-----------------+ <-- min LBFGS
 |  previous  |    0.000000 |    0.072395 |     -110.433536 | <-- min LBFGS
 | trial step |    1.000000 |    0.027885 |     -110.449237 | <-- min LBFGS
 |  line step |    1.626497 |    0.000610 |     -110.451993 | <-- min LBFGS
 +------------+-------------+-------------+-----------------+ <-- min LBFGS
  
 LBFGS: finished iteration     1 with enthalpy= -1.10451993E+002 eV
  
 +-----------+-----------------+-----------------+------------+-----+ <-- LBFGS
 | Parameter |      value      |    tolerance    |    units   | OK? | <-- LBFGS
 +-----------+-----------------+-----------------+------------+-----+ <-- LBFGS
 |  dE/ion   |   2.307073E-003 |   1.000000E-009 |         eV | No  | <-- LBFGS
 |  |F|max   |   2.243938E-001 |   1.000000E-005 |       eV/A | No  | <-- LBFGS
 |  |dR|max  |   1.360674E-007 |   1.000000E-005 |          A | Yes | <-- LBFGS
 |   Smax    |   3.267528E+000 |   1.000000E-005 |        GPa | No  | <-- LBFGS
 +-----------+-----------------+-----------------+------------+-----+ <-- LBFGS
  

================================================================================
 Starting LBFGS iteration          2 ...
================================================================================
  
 +------------+-------------+-------------+-----------------+ <-- min LBFGS
 |    Step    |   lambda    |   F.delta'  |    enthalpy     | <-- min LBFGS
 +------------+-------------+-------------+-----------------+ <-- min LBFGS
 |  previous  |    0.000000 |    0.052046 |     -110.451993 | <-- min LBFGS
 +------------+-------------+-------------+-----------------+ <-- min LBFGS
  

--------------------------------------------------------------------------------
 LBFGS: starting iteration         2 with trial guess (lambda=  1.000000)
--------------------------------------------------------------------------------
 
+---------------- MEMORY AND SCRATCH DISK ESTIMATES PER PROCESS --------------+
|                                                     Memory          Disk    |
| Model and support data                               24.3 MB         0.0 MB |
| Electronic energy minimisation requirements           8.8 MB         0.0 MB |
| Geometry minimisation requirements                   10.4 MB         0.0 MB |
|                                               ----------------------------- |
| Approx. total storage required per process           43.5 MB         0.0 MB |
|                                                                             |
| Requirements will fluctuate during execution and may exceed these estimates |
+-----------------------------------------------------------------------------+
 

                           -------------------------------
                                      Unit Cell
                           -------------------------------
        Real Lattice(A)              Reciprocal Lattice(1/A)
     1.9943559    -0.0000000     0.0000000        3.150483437   0.000000000   0.000000000
    -0.0000000     3.1891297     0.0000000        0.000000000   1.970188070   0.000000000
     0.0000000     0.0000000     3.0699699        0.000000000   0.000000000   2.046660241

                       Lattice parameters(A)       Cell Angles
                    a =      1.994356          alpha =   90.000000
                    b =      3.189130          beta  =   90.000000
                    c =      3.069970          gamma =   90.000000

                Current cell volume =            19.525806 A**3

                           -------------------------------
                                     Cell Contents
                           -------------------------------

            xxxxxxxxxxxxxxxxxxxxxxxxxxxxxxxxxxxxxxxxxxxxxxxxxxxxxxxxxxxxxxxxx
            x  Element         Atom        Fractional coordinates of atoms  x
            x                 Number           u          v          w      x
            x---------------------------------------------------------------x
            x  H                 1         0.000000   0.397205   0.451289   x
            x  H                 2         0.000000   0.102795   0.951289   x
            x  H                 3        -0.000000   0.897205   0.048711   x
            x  H                 4        -0.000000   0.602795   0.548711   x
            x  H                 5         0.500000   0.897205   0.451289   x
            x  H                 6         0.500000   0.602795   0.951289   x
            x  H                 7         0.500000   0.397205   0.048711   x
            x  H                 8         0.500000   0.102795   0.548711   x
            xxxxxxxxxxxxxxxxxxxxxxxxxxxxxxxxxxxxxxxxxxxxxxxxxxxxxxxxxxxxxxxxx


------------------------------------------------------------------------ <-- SCF
SCF loop      Energy                           Energy gain       Timer   <-- SCF
                                               per atom          (sec)   <-- SCF
------------------------------------------------------------------------ <-- SCF
Initial  -1.20946292E+002                                         25.64  <-- SCF
      1  -1.21417428E+002                    5.88920580E-002      26.03  <-- SCF
      2  -1.21419063E+002                    2.04338572E-004      26.62  <-- SCF
      3  -1.21383751E+002                   -4.41399424E-003      27.21  <-- SCF
      4  -1.21382328E+002                   -1.77952215E-004      27.81  <-- SCF
      5  -1.21382338E+002                    1.33925302E-006      28.40  <-- SCF
      6  -1.21382339E+002                    1.20493965E-007      29.01  <-- SCF
      7  -1.21382339E+002                    4.30324336E-010      29.59  <-- SCF
      8  -1.21382339E+002                    2.49057071E-011      30.05  <-- SCF
      9  -1.21382339E+002                    9.51637280E-013      30.51  <-- SCF
     10  -1.21382339E+002                   -1.93348527E-013      30.97  <-- SCF
------------------------------------------------------------------------ <-- SCF
 
Final energy =  -121.3823391945     eV
(energy not corrected for finite basis set)
 

 ******************************** Symmetrised Forces ********************************
 *                                                                                  *
 *                           Cartesian components (eV/A)                            *
 * -------------------------------------------------------------------------------- *
 *                         x                    y                    z              *
 *                                                                                  *
 * H               1     -0.00000             -0.64958             -0.32710         *
 * H               2      0.00000              0.64958             -0.32710         *
 * H               3     -0.00000             -0.64958              0.32710         *
 * H               4      0.00000              0.64958              0.32710         *
 * H               5     -0.00000             -0.64958             -0.32710         *
 * H               6      0.00000              0.64958             -0.32710         *
 * H               7     -0.00000             -0.64958              0.32710         *
 * H               8      0.00000              0.64958              0.32710         *
 *                                                                                  *
 ************************************************************************************

 *********** Symmetrised Stress Tensor ***********
 *                                               *
 *          Cartesian components (GPa)           *
 * --------------------------------------------- *
 *             x             y             z     *
 *                                               *
 *  x    -87.047046      0.000000      0.000000  *
 *  y      0.000000    -97.212971      0.000000  *
 *  z      0.000000      0.000000    -89.175970  *
 *                                               *
 *  Pressure:   91.1453                          *
 *                                               *
 *************************************************
  
 +------------+-------------+-------------+-----------------+ <-- min LBFGS
 |    Step    |   lambda    |   F.delta'  |    enthalpy     | <-- min LBFGS
 +------------+-------------+-------------+-----------------+ <-- min LBFGS
 |  previous  |    0.000000 |    0.052046 |     -110.451993 | <-- min LBFGS
 | trial step |    1.000000 |   -0.160248 |     -110.414004 | <-- min LBFGS
 +------------+-------------+-------------+-----------------+ <-- min LBFGS
  

--------------------------------------------------------------------------------
 LBFGS: improving iteration         2 with line minimization (lambda=  0.245161)
--------------------------------------------------------------------------------

                           -------------------------------
                                      Unit Cell
                           -------------------------------
        Real Lattice(A)              Reciprocal Lattice(1/A)
     1.9740702    -0.0000000     0.0000000        3.182858114   0.000000000   0.000000000
    -0.0000000     3.1653276     0.0000000        0.000000000   1.985003194   0.000000000
     0.0000000     0.0000000     3.0399065        0.000000000   0.000000000   2.066900829

                       Lattice parameters(A)       Cell Angles
                    a =      1.974070          alpha =   90.000000
                    b =      3.165328          beta  =   90.000000
                    c =      3.039907          gamma =   90.000000

                Current cell volume =            18.995095 A**3

                           -------------------------------
                                     Cell Contents
                           -------------------------------

            xxxxxxxxxxxxxxxxxxxxxxxxxxxxxxxxxxxxxxxxxxxxxxxxxxxxxxxxxxxxxxxxx
            x  Element         Atom        Fractional coordinates of atoms  x
            x                 Number           u          v          w      x
            x---------------------------------------------------------------x
            x  H                 1         0.000000   0.392344   0.448932   x
            x  H                 2         0.000000   0.107656   0.948932   x
            x  H                 3        -0.000000   0.892344   0.051068   x
            x  H                 4         0.000000   0.607656   0.551068   x
            x  H                 5         0.500000   0.892344   0.448932   x
            x  H                 6         0.500000   0.607656   0.948932   x
            x  H                 7         0.500000   0.392344   0.051068   x
            x  H                 8         0.500000   0.107656   0.551068   x
            xxxxxxxxxxxxxxxxxxxxxxxxxxxxxxxxxxxxxxxxxxxxxxxxxxxxxxxxxxxxxxxxx


------------------------------------------------------------------------ <-- SCF
SCF loop      Energy                           Energy gain       Timer   <-- SCF
                                               per atom          (sec)   <-- SCF
------------------------------------------------------------------------ <-- SCF
Initial  -1.20870542E+002                                         31.91  <-- SCF
      1  -1.21148916E+002                    3.47967879E-002      32.26  <-- SCF
      2  -1.21150011E+002                    1.36936197E-004      32.81  <-- SCF
      3  -1.21129106E+002                   -2.61321751E-003      33.36  <-- SCF
      4  -1.21128266E+002                   -1.04968384E-004      33.91  <-- SCF
      5  -1.21128271E+002                    5.66761567E-007      34.46  <-- SCF
      6  -1.21128271E+002                    4.62235725E-008      34.99  <-- SCF
      7  -1.21128271E+002                    1.21341306E-010      35.44  <-- SCF
      8  -1.21128271E+002                    1.03260198E-011      35.86  <-- SCF
      9  -1.21128271E+002                    8.33815521E-013      36.29  <-- SCF
     10  -1.21128271E+002                   -3.17212427E-013      36.71  <-- SCF
------------------------------------------------------------------------ <-- SCF
 
Final energy =  -121.1282708990     eV
(energy not corrected for finite basis set)
 

 ******************************** Symmetrised Forces ********************************
 *                                                                                  *
 *                           Cartesian components (eV/A)                            *
 * -------------------------------------------------------------------------------- *
 *                         x                    y                    z              *
 *                                                                                  *
 * H               1     -0.00000              0.02929              0.00658         *
 * H               2     -0.00000             -0.02929              0.00658         *
 * H               3     -0.00000              0.02929             -0.00658         *
 * H               4     -0.00000             -0.02929             -0.00658         *
 * H               5     -0.00000              0.02929              0.00658         *
 * H               6      0.00000             -0.02929              0.00658         *
 * H               7     -0.00000              0.02929             -0.00658         *
 * H               8     -0.00000             -0.02929             -0.00658         *
 *                                                                                  *
 ************************************************************************************

 *********** Symmetrised Stress Tensor ***********
 *                                               *
 *          Cartesian components (GPa)           *
 * --------------------------------------------- *
 *             x             y             z     *
 *                                               *
 *  x    -91.023877     -0.000000      0.000000  *
 *  y     -0.000000    -88.680960      0.000000  *
 *  z      0.000000      0.000000    -90.760027  *
 *                                               *
 *  Pressure:   90.1550                          *
 *                                               *
 *************************************************
  
 +------------+-------------+-------------+-----------------+ <-- min LBFGS
 |    Step    |   lambda    |   F.delta'  |    enthalpy     | <-- min LBFGS
 +------------+-------------+-------------+-----------------+ <-- min LBFGS
 |  previous  |    0.000000 |    0.052046 |     -110.451993 | <-- min LBFGS
 | trial step |    1.000000 |   -0.160248 |     -110.414004 | <-- min LBFGS
 |  line step |    0.245161 |    0.008122 |     -110.458032 | <-- min LBFGS
 +------------+-------------+-------------+-----------------+ <-- min LBFGS
  
 LBFGS: finished iteration     2 with enthalpy= -1.10458032E+002 eV
  
 +-----------+-----------------+-----------------+------------+-----+ <-- LBFGS
 | Parameter |      value      |    tolerance    |    units   | OK? | <-- LBFGS
 +-----------+-----------------+-----------------+------------+-----+ <-- LBFGS
 |  dE/ion   |   7.548933E-004 |   1.000000E-009 |         eV | No  | <-- LBFGS
 |  |F|max   |   3.002196E-002 |   1.000000E-005 |       eV/A | No  | <-- LBFGS
 |  |dR|max  |   5.512531E-003 |   1.000000E-005 |          A | No  | <-- LBFGS
 |   Smax    |   1.319040E+000 |   1.000000E-005 |        GPa | No  | <-- LBFGS
 +-----------+-----------------+-----------------+------------+-----+ <-- LBFGS
  

================================================================================
 Starting LBFGS iteration          3 ...
================================================================================
  
 +------------+-------------+-------------+-----------------+ <-- min LBFGS
 |    Step    |   lambda    |   F.delta'  |    enthalpy     | <-- min LBFGS
 +------------+-------------+-------------+-----------------+ <-- min LBFGS
 |  previous  |    0.000000 |    0.009312 |     -110.458032 | <-- min LBFGS
 +------------+-------------+-------------+-----------------+ <-- min LBFGS
  

--------------------------------------------------------------------------------
 LBFGS: starting iteration         3 with trial guess (lambda=  1.000000)
--------------------------------------------------------------------------------

                           -------------------------------
                                      Unit Cell
                           -------------------------------
        Real Lattice(A)              Reciprocal Lattice(1/A)
     1.9767198    -0.0000000     0.0000000        3.178591779   0.000000000   0.000000000
    -0.0000000     3.1649718     0.0000000        0.000000000   1.985226317   0.000000000
     0.0000000     0.0000000     3.0435253        0.000000000   0.000000000   2.064443257

                       Lattice parameters(A)       Cell Angles
                    a =      1.976720          alpha =   90.000000
                    b =      3.164972          beta  =   90.000000
                    c =      3.043525          gamma =   90.000000

                Current cell volume =            19.041093 A**3

                           -------------------------------
                                     Cell Contents
                           -------------------------------

            xxxxxxxxxxxxxxxxxxxxxxxxxxxxxxxxxxxxxxxxxxxxxxxxxxxxxxxxxxxxxxxxx
            x  Element         Atom        Fractional coordinates of atoms  x
            x                 Number           u          v          w      x
            x---------------------------------------------------------------x
            x  H                 1         0.000000   0.392694   0.448828   x
            x  H                 2        -0.000000   0.107306   0.948828   x
            x  H                 3        -0.000000   0.892694   0.051172   x
            x  H                 4         0.000000   0.607306   0.551172   x
            x  H                 5         0.500000   0.892694   0.448828   x
            x  H                 6         0.500000   0.607306   0.948828   x
            x  H                 7         0.500000   0.392694   0.051172   x
            x  H                 8         0.500000   0.107306   0.551172   x
            xxxxxxxxxxxxxxxxxxxxxxxxxxxxxxxxxxxxxxxxxxxxxxxxxxxxxxxxxxxxxxxxx


------------------------------------------------------------------------ <-- SCF
SCF loop      Energy                           Energy gain       Timer   <-- SCF
                                               per atom          (sec)   <-- SCF
------------------------------------------------------------------------ <-- SCF
Initial  -1.21153044E+002                                         38.19  <-- SCF
      1  -1.21154528E+002                    1.85535111E-004      38.54  <-- SCF
      2  -1.21154534E+002                    6.97576790E-007      39.07  <-- SCF
      3  -1.21154449E+002                   -1.06519401E-005      39.62  <-- SCF
      4  -1.21154445E+002                   -4.44582578E-007      40.16  <-- SCF
      5  -1.21154445E+002                    2.76532803E-009      40.71  <-- SCF
      6  -1.21154445E+002                    2.27250982E-010      41.37  <-- SCF
      7  -1.21154445E+002                    9.48616209E-013      41.80  <-- SCF
      8  -1.21154445E+002                    9.96953341E-014      42.21  <-- SCF
------------------------------------------------------------------------ <-- SCF
 
Final energy =  -121.1544452128     eV
(energy not corrected for finite basis set)
 

 ******************************** Symmetrised Forces ********************************
 *                                                                                  *
 *                           Cartesian components (eV/A)                            *
 * -------------------------------------------------------------------------------- *
 *                         x                    y                    z              *
 *                                                                                  *
 * H               1     -0.00000             -0.00184             -0.00858         *
 * H               2      0.00000              0.00184             -0.00858         *
 * H               3     -0.00000             -0.00184              0.00858         *
 * H               4      0.00000              0.00184              0.00858         *
 * H               5     -0.00000             -0.00184             -0.00858         *
 * H               6      0.00000              0.00184             -0.00858         *
 * H               7     -0.00000             -0.00184              0.00858         *
 * H               8      0.00000              0.00184              0.00858         *
 *                                                                                  *
 ************************************************************************************

 *********** Symmetrised Stress Tensor ***********
 *                                               *
 *          Cartesian components (GPa)           *
 * --------------------------------------------- *
 *             x             y             z     *
 *                                               *
 *  x    -90.594763     -0.000000      0.000000  *
 *  y     -0.000000    -89.140593      0.000000  *
 *  z      0.000000      0.000000    -90.305903  *
 *                                               *
 *  Pressure:   90.0138                          *
 *                                               *
 *************************************************
  
 +------------+-------------+-------------+-----------------+ <-- min LBFGS
 |    Step    |   lambda    |   F.delta'  |    enthalpy     | <-- min LBFGS
 +------------+-------------+-------------+-----------------+ <-- min LBFGS
 |  previous  |    0.000000 |    0.009312 |     -110.458032 | <-- min LBFGS
 | trial step |    1.000000 |    0.002715 |     -110.458378 | <-- min LBFGS
 +------------+-------------+-------------+-----------------+ <-- min LBFGS
  

--------------------------------------------------------------------------------
 LBFGS: improving iteration         3 with line minimization (lambda=  1.411488)
--------------------------------------------------------------------------------

                           -------------------------------
                                      Unit Cell
                           -------------------------------
        Real Lattice(A)              Reciprocal Lattice(1/A)
     1.9778101    -0.0000000     0.0000000        3.176839553   0.000000000   0.000000000
    -0.0000000     3.1648254     0.0000000        0.000000000   1.985318143   0.000000000
     0.0000000     0.0000000     3.0450144        0.000000000   0.000000000   2.063433691

                       Lattice parameters(A)       Cell Angles
                    a =      1.977810          alpha =   90.000000
                    b =      3.164825          beta  =   90.000000
                    c =      3.045014          gamma =   90.000000

                Current cell volume =            19.060035 A**3

                           -------------------------------
                                     Cell Contents
                           -------------------------------

            xxxxxxxxxxxxxxxxxxxxxxxxxxxxxxxxxxxxxxxxxxxxxxxxxxxxxxxxxxxxxxxxx
            x  Element         Atom        Fractional coordinates of atoms  x
            x                 Number           u          v          w      x
            x---------------------------------------------------------------x
            x  H                 1         0.000000   0.392838   0.448785   x
            x  H                 2        -0.000000   0.107162   0.948785   x
            x  H                 3        -0.000000   0.892838   0.051215   x
            x  H                 4         0.000000   0.607162   0.551215   x
            x  H                 5         0.500000   0.892838   0.448785   x
            x  H                 6         0.500000   0.607162   0.948785   x
            x  H                 7         0.500000   0.392838   0.051215   x
            x  H                 8         0.500000   0.107162   0.551215   x
            xxxxxxxxxxxxxxxxxxxxxxxxxxxxxxxxxxxxxxxxxxxxxxxxxxxxxxxxxxxxxxxxx


------------------------------------------------------------------------ <-- SCF
SCF loop      Energy                           Energy gain       Timer   <-- SCF
                                               per atom          (sec)   <-- SCF
------------------------------------------------------------------------ <-- SCF
Initial  -1.21164824E+002                                         43.10  <-- SCF
      1  -1.21165135E+002                    3.88309412E-005      43.45  <-- SCF
      2  -1.21165136E+002                    1.30563698E-007      43.99  <-- SCF
      3  -1.21165122E+002                   -1.79797282E-006      44.53  <-- SCF
      4  -1.21165121E+002                   -7.46921552E-008      45.08  <-- SCF
      5  -1.21165121E+002                    4.65846085E-010      45.61  <-- SCF
      6  -1.21165121E+002                    3.84159354E-011      46.03  <-- SCF
      7  -1.21165121E+002                    5.67961297E-013      46.45  <-- SCF
      8  -1.21165121E+002                   -4.77329175E-013      46.87  <-- SCF
------------------------------------------------------------------------ <-- SCF
 
Final energy =  -121.1651209436     eV
(energy not corrected for finite basis set)
 

 ******************************** Symmetrised Forces ********************************
 *                                                                                  *
 *                           Cartesian components (eV/A)                            *
 * -------------------------------------------------------------------------------- *
 *                         x                    y                    z              *
 *                                                                                  *
 * H               1     -0.00000             -0.01490             -0.01499         *
 * H               2     -0.00000              0.01490             -0.01499         *
 * H               3     -0.00000             -0.01490              0.01499         *
 * H               4      0.00000              0.01490              0.01499         *
 * H               5     -0.00000             -0.01490             -0.01499         *
 * H               6     -0.00000              0.01490             -0.01499         *
 * H               7     -0.00000             -0.01490              0.01499         *
 * H               8      0.00000              0.01490              0.01499         *
 *                                                                                  *
 ************************************************************************************

 *********** Symmetrised Stress Tensor ***********
 *                                               *
 *          Cartesian components (GPa)           *
 * --------------------------------------------- *
 *             x             y             z     *
 *                                               *
 *  x    -90.415550     -0.000000      0.000000  *
 *  y     -0.000000    -89.334612      0.000000  *
 *  z      0.000000      0.000000    -90.119583  *
 *                                               *
 *  Pressure:   89.9566                          *
 *                                               *
 *************************************************
  
 +------------+-------------+-------------+-----------------+ <-- min LBFGS
 |    Step    |   lambda    |   F.delta'  |    enthalpy     | <-- min LBFGS
 +------------+-------------+-------------+-----------------+ <-- min LBFGS
 |  previous  |    0.000000 |    0.009312 |     -110.458032 | <-- min LBFGS
 | trial step |    1.000000 |    0.002715 |     -110.458378 | <-- min LBFGS
 |  line step |    1.411488 |   -0.000040 |     -110.458410 | <-- min LBFGS
 +------------+-------------+-------------+-----------------+ <-- min LBFGS
  
 LBFGS: finished iteration     3 with enthalpy= -1.10458410E+002 eV
  
 +-----------+-----------------+-----------------+------------+-----+ <-- LBFGS
 | Parameter |      value      |    tolerance    |    units   | OK? | <-- LBFGS
 +-----------+-----------------+-----------------+------------+-----+ <-- LBFGS
 |  dE/ion   |   4.726365E-005 |   1.000000E-009 |         eV | No  | <-- LBFGS
 |  |F|max   |   2.113231E-002 |   1.000000E-005 |       eV/A | No  | <-- LBFGS
 |  |dR|max  |   1.627107E-003 |   1.000000E-005 |          A | No  | <-- LBFGS
 |   Smax    |   6.653878E-001 |   1.000000E-005 |        GPa | No  | <-- LBFGS
 +-----------+-----------------+-----------------+------------+-----+ <-- LBFGS
  

================================================================================
 Starting LBFGS iteration          4 ...
================================================================================
  
 +------------+-------------+-------------+-----------------+ <-- min LBFGS
 |    Step    |   lambda    |   F.delta'  |    enthalpy     | <-- min LBFGS
 +------------+-------------+-------------+-----------------+ <-- min LBFGS
 |  previous  |    0.000000 |    0.005286 |     -110.458410 | <-- min LBFGS
 +------------+-------------+-------------+-----------------+ <-- min LBFGS
  

--------------------------------------------------------------------------------
 LBFGS: starting iteration         4 with trial guess (lambda=  1.000000)
--------------------------------------------------------------------------------

                           -------------------------------
                                      Unit Cell
                           -------------------------------
        Real Lattice(A)              Reciprocal Lattice(1/A)
     1.9789055    -0.0000000     0.0000000        3.175081105   0.000000000   0.000000000
    -0.0000000     3.1621863     0.0000000        0.000000000   1.986975067   0.000000000
     0.0000000     0.0000000     3.0458614        0.000000000   0.000000000   2.062859917

                       Lattice parameters(A)       Cell Angles
                    a =      1.978905          alpha =   90.000000
                    b =      3.162186          beta  =   90.000000
                    c =      3.045861          gamma =   90.000000

                Current cell volume =            19.059988 A**3

                           -------------------------------
                                     Cell Contents
                           -------------------------------

            xxxxxxxxxxxxxxxxxxxxxxxxxxxxxxxxxxxxxxxxxxxxxxxxxxxxxxxxxxxxxxxxx
            x  Element         Atom        Fractional coordinates of atoms  x
            x                 Number           u          v          w      x
            x---------------------------------------------------------------x
            x  H                 1        -0.000000   0.392876   0.448459   x
            x  H                 2        -0.000000   0.107124   0.948459   x
            x  H                 3        -0.000000   0.892876   0.051541   x
            x  H                 4        -0.000000   0.607124   0.551541   x
            x  H                 5         0.500000   0.892876   0.448459   x
            x  H                 6         0.500000   0.607124   0.948459   x
            x  H                 7         0.500000   0.392876   0.051541   x
            x  H                 8         0.500000   0.107124   0.551541   x
            xxxxxxxxxxxxxxxxxxxxxxxxxxxxxxxxxxxxxxxxxxxxxxxxxxxxxxxxxxxxxxxxx


------------------------------------------------------------------------ <-- SCF
SCF loop      Energy                           Energy gain       Timer   <-- SCF
                                               per atom          (sec)   <-- SCF
------------------------------------------------------------------------ <-- SCF
Initial  -1.21164857E+002                                         47.78  <-- SCF
      1  -1.21165255E+002                    4.98431204E-005      48.12  <-- SCF
      2  -1.21165258E+002                    3.54127863E-007      48.67  <-- SCF
      3  -1.21165266E+002                    9.88986110E-007      49.21  <-- SCF
      4  -1.21165267E+002                    7.89236904E-008      49.74  <-- SCF
      5  -1.21165267E+002                    3.76969206E-010      50.19  <-- SCF
      6  -1.21165267E+002                    3.64220287E-011      50.61  <-- SCF
      7  -1.21165267E+002                    3.59507417E-013      51.04  <-- SCF
      8  -1.21165267E+002                   -4.19928831E-013      51.45  <-- SCF
------------------------------------------------------------------------ <-- SCF
 
Final energy =  -121.1652668150     eV
(energy not corrected for finite basis set)
 

 ******************************** Symmetrised Forces ********************************
 *                                                                                  *
 *                           Cartesian components (eV/A)                            *
 * -------------------------------------------------------------------------------- *
 *                         x                    y                    z              *
 *                                                                                  *
 * H               1      0.00000             -0.00908             -0.01140         *
 * H               2      0.00000              0.00908             -0.01140         *
 * H               3      0.00000             -0.00908              0.01140         *
 * H               4      0.00000              0.00908              0.01140         *
 * H               5      0.00000             -0.00908             -0.01140         *
 * H               6      0.00000              0.00908             -0.01140         *
 * H               7      0.00000             -0.00908              0.01140         *
 * H               8      0.00000              0.00908              0.01140         *
 *                                                                                  *
 ************************************************************************************

 *********** Symmetrised Stress Tensor ***********
 *                                               *
 *          Cartesian components (GPa)           *
 * --------------------------------------------- *
 *             x             y             z     *
 *                                               *
 *  x    -90.347543      0.000000      0.000000  *
 *  y      0.000000    -89.515203      0.000000  *
 *  z      0.000000      0.000000    -89.941306  *
 *                                               *
 *  Pressure:   89.9347                          *
 *                                               *
 *************************************************
  
 +------------+-------------+-------------+-----------------+ <-- min LBFGS
 |    Step    |   lambda    |   F.delta'  |    enthalpy     | <-- min LBFGS
 +------------+-------------+-------------+-----------------+ <-- min LBFGS
 |  previous  |    0.000000 |    0.005286 |     -110.458410 | <-- min LBFGS
 | trial step |    1.000000 |    0.003948 |     -110.458586 | <-- min LBFGS
 +------------+-------------+-------------+-----------------+ <-- min LBFGS
  

--------------------------------------------------------------------------------
 LBFGS: improving iteration         4 with line minimization (lambda=  3.952942)
--------------------------------------------------------------------------------

                           -------------------------------
                                      Unit Cell
                           -------------------------------
        Real Lattice(A)              Reciprocal Lattice(1/A)
     1.9821400    -0.0000000     0.0000000        3.169899851   0.000000000   0.000000000
    -0.0000000     3.1543931     0.0000000        0.000000000   1.991884047   0.000000000
     0.0000000     0.0000000     3.0483624        0.000000000   0.000000000   2.061167456

                       Lattice parameters(A)       Cell Angles
                    a =      1.982140          alpha =   90.000000
                    b =      3.154393          beta  =   90.000000
                    c =      3.048362          gamma =   90.000000

                Current cell volume =            19.059730 A**3

                           -------------------------------
                                     Cell Contents
                           -------------------------------

            xxxxxxxxxxxxxxxxxxxxxxxxxxxxxxxxxxxxxxxxxxxxxxxxxxxxxxxxxxxxxxxxx
            x  Element         Atom        Fractional coordinates of atoms  x
            x                 Number           u          v          w      x
            x---------------------------------------------------------------x
            x  H                 1        -0.000000   0.392989   0.447495   x
            x  H                 2        -0.000000   0.107011   0.947495   x
            x  H                 3        -0.000000   0.892989   0.052505   x
            x  H                 4        -0.000000   0.607011   0.552505   x
            x  H                 5         0.500000   0.892989   0.447495   x
            x  H                 6         0.500000   0.607011   0.947495   x
            x  H                 7         0.500000   0.392989   0.052505   x
            x  H                 8         0.500000   0.107011   0.552505   x
            xxxxxxxxxxxxxxxxxxxxxxxxxxxxxxxxxxxxxxxxxxxxxxxxxxxxxxxxxxxxxxxxx


------------------------------------------------------------------------ <-- SCF
SCF loop      Energy                           Energy gain       Timer   <-- SCF
                                               per atom          (sec)   <-- SCF
------------------------------------------------------------------------ <-- SCF
Initial  -1.21162022E+002                                         52.33  <-- SCF
      1  -1.21165241E+002                    4.02283198E-004      52.68  <-- SCF
      2  -1.21165264E+002                    2.93713289E-006      53.23  <-- SCF
      3  -1.21165332E+002                    8.52469036E-006      53.77  <-- SCF
      4  -1.21165338E+002                    6.82518650E-007      54.32  <-- SCF
      5  -1.21165338E+002                    3.27282260E-009      54.86  <-- SCF
      6  -1.21165338E+002                    3.13499531E-010      55.35  <-- SCF
      7  -1.21165338E+002                    1.42292431E-012      55.77  <-- SCF
      8  -1.21165338E+002                    1.72201032E-013      56.19  <-- SCF
------------------------------------------------------------------------ <-- SCF
 
Final energy =  -121.1653377922     eV
(energy not corrected for finite basis set)
 

 ******************************** Symmetrised Forces ********************************
 *                                                                                  *
 *                           Cartesian components (eV/A)                            *
 * -------------------------------------------------------------------------------- *
 *                         x                    y                    z              *
 *                                                                                  *
 * H               1      0.00000              0.00896             -0.00007         *
 * H               2      0.00000             -0.00896             -0.00007         *
 * H               3     -0.00000              0.00896              0.00007         *
 * H               4     -0.00000             -0.00896              0.00007         *
 * H               5      0.00000              0.00896             -0.00007         *
 * H               6      0.00000             -0.00896             -0.00007         *
 * H               7     -0.00000              0.00896              0.00007         *
 * H               8      0.00000             -0.00896              0.00007         *
 *                                                                                  *
 ************************************************************************************

 *********** Symmetrised Stress Tensor ***********
 *                                               *
 *          Cartesian components (GPa)           *
 * --------------------------------------------- *
 *             x             y             z     *
 *                                               *
 *  x    -90.151510      0.000000      0.000000  *
 *  y      0.000000    -90.035504      0.000000  *
 *  z      0.000000      0.000000    -89.401278  *
 *                                               *
 *  Pressure:   89.8628                          *
 *                                               *
 *************************************************
  
 +------------+-------------+-------------+-----------------+ <-- min LBFGS
 |    Step    |   lambda    |   F.delta'  |    enthalpy     | <-- min LBFGS
 +------------+-------------+-------------+-----------------+ <-- min LBFGS
 |  previous  |    0.000000 |    0.005286 |     -110.458410 | <-- min LBFGS
 | trial step |    1.000000 |    0.003948 |     -110.458586 | <-- min LBFGS
 |  line step |    3.952942 |   -0.000108 |     -110.458800 | <-- min LBFGS
 +------------+-------------+-------------+-----------------+ <-- min LBFGS
  
 LBFGS: finished iteration     4 with enthalpy= -1.10458800E+002 eV
  
 +-----------+-----------------+-----------------+------------+-----+ <-- LBFGS
 | Parameter |      value      |    tolerance    |    units   | OK? | <-- LBFGS
 +-----------+-----------------+-----------------+------------+-----+ <-- LBFGS
 |  dE/ion   |   4.876778E-005 |   1.000000E-009 |         eV | No  | <-- LBFGS
[...]
            x  H                 8         0.500000   0.105323   0.555794   x
            xxxxxxxxxxxxxxxxxxxxxxxxxxxxxxxxxxxxxxxxxxxxxxxxxxxxxxxxxxxxxxxxx


------------------------------------------------------------------------ <-- SCF
SCF loop      Energy                           Energy gain       Timer   <-- SCF
                                               per atom          (sec)   <-- SCF
------------------------------------------------------------------------ <-- SCF
Initial  -1.21203864E+002                                        153.94  <-- SCF
      1  -1.21203864E+002                    1.24166007E-012     154.16  <-- SCF
      2  -1.21203864E+002                    4.53160609E-014     154.58  <-- SCF
      3  -1.21203864E+002                   -3.29296710E-013     155.00  <-- SCF
      4  -1.21203864E+002                    3.29296710E-013     155.43  <-- SCF
------------------------------------------------------------------------ <-- SCF
 
Final energy =  -121.2038638430     eV
(energy not corrected for finite basis set)
 

 ******************************** Symmetrised Forces ********************************
 *                                                                                  *
 *                           Cartesian components (eV/A)                            *
 * -------------------------------------------------------------------------------- *
 *                         x                    y                    z              *
 *                                                                                  *
 * H               1     -0.00000             -0.00000             -0.00000         *
 * H               2      0.00000              0.00000             -0.00000         *
 * H               3      0.00000             -0.00000              0.00000         *
 * H               4      0.00000              0.00000              0.00000         *
 * H               5     -0.00000             -0.00000             -0.00000         *
 * H               6      0.00000              0.00000             -0.00000         *
 * H               7      0.00000             -0.00000              0.00000         *
 * H               8      0.00000              0.00000              0.00000         *
 *                                                                                  *
 ************************************************************************************

 *********** Symmetrised Stress Tensor ***********
 *                                               *
 *          Cartesian components (GPa)           *
 * --------------------------------------------- *
 *             x             y             z     *
 *                                               *
 *  x    -90.000001      0.000000      0.000000  *
 *  y      0.000000    -90.000010      0.000000  *
 *  z      0.000000      0.000000    -89.999987  *
 *                                               *
 *  Pressure:   90.0000                          *
 *                                               *
 *************************************************
  
 +------------+-------------+-------------+-----------------+ <-- min LBFGS
 |    Step    |   lambda    |   F.delta'  |    enthalpy     | <-- min LBFGS
 +------------+-------------+-------------+-----------------+ <-- min LBFGS
 |  previous  |    0.000000 |  8.187E-008 |     -110.461567 | <-- min LBFGS
 | trial step |    1.000000 | -1.229E-008 |     -110.461567 | <-- min LBFGS
 +------------+-------------+-------------+-----------------+ <-- min LBFGS
  
 LBFGS: finished iteration    16 with enthalpy= -1.10461567E+002 eV
  
 +-----------+-----------------+-----------------+------------+-----+ <-- LBFGS
 | Parameter |      value      |    tolerance    |    units   | OK? | <-- LBFGS
 +-----------+-----------------+-----------------+------------+-----+ <-- LBFGS
 |  dE/ion   |   2.114750E-013 |   1.000000E-009 |         eV | Yes | <-- LBFGS
 |  |F|max   |   3.676030E-007 |   1.000000E-005 |       eV/A | Yes | <-- LBFGS
 |  |dR|max  |   1.771116E-007 |   1.000000E-005 |          A | Yes | <-- LBFGS
 |   Smax    |   1.265238E-005 |   1.000000E-005 |        GPa | No  | <-- LBFGS
 +-----------+-----------------+-----------------+------------+-----+ <-- LBFGS
  

================================================================================
 Starting LBFGS iteration         17 ...
================================================================================
  
 +------------+-------------+-------------+-----------------+ <-- min LBFGS
 |    Step    |   lambda    |   F.delta'  |    enthalpy     | <-- min LBFGS
 +------------+-------------+-------------+-----------------+ <-- min LBFGS
 |  previous  |    0.000000 |  6.025E-008 |     -110.461567 | <-- min LBFGS
 +------------+-------------+-------------+-----------------+ <-- min LBFGS
  

--------------------------------------------------------------------------------
 LBFGS: starting iteration        17 with trial guess (lambda=  1.000000)
--------------------------------------------------------------------------------

                           -------------------------------
                                      Unit Cell
                           -------------------------------
        Real Lattice(A)              Reciprocal Lattice(1/A)
     1.9980033    -0.0000000     0.0000000        3.144732265   0.000000000   0.000000000
    -0.0000000     3.1432586     0.0000000        0.000000000   1.998939976   0.000000000
     0.0000000     0.0000000     3.0450124        0.000000000   0.000000000   2.063435026

                       Lattice parameters(A)       Cell Angles
                    a =      1.998003          alpha =   90.000000
                    b =      3.143259          beta  =   90.000000
                    c =      3.045012          gamma =   90.000000

                Current cell volume =            19.123412 A**3

                           -------------------------------
                                     Cell Contents
                           -------------------------------

            xxxxxxxxxxxxxxxxxxxxxxxxxxxxxxxxxxxxxxxxxxxxxxxxxxxxxxxxxxxxxxxxx
            x  Element         Atom        Fractional coordinates of atoms  x
            x                 Number           u          v          w      x
            x---------------------------------------------------------------x
            x  H                 1        -0.000000   0.394677   0.444206   x
            x  H                 2        -0.000000   0.105323   0.944206   x
            x  H                 3        -0.000000   0.894677   0.055794   x
            x  H                 4        -0.000000   0.605323   0.555794   x
            x  H                 5         0.500000   0.894677   0.444206   x
            x  H                 6         0.500000   0.605323   0.944206   x
            x  H                 7         0.500000   0.394677   0.055794   x
            x  H                 8         0.500000   0.105323   0.555794   x
            xxxxxxxxxxxxxxxxxxxxxxxxxxxxxxxxxxxxxxxxxxxxxxxxxxxxxxxxxxxxxxxxx


------------------------------------------------------------------------ <-- SCF
SCF loop      Energy                           Energy gain       Timer   <-- SCF
                                               per atom          (sec)   <-- SCF
------------------------------------------------------------------------ <-- SCF
Initial  -1.21203864E+002                                        156.33  <-- SCF
      1  -1.21203864E+002                    4.22949902E-014     156.56  <-- SCF
      2  -1.21203864E+002                    1.20842829E-014     156.98  <-- SCF
      3  -1.21203864E+002                   -1.99390668E-013     157.40  <-- SCF
      4  -1.21203864E+002                   -8.15689097E-014     157.82  <-- SCF
------------------------------------------------------------------------ <-- SCF
 
Final energy =  -121.2038637257     eV
(energy not corrected for finite basis set)
 

 ******************************** Symmetrised Forces ********************************
 *                                                                                  *
 *                           Cartesian components (eV/A)                            *
 * -------------------------------------------------------------------------------- *
 *                         x                    y                    z              *
 *                                                                                  *
 * H               1      0.00000              0.00000              0.00000         *
 * H               2      0.00000             -0.00000              0.00000         *
 * H               3      0.00000              0.00000             -0.00000         *
 * H               4      0.00000             -0.00000             -0.00000         *
 * H               5      0.00000              0.00000              0.00000         *
 * H               6     -0.00000             -0.00000              0.00000         *
 * H               7      0.00000              0.00000             -0.00000         *
 * H               8      0.00000             -0.00000             -0.00000         *
 *                                                                                  *
 ************************************************************************************

 *********** Symmetrised Stress Tensor ***********
 *                                               *
 *          Cartesian components (GPa)           *
 * --------------------------------------------- *
 *             x             y             z     *
 *                                               *
 *  x    -89.999999     -0.000000      0.000000  *
 *  y     -0.000000    -90.000001      0.000000  *
 *  z      0.000000      0.000000    -89.999994  *
 *                                               *
 *  Pressure:   90.0000                          *
 *                                               *
 *************************************************
  
 +------------+-------------+-------------+-----------------+ <-- min LBFGS
 |    Step    |   lambda    |   F.delta'  |    enthalpy     | <-- min LBFGS
 +------------+-------------+-------------+-----------------+ <-- min LBFGS
 |  previous  |    0.000000 |  6.025E-008 |     -110.461567 | <-- min LBFGS
 | trial step |    1.000000 |  6.878E-009 |     -110.461567 | <-- min LBFGS
 +------------+-------------+-------------+-----------------+ <-- min LBFGS
  
 LBFGS: finished iteration    17 with enthalpy= -1.10461567E+002 eV
  
 +-----------+-----------------+-----------------+------------+-----+ <-- LBFGS
 | Parameter |      value      |    tolerance    |    units   | OK? | <-- LBFGS
 +-----------+-----------------+-----------------+------------+-----+ <-- LBFGS
 |  dE/ion   |   2.537699E-013 |   1.000000E-009 |         eV | Yes | <-- LBFGS
 |  |F|max   |   4.920418E-008 |   1.000000E-005 |       eV/A | Yes | <-- LBFGS
 |  |dR|max  |   3.518415E-008 |   1.000000E-005 |          A | Yes | <-- LBFGS
 |   Smax    |   5.711689E-006 |   1.000000E-005 |        GPa | Yes | <-- LBFGS
 +-----------+-----------------+-----------------+------------+-----+ <-- LBFGS
  
 LBFGS: Geometry optimization completed successfully.

================================================================================
 LBFGS: Final Configuration:
================================================================================

                           -------------------------------
                                      Unit Cell
                           -------------------------------
        Real Lattice(A)              Reciprocal Lattice(1/A)
     1.9980033    -0.0000000     0.0000000        3.144732265   0.000000000   0.000000000
    -0.0000000     3.1432586     0.0000000        0.000000000   1.998939976   0.000000000
     0.0000000     0.0000000     3.0450124        0.000000000   0.000000000   2.063435026

                       Lattice parameters(A)       Cell Angles
                    a =      1.998003          alpha =   90.000000
                    b =      3.143259          beta  =   90.000000
                    c =      3.045012          gamma =   90.000000

                Current cell volume =            19.123412 A**3

                           -------------------------------
                                     Cell Contents
                           -------------------------------

            xxxxxxxxxxxxxxxxxxxxxxxxxxxxxxxxxxxxxxxxxxxxxxxxxxxxxxxxxxxxxxxxx
            x  Element         Atom        Fractional coordinates of atoms  x
            x                 Number           u          v          w      x
            x---------------------------------------------------------------x
            x  H                 1        -0.000000   0.394677   0.444206   x
            x  H                 2        -0.000000   0.105323   0.944206   x
            x  H                 3        -0.000000   0.894677   0.055794   x
            x  H                 4        -0.000000   0.605323   0.555794   x
            x  H                 5         0.500000   0.894677   0.444206   x
            x  H                 6         0.500000   0.605323   0.944206   x
            x  H                 7         0.500000   0.394677   0.055794   x
            x  H                 8         0.500000   0.105323   0.555794   x
            xxxxxxxxxxxxxxxxxxxxxxxxxxxxxxxxxxxxxxxxxxxxxxxxxxxxxxxxxxxxxxxxx


 LBFGS: Final Enthalpy     = -1.10461567E+002 eV
 LBFGS: Final <frequency>  =     448.18227 cm-1
 LBFGS: Final bulk modulus =     223.02156 GPa

 ******************************** Symmetrised Forces ********************************
 *                                                                                  *
 *                           Cartesian components (eV/A)                            *
 * -------------------------------------------------------------------------------- *
 *                         x                    y                    z              *
 *                                                                                  *
 * H               1      0.00000              0.00000              0.00000         *
 * H               2      0.00000             -0.00000              0.00000         *
 * H               3      0.00000              0.00000             -0.00000         *
 * H               4      0.00000             -0.00000             -0.00000         *
 * H               5      0.00000              0.00000              0.00000         *
 * H               6     -0.00000             -0.00000              0.00000         *
 * H               7      0.00000              0.00000             -0.00000         *
 * H               8      0.00000             -0.00000             -0.00000         *
 *                                                                                  *
 ************************************************************************************

 *********** Symmetrised Stress Tensor ***********
 *                                               *
 *          Cartesian components (GPa)           *
 * --------------------------------------------- *
 *             x             y             z     *
 *                                               *
 *  x    -89.999999     -0.000000      0.000000  *
 *  y     -0.000000    -90.000001      0.000000  *
 *  z      0.000000      0.000000    -89.999994  *
 *                                               *
 *  Pressure:   90.0000                          *
 *                                               *
 *************************************************

 Pseudo atomic calculation performed for H 1s1

 Converged in 24 iterations to a total energy of -12.4843 eV

Charge spilling parameter for spin component 1 = 0.55%

            Orbital Populations       
     Ion    Atom   Orbital             Charge
  -------------------------------------------
      H     1      S                    0.997
      H     2      S                    1.003
      H     3      S                    1.003
      H     4      S                    0.997
      H     5      S                    0.997
      H     6      S                    1.003
      H     7      S                    1.003
      H     8      S                    0.997
  -------------------------------------------
                           Total:       8.000
  -------------------------------------------

     Atomic Populations (Mulliken)
     -----------------------------
Species          Ion     s      p      d      f     Total  Charge (e)
=====================================================================
  H               1     1.00   0.00   0.00   0.00   1.00     0.00
  H               2     1.00   0.00   0.00   0.00   1.00     0.00
  H               3     1.00   0.00   0.00   0.00   1.00     0.00
  H               4     1.00   0.00   0.00   0.00   1.00     0.00
  H               5     1.00   0.00   0.00   0.00   1.00     0.00
  H               6     1.00   0.00   0.00   0.00   1.00     0.00
  H               7     1.00   0.00   0.00   0.00   1.00     0.00
  H               8     1.00   0.00   0.00   0.00   1.00     0.00
=====================================================================

                 Bond                   Population      Length (A)
======================================================================
               H 6 -- H 7                    1.28        0.74421
               H 1 -- H 4                    1.28        0.74421
               H 5 -- H 8                    1.28        0.74421
               H 2 -- H 3                    1.28        0.74421
               H 4 -- H 5                   -0.09        1.39308
               H 3 -- H 6                   -0.09        1.39308
               H 2 -- H 7                   -0.09        1.39308
               H 1 -- H 8                   -0.09        1.39308
               H 4 -- H 6                   -0.24        1.54817
               H 2 -- H 8                   -0.24        1.54817
               H 3 -- H 5                   -0.24        1.54817
               H 1 -- H 7                   -0.24        1.54817
               H 5 -- H 6                   -0.04        1.77348
               H 3 -- H 4                   -0.04        1.77348
               H 7 -- H 8                   -0.04        1.77348
               H 1 -- H 2                   -0.04        1.77348
               H 3 -- H 7                   -0.49        1.86226
               H 1 -- H 5                   -0.49        1.86226
               H 4 -- H 8                   -0.49        1.86226
               H 2 -- H 6                   -0.49        1.86226
               H 4 -- H 7                   -0.40        1.93763
               H 1 -- H 6                   -0.40        1.93763
               H 3 -- H 8                   -0.40        1.93763
               H 2 -- H 5                   -0.40        1.93763
               H 5 -- H 7                   -0.16        1.96694
               H 1 -- H 3                   -0.16        1.96694
               H 6 -- H 8                   -0.16        1.96694
               H 2 -- H 4                   -0.16        1.96694
======================================================================


Writing analysis data to Cmca4.castep_bin

Writing model to Cmca4.check
 
 A BibTeX formatted list of references used in this run has been written to 
 Cmca4.bib
 
Initialisation time =      2.45 s
Calculation time    =    157.11 s
Finalisation time   =      0.62 s
Total time          =    160.18 s
Peak Memory Use     = 522380 kB
  
Overall parallel efficiency rating: Very good (87%)                             
  
Data was distributed by:-
k-point (32-way); efficiency rating: Very good (88%)                            
  
Parallel notes:
1) Calculation only took 159.6 s, so efficiency estimates may be inaccurate.    
