 +-------------------------------------------------+
 |                                                 |
 |      CCC   AA    SSS  TTTTT  EEEEE  PPPP        |
 |     C     A  A  S       T    E      P   P       |
 |     C     AAAA   SS     T    EEE    PPPP        |
 |     C     A  A     S    T    E      P           |
 |      CCC  A  A  SSS     T    EEEEE  P           |
 |                                                 |
 +-------------------------------------------------+
 |                                                 |
 | Welcome to Academic Release CASTEP version 18.1 |          
 | Ab Initio Total Energy Program                  |
 |                                                 |
 | Authors:                                        |
 | M. Segall, M. Probert, C. Pickard, P. Hasnip,   |
 | S. Clark, K. Refson, J. R. Yates, M. Payne      |
 |                                                 |
 | Contributors:                                   |
 | P. Lindan, P. Haynes, J. White, V. Milman,      |
 | N. Govind, M. Gibson, P. Tulip, V. Cocula,      |
 | B. Montanari, D. Quigley, M. Glover,            |
 | L. Bernasconi, A. Perlov, M. Plummer,           |
 | E. McNellis, J. Meyer, J. Gale, D. Jochym       |
 | J. Aarons, B. Walker, R. Gillen, D. Jones       |
 | T. Green, I. J. Bush, C. J. Armstrong,          |
 | E. J. Higgins, E. L. Brown, M. S. McFly,        |
 | J. Wilkins, B-C. Shih, P. J. P. Byrne           |
 |                                                 |
 | Copyright (c) 2000 - 2017                       |
 |                                                 |
 |     Distributed under the terms of an           |
 |     Agreement between the United Kingdom        |
 |     Car-Parrinello (UKCP) Consortium,           |
 |     Daresbury Laboratory and Accelrys, Inc.     |
 |                                                 |
 | Please cite                                     |
 |                                                 |
 |     "First principles methods using CASTEP"     |
 |                                                 |
 |         Zeitschrift fuer Kristallographie       |
 |           220(5-6) pp. 567-570 (2005)           |
 |                                                 |
 | S. J. Clark, M. D. Segall, C. J. Pickard,       |
 | P. J. Hasnip, M. J. Probert, K. Refson,         |
 | M. C. Payne                                     |
 |                                                 |
 |       in all publications arising from          |
 |              your use of CASTEP                 |
 |                                                 |
 +-------------------------------------------------+


 Compiled for linux_x86_64_gfortran4.8 on Thu, 19 Jul 2018 15:42:32 +0100
 from code version 70483bd0ad64+  Sun, 10 Dec 2017 12:18:29 +0000
 Compiler: GNU Fortran 4.8.5; Optimisation: fast
 MATHLIBS: Intel MKL(2018.0.0) (LAPACK version 3.7.0)
 FFT Lib : mkl
 Fundamental constants values: CODATA 2014

 Run started: Wed, 26 Aug 2020 14:45:33 +0100

 Atomic calculation performed for H: 1s1

 Converged in 41 iterations to an ae energy of -12.488 eV

   ============================================================                
   | Pseudopotential Report - Date of generation 26-08-2020   |                
   ------------------------------------------------------------                
   | Element: H Ionic charge:  1.00 Level of theory: PBE      |                
   | Atomic Solver: Koelling-Harmon                           |                
   |                                                          |                
   |               Reference Electronic Structure             |                
   |         Orbital         Occupation         Energy        |                
   |            1s              1.000           -0.239        |                
   |                                                          |                
   |                 Pseudopotential Definition               |                
   |        Beta     l      e      Rc     scheme   norm       |                
   |         loc     0   -0.239   0.702     qc      1         |                
   |                                                          |                
   | No charge augmentation                                   |                
   | No partial core correction                               |                
   ------------------------------------------------------------                
   | "0|0.7|2|6|8|10L(qc=10)"                                 |                
   ------------------------------------------------------------                
   |      Author: Chris J. Pickard, Cambridge University      |                
   ============================================================                

 Pseudo atomic calculation performed for H 1s1

 Converged in 24 iterations to a total energy of -12.4843 eV

 Calculation parallelised over 32 processes.
 Data is distributed by k-point(32-way)

 ************************************ Title ************************************
 

 ***************************** General Parameters ******************************
  
 output verbosity                               : normal  (1)
 write checkpoint data to                       : Cmca4.check
 type of calculation                            : geometry optimization
 stress calculation                             : on
 density difference calculation                 : off
 electron localisation func (ELF) calculation   : off
 Hirshfeld analysis                             : off
 unlimited duration calculation
 timing information                             : on
 memory usage estimate                          : on
 write extra output files                       : on
 write final potential to formatted file        : off
 write final density to formatted file          : off
 write structure in CELL formatted file         : on
 write BibTeX reference list                    : on
 write OTFG pseudopotential files               : on
 write electrostatic potential file             : on
 write bands file                               : on
 checkpoint writing                             : both castep_bin and check files
  
 output         length unit                     : A
 output           mass unit                     : amu
 output           time unit                     : ps
 output         charge unit                     : e
 output           spin unit                     : hbar/2
 output         energy unit                     : eV
 output          force unit                     : eV/A
 output       velocity unit                     : A/ps
 output       pressure unit                     : GPa
 output     inv_length unit                     : 1/A
 output      frequency unit                     : cm-1
 output force constant unit                     : eV/A**2
 output         volume unit                     : A**3
 output   IR intensity unit                     : (D/A)**2/amu
 output         dipole unit                     : D
 output         efield unit                     : eV/A/e
 output        entropy unit                     : J/mol/K
  
 wavefunctions paging                           : none
 random number generator seed                   : randomised (144533845)
 data distribution                              : optimal for this architecture
 optimization strategy                          : maximize speed(+++)

 *********************** Exchange-Correlation Parameters ***********************
  
 using functional                               : Perdew Burke Ernzerhof
 relativistic treatment                         : Koelling-Harmon
 DFT+D: Semi-empirical dispersion correction    : off

 ************************* Pseudopotential Parameters **************************
  
 pseudopotential representation                 : reciprocal space
 <beta|phi> representation                      : reciprocal space
 spin-orbit coupling                            : off

 **************************** Basis Set Parameters *****************************
  
 plane wave basis set cut-off                   :  1200.0000   eV
 size of standard grid                          :     2.0000
 size of   fine   gmax                          :    35.4943   1/A
 finite basis set correction                    : automatic
 number of sample energies                      :          3
           sample  spacing                      :     5.0000   eV

 **************************** Electronic Parameters ****************************
  
 number of  electrons                           :  8.000    
 net charge of system                           :  0.000    
 treating system as non-spin-polarized
 number of bands                                :          4

 ********************* Electronic Minimization Parameters **********************
  
 Method: Treating system as non-metallic,
         and number of  SD  steps               :          1
         and number of  CG  steps               :          4
  
 total energy / atom convergence tol.           : 0.1000E-10   eV
 eigen-energy convergence tolerance             : 0.2000E-10   eV
 max force / atom convergence tol.              : ignored
 convergence tolerance window                   :          3   cycles
 max. number of SCF cycles                      :        100
 periodic dipole correction                     : NONE

 ************************** Density Mixing Parameters **************************
  
 density-mixing scheme                          : Broyden
 max. length of mixing history                  :         20
 charge density mixing amplitude                : 0.8000    
 cut-off energy for mixing                      :  1200.       eV

 *********************** Population Analysis Parameters ************************
  
 Population analysis with cutoff                :  3.000       A
 Population analysis output                     : summary and pdos components

 ********************** Geometry Optimization Parameters ***********************
  
 optimization method                            : LBFGS
 max. no. of LBFGS updates                      : unbounded
 variable cell method                           : fixed basis quality
 max. number of steps                           :         60
 estimated bulk modulus                         :  500.0       GPa
 estimated <frequency>                          :  1668.       cm-1
 geom line minimiser                            : on
 with line minimiser tolerance                  :     0.4000
 total energy convergence tolerance             : 0.1000E-08   eV/atom
        max ionic |force| tolerance             : 0.1000E-04   eV/A
 max ionic |displacement| tolerance             : 0.1000E-04   A
   max |stress component| tolerance             : 0.1000E-04   GPa
 convergence tolerance window                   :          2   steps
 backup results every                           :      14400   seconds
 write geom trajectory file                     : on

 *******************************************************************************
  

                           -------------------------------
                                      Unit Cell
                           -------------------------------
        Real Lattice(A)                      Reciprocal Lattice(1/A)
     1.6329018    -0.0000000     0.0000000        3.847864709   0.000000000   0.000000000
    -0.0000000     2.8175772     0.0000000        0.000000000   2.229995789   0.000000000
     0.0000000     0.0000000     2.5575382        0.000000000   0.000000000   2.456731731

                       Lattice parameters(A)       Cell Angles
                    a =      1.632902          alpha =   90.000000
                    b =      2.817577          beta  =   90.000000
                    c =      2.557538          gamma =   90.000000

                       Current cell volume =            11.766791       A**3
                                   density =             0.685278   AMU/A**3
                                           =             1.137930     g/cm^3

                           -------------------------------
                                     Cell Contents
                           -------------------------------
                         Total number of ions in cell =    8
                      Total number of species in cell =    1
                        Max number of any one species =    8

            xxxxxxxxxxxxxxxxxxxxxxxxxxxxxxxxxxxxxxxxxxxxxxxxxxxxxxxxxxxx
            x  Element    Atom        Fractional coordinates of atoms  x
            x            Number           u          v          w      x
            x----------------------------------------------------------x
            x  H            1        -0.000000   0.373421   0.440131   x 
            x  H            2        -0.000000   0.126579   0.940131   x 
            x  H            3         0.000000   0.873421   0.059869   x 
            x  H            4        -0.000000   0.626579   0.559869   x 
            x  H            5         0.500000   0.873421   0.440131   x 
            x  H            6         0.500000   0.626579   0.940131   x 
            x  H            7         0.500000   0.373421   0.059869   x 
            x  H            8         0.500000   0.126579   0.559869   x 
            xxxxxxxxxxxxxxxxxxxxxxxxxxxxxxxxxxxxxxxxxxxxxxxxxxxxxxxxxxxx


                         No user defined ionic velocities

                           -------------------------------
                                   Details of Species
                           -------------------------------

                               Mass of species in AMU
                                    H    1.0079400

                          Electric Quadrupole Moment (Barn)
                                    H    0.0028600 Isotope  2

                          Files used for pseudopotentials:
                                    H 0|0.7|2|6|8|10L(qc=10)

                           -------------------------------
                              k-Points For BZ Sampling
                           -------------------------------
                       MP grid size for SCF calculation is 11 11 11
                            with an offset of   0.000  0.000  0.000
                       Number of kpoints used =           216

                           -------------------------------
                               Symmetry and Constraints
                           -------------------------------

                      Cell is a supercell containing 2 primitive cells
                      Maximum deviation from symmetry = 0.312814E-14     ANG

                      Number of symmetry operations   =          16
                      Number of ionic constraints     =           3
                      Point group of crystal =     8: D2h, mmm, 2/m 2/m 2/m
                      Space group of crystal =    64: Cmce, -C 2bc 2

             Set iprint > 1 for details on symmetry rotations/translations

                         Centre of mass is constrained
             Set iprint > 1 for details of linear ionic constraints

                         Number of cell constraints= 3
                         Cell constraints are:  1 2 3 0 0 0

                         External pressure/stress (GPa)
                        280.00000   0.00000   0.00000
                                  280.00000   0.00000
                                            280.00000
  
+---------------- MEMORY AND SCRATCH DISK ESTIMATES PER PROCESS --------------+
|                                                     Memory          Disk    |
| Baseline code, static data and system overhead      478.0 MB         0.0 MB |
| BLAS internal memory storage                          0.0 MB         0.0 MB |
| Model and support data                               11.4 MB         0.0 MB |
| Electronic energy minimisation requirements           5.2 MB         0.0 MB |
| Force calculation requirements                        2.2 MB         0.0 MB |
| Stress calculation requirements                       2.8 MB         0.0 MB |
|                                               ----------------------------- |
| Approx. total storage required per process          494.6 MB         0.0 MB |
|                                                                             |
| Requirements will fluctuate during execution and may exceed these estimates |
+-----------------------------------------------------------------------------+
Calculating finite basis set correction with  3 cut-off energies.
Calculating total energy with cut-off of 1190.000 eV.
------------------------------------------------------------------------ <-- SCF
SCF loop      Energy                           Energy gain       Timer   <-- SCF
                                               per atom          (sec)   <-- SCF
------------------------------------------------------------------------ <-- SCF
Initial   1.75657502E+002                                          2.99  <-- SCF
      1  -1.01239429E+002                    3.46121163E+001       3.25  <-- SCF
      2  -1.13833175E+002                    1.57421829E+000       3.44  <-- SCF
      3  -1.13767590E+002                   -8.19816940E-003       3.79  <-- SCF
      4  -1.13766612E+002                   -1.22198252E-004       4.14  <-- SCF
      5  -1.13766700E+002                    1.09294680E-005       4.48  <-- SCF
      6  -1.13766706E+002                    8.46677032E-007       4.83  <-- SCF
      7  -1.13766706E+002                    1.63896410E-009       5.18  <-- SCF
      8  -1.13766706E+002                    7.01673888E-011       5.46  <-- SCF
      9  -1.13766706E+002                    1.93650634E-012       5.73  <-- SCF
     10  -1.13766706E+002                    2.11474951E-013       6.00  <-- SCF
------------------------------------------------------------------------ <-- SCF
 
Final energy =  -113.7667063330     eV
(energy not corrected for finite basis set)
 
Calculating total energy with cut-off of 1195.000 eV.
------------------------------------------------------------------------ <-- SCF
SCF loop      Energy                           Energy gain       Timer   <-- SCF
                                               per atom          (sec)   <-- SCF
------------------------------------------------------------------------ <-- SCF
Initial  -1.13766706E+002                                          6.25  <-- SCF
      1  -1.13767388E+002                    8.52350190E-005       6.47  <-- SCF
      2  -1.13767388E+002                    1.69019844E-010       6.81  <-- SCF
      3  -1.13767388E+002                    2.59964556E-008       7.16  <-- SCF
      4  -1.13767388E+002                    1.07478821E-009       7.50  <-- SCF
      5  -1.13767388E+002                    3.90322338E-012       7.78  <-- SCF
      6  -1.13767388E+002                    9.96953341E-014       8.05  <-- SCF
------------------------------------------------------------------------ <-- SCF
 
Final energy =  -113.7673884311     eV
(energy not corrected for finite basis set)
 
Calculating total energy with cut-off of 1200.000 eV.
------------------------------------------------------------------------ <-- SCF
SCF loop      Energy                           Energy gain       Timer   <-- SCF
                                               per atom          (sec)   <-- SCF
------------------------------------------------------------------------ <-- SCF
Initial  -1.13767388E+002                                          8.29  <-- SCF
      1  -1.13768041E+002                    8.15731924E-005       8.51  <-- SCF
      2  -1.13768041E+002                    1.81965132E-010       8.84  <-- SCF
      3  -1.13768041E+002                    2.50893066E-008       9.18  <-- SCF
      4  -1.13768041E+002                    1.07601174E-009       9.53  <-- SCF
      5  -1.13768041E+002                    3.65549558E-012       9.81  <-- SCF
      6  -1.13768041E+002                   -3.92739195E-014      10.09  <-- SCF
------------------------------------------------------------------------ <-- SCF
 
Final energy =  -113.7680412275     eV
(energy not corrected for finite basis set)
 
 For future reference: finite basis dEtot/dlog(Ecut) =      -0.158451eV
 Total energy corrected for finite basis set =    -113.768043 eV
 
+---------------- MEMORY AND SCRATCH DISK ESTIMATES PER PROCESS --------------+
|                                                     Memory          Disk    |
| Model and support data                               21.6 MB         0.0 MB |
| Electronic energy minimisation requirements           5.2 MB         0.0 MB |
| Geometry minimisation requirements                    6.3 MB         0.0 MB |
|                                               ----------------------------- |
| Approx. total storage required per process           33.0 MB         0.0 MB |
|                                                                             |
| Requirements will fluctuate during execution and may exceed these estimates |
+-----------------------------------------------------------------------------+
 

 ******************************** Symmetrised Forces ********************************
 *                                                                                  *
 *                           Cartesian components (eV/A)                            *
 * -------------------------------------------------------------------------------- *
 *                         x                    y                    z              *
 *                                                                                  *
 * H               1     -0.00000              0.00000              0.00000         *
 * H               2     -0.00000             -0.00000              0.00000         *
 * H               3      0.00000              0.00000             -0.00000         *
 * H               4      0.00000             -0.00000             -0.00000         *
 * H               5     -0.00000              0.00000              0.00000         *
 * H               6     -0.00000             -0.00000              0.00000         *
 * H               7      0.00000              0.00000             -0.00000         *
 * H               8      0.00000             -0.00000             -0.00000         *
 *                                                                                  *
 ************************************************************************************

 *********** Symmetrised Stress Tensor ***********
 *                                               *
 *          Cartesian components (GPa)           *
 * --------------------------------------------- *
 *             x             y             z     *
 *                                               *
 *  x   -289.952185      0.000000      0.000000  *
 *  y      0.000000   -289.952162      0.000000  *
 *  z      0.000000      0.000000   -289.952177  *
 *                                               *
 *  Pressure:  289.9522                          *
 *                                               *
 *************************************************
 LBFGS: finished iteration     0 with enthalpy= -9.32041343E+001 eV
  
 +-----------+-----------------+-----------------+------------+-----+ <-- LBFGS
 | Parameter |      value      |    tolerance    |    units   | OK? | <-- LBFGS
 +-----------+-----------------+-----------------+------------+-----+ <-- LBFGS
 |  dE/ion   |   0.000000E+000 |   1.000000E-009 |         eV | No  | <-- LBFGS
 |  |F|max   |   4.588895E-007 |   1.000000E-005 |       eV/A | Yes | <-- LBFGS
 |  |dR|max  |   0.000000E+000 |   1.000000E-005 |          A | No  | <-- LBFGS
 |   Smax    |   9.952185E+000 |   1.000000E-005 |        GPa | No  | <-- LBFGS
 +-----------+-----------------+-----------------+------------+-----+ <-- LBFGS
  

================================================================================
 Starting LBFGS iteration          1 ...
================================================================================
  
 +------------+-------------+-------------+-----------------+ <-- min LBFGS
 |    Step    |   lambda    |   F.delta'  |    enthalpy     | <-- min LBFGS
 +------------+-------------+-------------+-----------------+ <-- min LBFGS
 |  previous  |    0.000000 |    0.046524 |      -93.204134 | <-- min LBFGS
 +------------+-------------+-------------+-----------------+ <-- min LBFGS
  

--------------------------------------------------------------------------------
 LBFGS: starting iteration         1 with trial guess (lambda=  1.000000)
--------------------------------------------------------------------------------
 
+---------------- MEMORY AND SCRATCH DISK ESTIMATES PER PROCESS --------------+
|                                                     Memory          Disk    |
| Model and support data                               22.0 MB         0.0 MB |
| Electronic energy minimisation requirements           5.5 MB         0.0 MB |
| Geometry minimisation requirements                    6.6 MB         0.0 MB |
|                                               ----------------------------- |
| Approx. total storage required per process           34.1 MB         0.0 MB |
|                                                                             |
| Requirements will fluctuate during execution and may exceed these estimates |
+-----------------------------------------------------------------------------+
 

                           -------------------------------
                                      Unit Cell
                           -------------------------------
        Real Lattice(A)              Reciprocal Lattice(1/A)
     1.6437358    -0.0000000     0.0000000        3.822503202   0.000000000   0.000000000
    -0.0000000     2.8362712     0.0000000        0.000000000   2.215297787   0.000000000
     0.0000000     0.0000000     2.5745069        0.000000000   0.000000000   2.440539278

                       Lattice parameters(A)       Cell Angles
                    a =      1.643736          alpha =   90.000000
                    b =      2.836271          beta  =   90.000000
                    c =      2.574507          gamma =   90.000000

                Current cell volume =            12.002559 A**3

                           -------------------------------
                                     Cell Contents
                           -------------------------------

            xxxxxxxxxxxxxxxxxxxxxxxxxxxxxxxxxxxxxxxxxxxxxxxxxxxxxxxxxxxxxxxxx
            x  Element         Atom        Fractional coordinates of atoms  x
            x                 Number           u          v          w      x
            x---------------------------------------------------------------x
            x  H                 1         0.000000   0.373421   0.440131   x
            x  H                 2        -0.000000   0.126579   0.940131   x
            x  H                 3         0.000000   0.873421   0.059869   x
            x  H                 4         0.000000   0.626579   0.559869   x
            x  H                 5         0.500000   0.873421   0.440131   x
            x  H                 6         0.500000   0.626579   0.940131   x
            x  H                 7         0.500000   0.373421   0.059869   x
            x  H                 8         0.500000   0.126579   0.559869   x
            xxxxxxxxxxxxxxxxxxxxxxxxxxxxxxxxxxxxxxxxxxxxxxxxxxxxxxxxxxxxxxxxx


------------------------------------------------------------------------ <-- SCF
SCF loop      Energy                           Energy gain       Timer   <-- SCF
                                               per atom          (sec)   <-- SCF
------------------------------------------------------------------------ <-- SCF
Initial  -1.14179214E+002                                         10.76  <-- SCF
      1  -1.14183334E+002                    5.15015084E-004      11.00  <-- SCF
      2  -1.14183346E+002                    1.49686841E-006      11.38  <-- SCF
      3  -1.14183359E+002                    1.63974893E-006      11.75  <-- SCF
      4  -1.14183361E+002                    1.79826012E-007      12.12  <-- SCF
      5  -1.14183361E+002                    2.07843926E-009      12.49  <-- SCF
      6  -1.14183361E+002                    1.85511869E-010      12.78  <-- SCF
      7  -1.14183361E+002                    8.42878734E-013      13.07  <-- SCF
      8  -1.14183361E+002                   -4.04823478E-013      13.36  <-- SCF
------------------------------------------------------------------------ <-- SCF
 
Final energy =  -114.1833605900     eV
(energy not corrected for finite basis set)
 

 ******************************** Symmetrised Forces ********************************
 *                                                                                  *
 *                           Cartesian components (eV/A)                            *
 * -------------------------------------------------------------------------------- *
 *                         x                    y                    z              *
 *                                                                                  *
 * H               1     -0.00000              0.07582              0.03866         *
 * H               2      0.00000             -0.07582              0.03866         *
 * H               3      0.00000              0.07582             -0.03866         *
 * H               4      0.00000             -0.07582             -0.03866         *
 * H               5     -0.00000              0.07582              0.03866         *
 * H               6      0.00000             -0.07582              0.03866         *
 * H               7      0.00000              0.07582             -0.03866         *
 * H               8      0.00000             -0.07582             -0.03866         *
 *                                                                                  *
 ************************************************************************************

 *********** Symmetrised Stress Tensor ***********
 *                                               *
 *          Cartesian components (GPa)           *
 * --------------------------------------------- *
 *             x             y             z     *
 *                                               *
 *  x   -275.820589      0.000000      0.000000  *
 *  y      0.000000   -272.644956      0.000000  *
 *  z      0.000000      0.000000   -275.793858  *
 *                                               *
 *  Pressure:  274.7531                          *
 *                                               *
 *************************************************
  
 +------------+-------------+-------------+-----------------+ <-- min LBFGS
 |    Step    |   lambda    |   F.delta'  |    enthalpy     | <-- min LBFGS
 +------------+-------------+-------------+-----------------+ <-- min LBFGS
 |  previous  |    0.000000 |    0.046524 |      -93.204134 | <-- min LBFGS
 | trial step |    1.000000 |   -0.024854 |      -93.207428 | <-- min LBFGS
 +------------+-------------+-------------+-----------------+ <-- min LBFGS
  
 LBFGS: finished iteration     1 with enthalpy= -9.32074285E+001 eV
  
 +-----------+-----------------+-----------------+------------+-----+ <-- LBFGS
 | Parameter |      value      |    tolerance    |    units   | OK? | <-- LBFGS
 +-----------+-----------------+-----------------+------------+-----+ <-- LBFGS
 |  dE/ion   |   4.117708E-004 |   1.000000E-009 |         eV | No  | <-- LBFGS
 |  |F|max   |   8.510890E-002 |   1.000000E-005 |       eV/A | No  | <-- LBFGS
 |  |dR|max  |   4.480298E-008 |   1.000000E-005 |          A | Yes | <-- LBFGS
 |   Smax    |   7.355044E+000 |   1.000000E-005 |        GPa | No  | <-- LBFGS
 +-----------+-----------------+-----------------+------------+-----+ <-- LBFGS
  

================================================================================
 Starting LBFGS iteration          2 ...
================================================================================
  
 +------------+-------------+-------------+-----------------+ <-- min LBFGS
 |    Step    |   lambda    |   F.delta'  |    enthalpy     | <-- min LBFGS
 +------------+-------------+-------------+-----------------+ <-- min LBFGS
 |  previous  |    0.000000 |    0.032237 |      -93.207428 | <-- min LBFGS
 +------------+-------------+-------------+-----------------+ <-- min LBFGS
  

--------------------------------------------------------------------------------
 LBFGS: starting iteration         2 with trial guess (lambda=  1.000000)
--------------------------------------------------------------------------------

                           -------------------------------
                                      Unit Cell
                           -------------------------------
        Real Lattice(A)              Reciprocal Lattice(1/A)
     1.6426387    -0.0000000     0.0000000        3.825056234   0.000000000   0.000000000
    -0.0000000     2.8304384     0.0000000        0.000000000   2.219862969   0.000000000
     0.0000000     0.0000000     2.5727585        0.000000000   0.000000000   2.442197881

                       Lattice parameters(A)       Cell Angles
                    a =      1.642639          alpha =   90.000000
                    b =      2.830438          beta  =   90.000000
                    c =      2.572758          gamma =   90.000000

                Current cell volume =            11.961751 A**3

                           -------------------------------
                                     Cell Contents
                           -------------------------------

            xxxxxxxxxxxxxxxxxxxxxxxxxxxxxxxxxxxxxxxxxxxxxxxxxxxxxxxxxxxxxxxxx
            x  Element         Atom        Fractional coordinates of atoms  x
            x                 Number           u          v          w      x
            x---------------------------------------------------------------x
            x  H                 1        -0.000000   0.375133   0.441093   x
            x  H                 2        -0.000000   0.124867   0.941093   x
            x  H                 3         0.000000   0.875133   0.058907   x
            x  H                 4         0.000000   0.624867   0.558907   x
            x  H                 5         0.500000   0.875133   0.441093   x
            x  H                 6         0.500000   0.624867   0.941093   x
            x  H                 7         0.500000   0.375133   0.058907   x
            x  H                 8         0.500000   0.124867   0.558907   x
            xxxxxxxxxxxxxxxxxxxxxxxxxxxxxxxxxxxxxxxxxxxxxxxxxxxxxxxxxxxxxxxxx


------------------------------------------------------------------------ <-- SCF
SCF loop      Energy                           Energy gain       Timer   <-- SCF
                                               per atom          (sec)   <-- SCF
------------------------------------------------------------------------ <-- SCF
Initial  -1.14089541E+002                                         14.04  <-- SCF
      1  -1.14112821E+002                    2.90999000E-003      14.27  <-- SCF
      2  -1.14112886E+002                    8.06552701E-006      14.61  <-- SCF
      3  -1.14111824E+002                   -1.32789034E-004      14.96  <-- SCF
      4  -1.14111770E+002                   -6.75330905E-006      15.31  <-- SCF
      5  -1.14111770E+002                    8.78855759E-009      15.66  <-- SCF
      6  -1.14111770E+002                    5.18225410E-010      15.98  <-- SCF
      7  -1.14111770E+002                    1.61023070E-012      16.25  <-- SCF
      8  -1.14111770E+002                   -5.13582024E-014      16.51  <-- SCF
------------------------------------------------------------------------ <-- SCF
 
Final energy =  -114.1117696541     eV
(energy not corrected for finite basis set)
 

 ******************************** Symmetrised Forces ********************************
 *                                                                                  *
 *                           Cartesian components (eV/A)                            *
 * -------------------------------------------------------------------------------- *
 *                         x                    y                    z              *
 *                                                                                  *
 * H               1      0.00000             -0.12026             -0.05173         *
 * H               2      0.00000              0.12026             -0.05173         *
 * H               3      0.00000             -0.12026              0.05173         *
 * H               4      0.00000              0.12026              0.05173         *
 * H               5      0.00000             -0.12026             -0.05173         *
 * H               6     -0.00000              0.12026             -0.05173         *
 * H               7      0.00000             -0.12026              0.05173         *
 * H               8      0.00000              0.12026              0.05173         *
 *                                                                                  *
 ************************************************************************************

 *********** Symmetrised Stress Tensor ***********
 *                                               *
 *          Cartesian components (GPa)           *
 * --------------------------------------------- *
 *             x             y             z     *
 *                                               *
 *  x   -278.640265      0.000000      0.000000  *
 *  y      0.000000   -282.607736      0.000000  *
 *  z      0.000000      0.000000   -278.945161  *
 *                                               *
 *  Pressure:  280.0644                          *
 *                                               *
 *************************************************
  
 +------------+-------------+-------------+-----------------+ <-- min LBFGS
 |    Step    |   lambda    |   F.delta'  |    enthalpy     | <-- min LBFGS
 +------------+-------------+-------------+-----------------+ <-- min LBFGS
 |  previous  |    0.000000 |    0.032237 |      -93.207428 | <-- min LBFGS
 | trial step |    1.000000 |   -0.036515 |      -93.207152 | <-- min LBFGS
 +------------+-------------+-------------+-----------------+ <-- min LBFGS
  

--------------------------------------------------------------------------------
 LBFGS: improving iteration         2 with line minimization (lambda=  0.468891)
--------------------------------------------------------------------------------

                           -------------------------------
                                      Unit Cell
                           -------------------------------
        Real Lattice(A)              Reciprocal Lattice(1/A)
     1.6432214    -0.0000000     0.0000000        3.823699872   0.000000000   0.000000000
    -0.0000000     2.8335362     0.0000000        0.000000000   2.217436020   0.000000000
     0.0000000     0.0000000     2.5736871        0.000000000   0.000000000   2.441316702

                       Lattice parameters(A)       Cell Angles
                    a =      1.643221          alpha =   90.000000
                    b =      2.833536          beta  =   90.000000
                    c =      2.573687          gamma =   90.000000

                Current cell volume =            11.983415 A**3

                           -------------------------------
                                     Cell Contents
                           -------------------------------

            xxxxxxxxxxxxxxxxxxxxxxxxxxxxxxxxxxxxxxxxxxxxxxxxxxxxxxxxxxxxxxxxx
            x  Element         Atom        Fractional coordinates of atoms  x
            x                 Number           u          v          w      x
            x---------------------------------------------------------------x
            x  H                 1        -0.000000   0.374224   0.440582   x
            x  H                 2        -0.000000   0.125776   0.940582   x
            x  H                 3         0.000000   0.874224   0.059418   x
            x  H                 4         0.000000   0.625776   0.559418   x
            x  H                 5         0.500000   0.874224   0.440582   x
            x  H                 6         0.500000   0.625776   0.940582   x
            x  H                 7         0.500000   0.374224   0.059418   x
            x  H                 8         0.500000   0.125776   0.559418   x
            xxxxxxxxxxxxxxxxxxxxxxxxxxxxxxxxxxxxxxxxxxxxxxxxxxxxxxxxxxxxxxxxx


------------------------------------------------------------------------ <-- SCF
SCF loop      Energy                           Energy gain       Timer   <-- SCF
                                               per atom          (sec)   <-- SCF
------------------------------------------------------------------------ <-- SCF
Initial  -1.14144681E+002                                         17.15  <-- SCF
      1  -1.14151467E+002                    8.48317767E-004      17.39  <-- SCF
      2  -1.14151487E+002                    2.46909575E-006      17.76  <-- SCF
      3  -1.14151184E+002                   -3.78992224E-005      18.13  <-- SCF
      4  -1.14151168E+002                   -1.91714208E-006      18.50  <-- SCF
      5  -1.14151168E+002                    2.42266006E-009      18.87  <-- SCF
      6  -1.14151168E+002                    1.40573442E-010      19.17  <-- SCF
      7  -1.14151168E+002                    6.28382712E-013      19.45  <-- SCF
      8  -1.14151168E+002                   -1.48032466E-013      19.74  <-- SCF
------------------------------------------------------------------------ <-- SCF
 
Final energy =  -114.1511683032     eV
(energy not corrected for finite basis set)
 

 ******************************** Symmetrised Forces ********************************
 *                                                                                  *
 *                           Cartesian components (eV/A)                            *
 * -------------------------------------------------------------------------------- *
 *                         x                    y                    z              *
 *                                                                                  *
 * H               1      0.00000             -0.01347             -0.00265         *
 * H               2      0.00000              0.01347             -0.00265         *
 * H               3      0.00000             -0.01347              0.00265         *
 * H               4      0.00000              0.01347              0.00265         *
 * H               5      0.00000             -0.01347             -0.00265         *
 * H               6      0.00000              0.01347             -0.00265         *
 * H               7      0.00000             -0.01347              0.00265         *
 * H               8      0.00000              0.01347              0.00265         *
 *                                                                                  *
 ************************************************************************************

 *********** Symmetrised Stress Tensor ***********
 *                                               *
 *          Cartesian components (GPa)           *
 * --------------------------------------------- *
 *             x             y             z     *
 *                                               *
 *  x   -277.125282      0.000000      0.000000  *
 *  y      0.000000   -277.256125      0.000000  *
 *  z      0.000000      0.000000   -277.250467  *
 *                                               *
 *  Pressure:  277.2106                          *
 *                                               *
 *************************************************
  
 +------------+-------------+-------------+-----------------+ <-- min LBFGS
 |    Step    |   lambda    |   F.delta'  |    enthalpy     | <-- min LBFGS
 +------------+-------------+-------------+-----------------+ <-- min LBFGS
 |  previous  |    0.000000 |    0.032237 |      -93.207428 | <-- min LBFGS
 | trial step |    1.000000 |   -0.036515 |      -93.207152 | <-- min LBFGS
 |  line step |    0.468891 |    0.000796 |      -93.208697 | <-- min LBFGS
 +------------+-------------+-------------+-----------------+ <-- min LBFGS
  
 LBFGS: finished iteration     2 with enthalpy= -9.32086974E+001 eV
  
 +-----------+-----------------+-----------------+------------+-----+ <-- LBFGS
 | Parameter |      value      |    tolerance    |    units   | OK? | <-- LBFGS
 +-----------+-----------------+-----------------+------------+-----+ <-- LBFGS
 |  dE/ion   |   1.586174E-004 |   1.000000E-009 |         eV | No  | <-- LBFGS
 |  |F|max   |   1.373369E-002 |   1.000000E-005 |       eV/A | No  | <-- LBFGS
 |  |dR|max  |   2.554279E-003 |   1.000000E-005 |          A | No  | <-- LBFGS
 |   Smax    |   2.874718E+000 |   1.000000E-005 |        GPa | No  | <-- LBFGS
 +-----------+-----------------+-----------------+------------+-----+ <-- LBFGS
  

================================================================================
 Starting LBFGS iteration          3 ...
================================================================================
  
 +------------+-------------+-------------+-----------------+ <-- min LBFGS
 |    Step    |   lambda    |   F.delta'  |    enthalpy     | <-- min LBFGS
 +------------+-------------+-------------+-----------------+ <-- min LBFGS
 |  previous  |    0.000000 |    0.013764 |      -93.208697 | <-- min LBFGS
 +------------+-------------+-------------+-----------------+ <-- min LBFGS
  

--------------------------------------------------------------------------------
 LBFGS: starting iteration         3 with trial guess (lambda=  1.000000)
--------------------------------------------------------------------------------

                           -------------------------------
                                      Unit Cell
                           -------------------------------
        Real Lattice(A)              Reciprocal Lattice(1/A)
     1.6395488    -0.0000000     0.0000000        3.832264809   0.000000000   0.000000000
    -0.0000000     2.8275145     0.0000000        0.000000000   2.222158455   0.000000000
     0.0000000     0.0000000     2.5681569        0.000000000   0.000000000   2.446573738

                       Lattice parameters(A)       Cell Angles
                    a =      1.639549          alpha =   90.000000
                    b =      2.827515          beta  =   90.000000
                    c =      2.568157          gamma =   90.000000

                Current cell volume =            11.905586 A**3

                           -------------------------------
                                     Cell Contents
                           -------------------------------

            xxxxxxxxxxxxxxxxxxxxxxxxxxxxxxxxxxxxxxxxxxxxxxxxxxxxxxxxxxxxxxxxx
            x  Element         Atom        Fractional coordinates of atoms  x
            x                 Number           u          v          w      x
            x---------------------------------------------------------------x
            x  H                 1        -0.000000   0.373718   0.440463   x
            x  H                 2        -0.000000   0.126282   0.940463   x
            x  H                 3         0.000000   0.873718   0.059537   x
            x  H                 4         0.000000   0.626282   0.559537   x
            x  H                 5         0.500000   0.873718   0.440463   x
            x  H                 6         0.500000   0.626282   0.940463   x
            x  H                 7         0.500000   0.373718   0.059537   x
            x  H                 8         0.500000   0.126282   0.559537   x
            xxxxxxxxxxxxxxxxxxxxxxxxxxxxxxxxxxxxxxxxxxxxxxxxxxxxxxxxxxxxxxxxx


------------------------------------------------------------------------ <-- SCF
SCF loop      Energy                           Energy gain       Timer   <-- SCF
                                               per atom          (sec)   <-- SCF
------------------------------------------------------------------------ <-- SCF
Initial  -1.14013352E+002                                         20.42  <-- SCF
      1  -1.14015628E+002                    2.84449943E-004      20.64  <-- SCF
      2  -1.14015634E+002                    8.14738517E-007      20.98  <-- SCF
      3  -1.14015521E+002                   -1.41751652E-005      21.33  <-- SCF
      4  -1.14015515E+002                   -7.29489928E-007      21.68  <-- SCF
      5  -1.14015515E+002                    1.14601599E-009      22.02  <-- SCF
      6  -1.14015515E+002                    7.41370757E-011      22.29  <-- SCF
      7  -1.14015515E+002                    1.02414298E-012      22.56  <-- SCF
      8  -1.14015515E+002                    1.78243173E-013      22.82  <-- SCF
------------------------------------------------------------------------ <-- SCF
 
Final energy =  -114.0155150941     eV
(energy not corrected for finite basis set)
 

 ******************************** Symmetrised Forces ********************************
 *                                                                                  *
 *                           Cartesian components (eV/A)                            *
 * -------------------------------------------------------------------------------- *
 *                         x                    y                    z              *
 *                                                                                  *
 * H               1      0.00000              0.00750              0.00450         *
 * H               2      0.00000             -0.00750              0.00450         *
 * H               3      0.00000              0.00750             -0.00450         *
 * H               4      0.00000             -0.00750             -0.00450         *
 * H               5      0.00000              0.00750              0.00450         *
 * H               6      0.00000             -0.00750              0.00450         *
 * H               7      0.00000              0.00750             -0.00450         *
 * H               8      0.00000             -0.00750             -0.00450         *
 *                                                                                  *
 ************************************************************************************

 *********** Symmetrised Stress Tensor ***********
 *                                               *
 *          Cartesian components (GPa)           *
 * --------------------------------------------- *
 *             x             y             z     *
 *                                               *
 *  x   -281.561852      0.000000      0.000000  *
 *  y      0.000000   -281.354851      0.000000  *
 *  z      0.000000      0.000000   -281.518217  *
 *                                               *
 *  Pressure:  281.4783                          *
 *                                               *
 *************************************************
  
 +------------+-------------+-------------+-----------------+ <-- min LBFGS
 |    Step    |   lambda    |   F.delta'  |    enthalpy     | <-- min LBFGS
 +------------+-------------+-------------+-----------------+ <-- min LBFGS
 |  previous  |    0.000000 |    0.013764 |      -93.208697 | <-- min LBFGS
 | trial step |    1.000000 |   -0.007374 |      -93.209048 | <-- min LBFGS
 +------------+-------------+-------------+-----------------+ <-- min LBFGS
  
 LBFGS: finished iteration     3 with enthalpy= -9.32090479E+001 eV
  
 +-----------+-----------------+-----------------+------------+-----+ <-- LBFGS
 | Parameter |      value      |    tolerance    |    units   | OK? | <-- LBFGS
 +-----------+-----------------+-----------------+------------+-----+ <-- LBFGS
 |  dE/ion   |   4.381419E-005 |   1.000000E-009 |         eV | No  | <-- LBFGS
 |  |F|max   |   8.745162E-003 |   1.000000E-005 |       eV/A | No  | <-- LBFGS
 |  |dR|max  |   1.463143E-003 |   1.000000E-005 |          A | No  | <-- LBFGS
 |   Smax    |   1.561852E+000 |   1.000000E-005 |        GPa | No  | <-- LBFGS
 +-----------+-----------------+-----------------+------------+-----+ <-- LBFGS
  

================================================================================
 Starting LBFGS iteration          4 ...
================================================================================
  
 +------------+-------------+-------------+-----------------+ <-- min LBFGS
 |    Step    |   lambda    |   F.delta'  |    enthalpy     | <-- min LBFGS
 +------------+-------------+-------------+-----------------+ <-- min LBFGS
 |  previous  |    0.000000 |    0.007404 |      -93.209048 | <-- min LBFGS
 +------------+-------------+-------------+-----------------+ <-- min LBFGS
  

--------------------------------------------------------------------------------
 LBFGS: starting iteration         4 with trial guess (lambda=  1.000000)
--------------------------------------------------------------------------------

                           -------------------------------
                                      Unit Cell
                           -------------------------------
        Real Lattice(A)              Reciprocal Lattice(1/A)
     1.6408453    -0.0000000     0.0000000        3.829236919   0.000000000   0.000000000
    -0.0000000     2.8295180     0.0000000        0.000000000   2.220585055   0.000000000
     0.0000000     0.0000000     2.5701396        0.000000000   0.000000000   2.444686424

                       Lattice parameters(A)       Cell Angles
                    a =      1.640845          alpha =   90.000000
                    b =      2.829518          beta  =   90.000000
                    c =      2.570140          gamma =   90.000000

                Current cell volume =            11.932647 A**3

                           -------------------------------
                                     Cell Contents
                           -------------------------------

            xxxxxxxxxxxxxxxxxxxxxxxxxxxxxxxxxxxxxxxxxxxxxxxxxxxxxxxxxxxxxxxxx
            x  Element         Atom        Fractional coordinates of atoms  x
            x                 Number           u          v          w      x
            x---------------------------------------------------------------x
            x  H                 1        -0.000000   0.373876   0.440569   x
            x  H                 2        -0.000000   0.126124   0.940569   x
            x  H                 3        -0.000000   0.873876   0.059431   x
            x  H                 4         0.000000   0.626124   0.559431   x
            x  H                 5         0.500000   0.873876   0.440569   x
            x  H                 6         0.500000   0.626124   0.940569   x
            x  H                 7         0.500000   0.373876   0.059431   x
            x  H                 8         0.500000   0.126124   0.559431   x
            xxxxxxxxxxxxxxxxxxxxxxxxxxxxxxxxxxxxxxxxxxxxxxxxxxxxxxxxxxxxxxxxx


------------------------------------------------------------------------ <-- SCF
SCF loop      Energy                           Energy gain       Timer   <-- SCF
                                               per atom          (sec)   <-- SCF
------------------------------------------------------------------------ <-- SCF
Initial  -1.14062438E+002                                         23.46  <-- SCF
      1  -1.14062952E+002                    6.42501954E-005      23.68  <-- SCF
      2  -1.14062954E+002                    1.92655937E-007      24.02  <-- SCF
      3  -1.14062940E+002                   -1.68222652E-006      24.37  <-- SCF
      4  -1.14062940E+002                   -8.64843730E-008      24.72  <-- SCF
      5  -1.14062940E+002                    1.50521828E-010      25.03  <-- SCF
      6  -1.14062940E+002                    1.05495790E-011      25.30  <-- SCF
      7  -1.14062940E+002                   -2.41685658E-014      25.57  <-- SCF
      8  -1.14062940E+002                   -1.02716405E-013      25.84  <-- SCF
------------------------------------------------------------------------ <-- SCF
 
Final energy =  -114.0629396893     eV
(energy not corrected for finite basis set)
 

 ******************************** Symmetrised Forces ********************************
 *                                                                                  *
 *                           Cartesian components (eV/A)                            *
 * -------------------------------------------------------------------------------- *
 *                         x                    y                    z              *
 *                                                                                  *
 * H               1     -0.00000             -0.00051              0.00113         *
 * H               2      0.00000              0.00051              0.00113         *
 * H               3     -0.00000             -0.00051             -0.00113         *
 * H               4     -0.00000              0.00051             -0.00113         *
 * H               5      0.00000             -0.00051              0.00113         *
 * H               6      0.00000              0.00051              0.00113         *
 * H               7     -0.00000             -0.00051             -0.00113         *
 * H               8     -0.00000              0.00051             -0.00113         *
 *                                                                                  *
 ************************************************************************************

 *********** Symmetrised Stress Tensor ***********
 *                                               *
 *          Cartesian components (GPa)           *
 * --------------------------------------------- *
 *             x             y             z     *
 *                                               *
 *  x   -280.002323      0.000000      0.000000  *
 *  y      0.000000   -279.994634      0.000000  *
 *  z      0.000000      0.000000   -280.008605  *
 *                                               *
 *  Pressure:  280.0019                          *
 *                                               *
 *************************************************
  
 +------------+-------------+-------------+-----------------+ <-- min LBFGS
 |    Step    |   lambda    |   F.delta'  |    enthalpy     | <-- min LBFGS
 +------------+-------------+-------------+-----------------+ <-- min LBFGS
 |  previous  |    0.000000 |    0.007404 |      -93.209048 | <-- min LBFGS
 | trial step |    1.000000 |    0.000026 |      -93.209177 | <-- min LBFGS
 +------------+-------------+-------------+-----------------+ <-- min LBFGS
  
 LBFGS: finished iteration     4 with enthalpy= -9.32091773E+001 eV
  
 +-----------+-----------------+-----------------+------------+-----+ <-- LBFGS
 | Parameter |      value      |    tolerance    |    units   | OK? | <-- LBFGS
 +-----------+-----------------+-----------------+------------+-----+ <-- LBFGS
 |  dE/ion   |   1.617544E-005 |   1.000000E-009 |         eV | No  | <-- LBFGS
 |  |F|max   |   1.237568E-003 |   1.000000E-005 |       eV/A | No  | <-- LBFGS
 |  |dR|max  |   5.245423E-004 |   1.000000E-005 |          A | No  | <-- LBFGS
 |   Smax    |   8.604732E-003 |   1.000000E-005 |        GPa | No  | <-- LBFGS
 +-----------+-----------------+-----------------+------------+-----+ <-- LBFGS
  

================================================================================
 Starting LBFGS iteration          5 ...
================================================================================
  
 +------------+-------------+-------------+-----------------+ <-- min LBFGS
 |    Step    |   lambda    |   F.delta'  |    enthalpy     | <-- min LBFGS
 +------------+-------------+-------------+-----------------+ <-- min LBFGS
 |  previous  |    0.000000 |    0.000336 |      -93.209177 | <-- min LBFGS
 +------------+-------------+-------------+-----------------+ <-- min LBFGS
  

--------------------------------------------------------------------------------
 LBFGS: starting iteration         5 with trial guess (lambda=  1.000000)
--------------------------------------------------------------------------------

                           -------------------------------
                                      Unit Cell
                           -------------------------------
        Real Lattice(A)              Reciprocal Lattice(1/A)
     1.6408513    -0.0000000     0.0000000        3.829222897   0.000000000   0.000000000
    -0.0000000     2.8295123     0.0000000        0.000000000   2.220589484   0.000000000
     0.0000000     0.0000000     2.5701599        0.000000000   0.000000000   2.444667063

                       Lattice parameters(A)       Cell Angles
                    a =      1.640851          alpha =   90.000000
                    b =      2.829512          beta  =   90.000000
                    c =      2.570160          gamma =   90.000000

                Current cell volume =            11.932761 A**3

                           -------------------------------
                                     Cell Contents
                           -------------------------------

            xxxxxxxxxxxxxxxxxxxxxxxxxxxxxxxxxxxxxxxxxxxxxxxxxxxxxxxxxxxxxxxxx
            x  Element         Atom        Fractional coordinates of atoms  x
            x                 Number           u          v          w      x
            x---------------------------------------------------------------x
            x  H                 1         0.000000   0.373859   0.440613   x
            x  H                 2        -0.000000   0.126141   0.940613   x
            x  H                 3        -0.000000   0.873859   0.059387   x
            x  H                 4        -0.000000   0.626141   0.559387   x
            x  H                 5         0.500000   0.873859   0.440613   x
            x  H                 6         0.500000   0.626141   0.940613   x
            x  H                 7         0.500000   0.373859   0.059387   x
            x  H                 8         0.500000   0.126141   0.559387   x
            xxxxxxxxxxxxxxxxxxxxxxxxxxxxxxxxxxxxxxxxxxxxxxxxxxxxxxxxxxxxxxxxx


------------------------------------------------------------------------ <-- SCF
SCF loop      Energy                           Energy gain       Timer   <-- SCF
                                               per atom          (sec)   <-- SCF
------------------------------------------------------------------------ <-- SCF
Initial  -1.14063133E+002                                         26.48  <-- SCF
      1  -1.14063140E+002                    8.21253220E-007      26.70  <-- SCF
      2  -1.14063140E+002                    2.39134968E-009      27.06  <-- SCF
      3  -1.14063140E+002                    5.75476815E-009      27.41  <-- SCF
      4  -1.14063140E+002                    3.71485962E-010      27.75  <-- SCF
      5  -1.14063140E+002                    3.17212427E-012      28.02  <-- SCF
      6  -1.14063140E+002                    3.83675983E-013      28.29  <-- SCF
------------------------------------------------------------------------ <-- SCF
 
Final energy =  -114.0631399582     eV
(energy not corrected for finite basis set)
 

 ******************************** Symmetrised Forces ********************************
 *                                                                                  *
 *                           Cartesian components (eV/A)                            *
 * -------------------------------------------------------------------------------- *
 *                         x                    y                    z              *
 *                                                                                  *
 * H               1     -0.00000             -0.00041              0.00078         *
 * H               2      0.00000              0.00041              0.00078         *
 * H               3      0.00000             -0.00041             -0.00078         *
 * H               4     -0.00000              0.00041             -0.00078         *
 * H               5     -0.00000             -0.00041              0.00078         *
 * H               6      0.00000              0.00041              0.00078         *
 * H               7      0.00000             -0.00041             -0.00078         *
 * H               8     -0.00000              0.00041             -0.00078         *
 *                                                                                  *
 ************************************************************************************

 *********** Symmetrised Stress Tensor ***********
 *                                               *
 *          Cartesian components (GPa)           *
 * --------------------------------------------- *
 *             x             y             z     *
 *                                               *
 *  x   -279.998212      0.000000      0.000000  *
 *  y      0.000000   -279.998333      0.000000  *
 *  z      0.000000      0.000000   -279.999356  *
 *                                               *
 *  Pressure:  279.9986                          *
 *                                               *
 *************************************************
  
 +------------+-------------+-------------+-----------------+ <-- min LBFGS
 |    Step    |   lambda    |   F.delta'  |    enthalpy     | <-- min LBFGS
 +------------+-------------+-------------+-----------------+ <-- min LBFGS
 |  previous  |    0.000000 |    0.000336 |      -93.209177 | <-- min LBFGS
 | trial step |    1.000000 |    0.000237 |      -93.209178 | <-- min LBFGS
 +------------+-------------+-------------+-----------------+ <-- min LBFGS
  

--------------------------------------------------------------------------------
 LBFGS: improving iteration         5 with line minimization (lambda=  3.385839)
--------------------------------------------------------------------------------

                           -------------------------------
                                      Unit Cell
                           -------------------------------
        Real Lattice(A)              Reciprocal Lattice(1/A)
     1.6408656    -0.0000000     0.0000000        3.829189445   0.000000000   0.000000000
    -0.0000000     2.8294989     0.0000000        0.000000000   2.220600050   0.000000000
     0.0000000     0.0000000     2.5702085        0.000000000   0.000000000   2.444620873

                       Lattice parameters(A)       Cell Angles
                    a =      1.640866          alpha =   90.000000
                    b =      2.829499          beta  =   90.000000
                    c =      2.570208          gamma =   90.000000

                Current cell volume =            11.933034 A**3

                           -------------------------------
                                     Cell Contents
                           -------------------------------

            xxxxxxxxxxxxxxxxxxxxxxxxxxxxxxxxxxxxxxxxxxxxxxxxxxxxxxxxxxxxxxxxx
            x  Element         Atom        Fractional coordinates of atoms  x
            x                 Number           u          v          w      x
            x---------------------------------------------------------------x
            x  H                 1         0.000000   0.373817   0.440717   x
            x  H                 2         0.000000   0.126183   0.940717   x
            x  H                 3        -0.000000   0.873817   0.059283   x
            x  H                 4        -0.000000   0.626183   0.559283   x
            x  H                 5         0.500000   0.873817   0.440717   x
            x  H                 6         0.500000   0.626183   0.940717   x
            x  H                 7         0.500000   0.373817   0.059283   x
            x  H                 8         0.500000   0.126183   0.559283   x
            xxxxxxxxxxxxxxxxxxxxxxxxxxxxxxxxxxxxxxxxxxxxxxxxxxxxxxxxxxxxxxxxx


------------------------------------------------------------------------ <-- SCF
SCF loop      Energy                           Energy gain       Timer   <-- SCF
                                               per atom          (sec)   <-- SCF
------------------------------------------------------------------------ <-- SCF
Initial  -1.14063579E+002                                         28.91  <-- SCF
      1  -1.14063617E+002                    4.68775211E-006      29.14  <-- SCF
      2  -1.14063617E+002                    1.37799253E-008      29.49  <-- SCF
      3  -1.14063617E+002                    3.27982665E-008      29.84  <-- SCF
      4  -1.14063617E+002                    2.11706667E-009      30.19  <-- SCF
      5  -1.14063617E+002                    1.89602399E-011      30.46  <-- SCF
      6  -1.14063617E+002                    1.23259686E-012      30.73  <-- SCF
      7  -1.14063617E+002                   -2.11474951E-014      31.00  <-- SCF
------------------------------------------------------------------------ <-- SCF
 
Final energy =  -114.0636171155     eV
(energy not corrected for finite basis set)
 

 ******************************** Symmetrised Forces ********************************
 *                                                                                  *
 *                           Cartesian components (eV/A)                            *
 * -------------------------------------------------------------------------------- *
 *                         x                    y                    z              *
 *                                                                                  *
 * H               1     -0.00000             -0.00015             -0.00005         *
 * H               2      0.00000              0.00015             -0.00005         *
 * H               3     -0.00000             -0.00015              0.00005         *
 * H               4     -0.00000              0.00015              0.00005         *
 * H               5     -0.00000             -0.00015             -0.00005         *
 * H               6     -0.00000              0.00015             -0.00005         *
 * H               7     -0.00000             -0.00015              0.00005         *
 * H               8      0.00000              0.00015              0.00005         *
 *                                                                                  *
 ************************************************************************************

 *********** Symmetrised Stress Tensor ***********
 *                                               *
 *          Cartesian components (GPa)           *
 * --------------------------------------------- *
 *             x             y             z     *
 *                                               *
 *  x   -279.988633      0.000000      0.000000  *
 *  y      0.000000   -280.006814      0.000000  *
 *  z      0.000000      0.000000   -279.977381  *
 *                                               *
 *  Pressure:  279.9909                          *
 *                                               *
 *************************************************
  
 +------------+-------------+-------------+-----------------+ <-- min LBFGS
 |    Step    |   lambda    |   F.delta'  |    enthalpy     | <-- min LBFGS
 +------------+-------------+-------------+-----------------+ <-- min LBFGS
 |  previous  |    0.000000 |    0.000336 |      -93.209177 | <-- min LBFGS
 | trial step |    1.000000 |    0.000237 |      -93.209178 | <-- min LBFGS
 |  line step |    3.385839 | -8.891E-008 |      -93.209178 | <-- min LBFGS
 +------------+-------------+-------------+-----------------+ <-- min LBFGS
  
 LBFGS: finished iteration     5 with enthalpy= -9.32091785E+001 eV
  
 +-----------+-----------------+-----------------+------------+-----+ <-- LBFGS
 | Parameter |      value      |    tolerance    |    units   | OK? | <-- LBFGS
 +-----------+-----------------+-----------------+------------+-----+ <-- LBFGS
 |  dE/ion   |   1.413294E-007 |   1.000000E-009 |         eV | No  | <-- LBFGS
 |  |F|max   |   1.604491E-004 |   1.000000E-005 |       eV/A | No  | <-- LBFGS
 |  |dR|max  |   4.149284E-004 |   1.000000E-005 |          A | No  | <-- LBFGS
 |   Smax    |   2.261918E-002 |   1.000000E-005 |        GPa | No  | <-- LBFGS
 +-----------+-----------------+-----------------+------------+-----+ <-- LBFGS
  

================================================================================
 Starting LBFGS iteration          6 ...
================================================================================
  
 +------------+-------------+-------------+-----------------+ <-- min LBFGS
 |    Step    |   lambda    |   F.delta'  |    enthalpy     | <-- min LBFGS
 +------------+-------------+-------------+-----------------+ <-- min LBFGS
 |  previous  |    0.000000 |    0.000080 |      -93.209178 | <-- min LBFGS
 +------------+-------------+-------------+-----------------+ <-- min LBFGS
  

--------------------------------------------------------------------------------
 LBFGS: starting iteration         6 with trial guess (lambda=  1.000000)
--------------------------------------------------------------------------------

                           -------------------------------
                                      Unit Cell
                           -------------------------------
        Real Lattice(A)              Reciprocal Lattice(1/A)
     1.6408555    -0.0000000     0.0000000        3.829213034   0.000000000   0.000000000
    -0.0000000     2.8295092     0.0000000        0.000000000   2.220591938   0.000000000
     0.0000000     0.0000000     2.5701730        0.000000000   0.000000000   2.444654599

                       Lattice parameters(A)       Cell Angles
                    a =      1.640856          alpha =   90.000000
                    b =      2.829509          beta  =   90.000000
                    c =      2.570173          gamma =   90.000000

                Current cell volume =            11.932840 A**3

                           -------------------------------
                                     Cell Contents
                           -------------------------------

            xxxxxxxxxxxxxxxxxxxxxxxxxxxxxxxxxxxxxxxxxxxxxxxxxxxxxxxxxxxxxxxxx
            x  Element         Atom        Fractional coordinates of atoms  x
            x                 Number           u          v          w      x
            x---------------------------------------------------------------x
            x  H                 1         0.000000   0.373815   0.440718   x
            x  H                 2         0.000000   0.126185   0.940718   x
            x  H                 3        -0.000000   0.873815   0.059282   x
            x  H                 4        -0.000000   0.626185   0.559282   x
            x  H                 5         0.500000   0.873815   0.440718   x
            x  H                 6         0.500000   0.626185   0.940718   x
            x  H                 7         0.500000   0.373815   0.059282   x
            x  H                 8         0.500000   0.126185   0.559282   x
            xxxxxxxxxxxxxxxxxxxxxxxxxxxxxxxxxxxxxxxxxxxxxxxxxxxxxxxxxxxxxxxxx


------------------------------------------------------------------------ <-- SCF
SCF loop      Energy                           Energy gain       Timer   <-- SCF
                                               per atom          (sec)   <-- SCF
------------------------------------------------------------------------ <-- SCF
Initial  -1.14063277E+002                                         31.64  <-- SCF
      1  -1.14063277E+002                    5.24018706E-008      31.87  <-- SCF
      2  -1.14063277E+002                    2.09783151E-011      32.17  <-- SCF
      3  -1.14063277E+002                   -2.41613153E-010      32.44  <-- SCF
      4  -1.14063277E+002                   -1.17308176E-011      32.71  <-- SCF
      5  -1.14063277E+002                    9.36531926E-014      32.98  <-- SCF
      6  -1.14063277E+002                    1.96369597E-013      33.25  <-- SCF
------------------------------------------------------------------------ <-- SCF
 
Final energy =  -114.0632773051     eV
(energy not corrected for finite basis set)
 

 ******************************** Symmetrised Forces ********************************
 *                                                                                  *
 *                           Cartesian components (eV/A)                            *
 * -------------------------------------------------------------------------------- *
 *                         x                    y                    z              *
 *                                                                                  *
 * H               1      0.00000              0.00000              0.00001         *
 * H               2      0.00000             -0.00000              0.00001         *
 * H               3      0.00000              0.00000             -0.00001         *
 * H               4      0.00000             -0.00000             -0.00001         *
 * H               5      0.00000              0.00000              0.00001         *
 * H               6      0.00000             -0.00000              0.00001         *
 * H               7      0.00000              0.00000             -0.00001         *
 * H               8      0.00000             -0.00000             -0.00001         *
 *                                                                                  *
 ************************************************************************************

 *********** Symmetrised Stress Tensor ***********
 *                                               *
 *          Cartesian components (GPa)           *
 * --------------------------------------------- *
 *             x             y             z     *
 *                                               *
 *  x   -279.999601      0.000000      0.000000  *
 *  y      0.000000   -280.003302      0.000000  *
 *  z      0.000000      0.000000   -279.996236  *
 *                                               *
 *  Pressure:  279.9997                          *
 *                                               *
 *************************************************
  
 +------------+-------------+-------------+-----------------+ <-- min LBFGS
 |    Step    |   lambda    |   F.delta'  |    enthalpy     | <-- min LBFGS
 +------------+-------------+-------------+-----------------+ <-- min LBFGS
 |  previous  |    0.000000 |    0.000080 |      -93.209178 | <-- min LBFGS
 | trial step |    1.000000 |    0.000011 |      -93.209179 | <-- min LBFGS
 +------------+-------------+-------------+-----------------+ <-- min LBFGS
  
 LBFGS: finished iteration     6 with enthalpy= -9.32091792E+001 eV
  
 +-----------+-----------------+-----------------+------------+-----+ <-- LBFGS
 | Parameter |      value      |    tolerance    |    units   | OK? | <-- LBFGS
 +-----------+-----------------+-----------------+------------+-----+ <-- LBFGS
 |  dE/ion   |   8.873737E-008 |   1.000000E-009 |         eV | No  | <-- LBFGS
 |  |F|max   |   7.133375E-006 |   1.000000E-005 |       eV/A | Yes | <-- LBFGS
 |  |dR|max  |   6.743073E-006 |   1.000000E-005 |          A | Yes | <-- LBFGS
[...]
            x  H                 1         0.000000   0.373815   0.440718   x
            x  H                 2        -0.000000   0.126185   0.940718   x
            x  H                 3        -0.000000   0.873815   0.059282   x
            x  H                 4         0.000000   0.626185   0.559282   x
            x  H                 5         0.500000   0.873815   0.440718   x
            x  H                 6         0.500000   0.626185   0.940718   x
            x  H                 7         0.500000   0.373815   0.059282   x
            x  H                 8         0.500000   0.126185   0.559282   x
            xxxxxxxxxxxxxxxxxxxxxxxxxxxxxxxxxxxxxxxxxxxxxxxxxxxxxxxxxxxxxxxxx


------------------------------------------------------------------------ <-- SCF
SCF loop      Energy                           Energy gain       Timer   <-- SCF
                                               per atom          (sec)   <-- SCF
------------------------------------------------------------------------ <-- SCF
Initial  -1.14063267E+002                                         38.76  <-- SCF
      1  -1.14063267E+002                    1.20842829E-014      38.91  <-- SCF
      2  -1.14063267E+002                    3.02107073E-015      39.18  <-- SCF
      3  -1.14063267E+002                   -3.02107073E-015      39.44  <-- SCF
      4  -1.14063267E+002                   -2.83980649E-013      39.74  <-- SCF
------------------------------------------------------------------------ <-- SCF
 
Final energy =  -114.0632672673     eV
(energy not corrected for finite basis set)
 

 ******************************** Symmetrised Forces ********************************
 *                                                                                  *
 *                           Cartesian components (eV/A)                            *
 * -------------------------------------------------------------------------------- *
 *                         x                    y                    z              *
 *                                                                                  *
 * H               1     -0.00000              0.00000              0.00000         *
 * H               2     -0.00000             -0.00000              0.00000         *
 * H               3     -0.00000              0.00000             -0.00000         *
 * H               4      0.00000             -0.00000             -0.00000         *
 * H               5     -0.00000              0.00000              0.00000         *
 * H               6     -0.00000             -0.00000              0.00000         *
 * H               7     -0.00000              0.00000             -0.00000         *
 * H               8      0.00000             -0.00000             -0.00000         *
 *                                                                                  *
 ************************************************************************************

 *********** Symmetrised Stress Tensor ***********
 *                                               *
 *          Cartesian components (GPa)           *
 * --------------------------------------------- *
 *             x             y             z     *
 *                                               *
 *  x   -279.999985     -0.000000      0.000000  *
 *  y     -0.000000   -279.999992      0.000000  *
 *  z      0.000000      0.000000   -279.999979  *
 *                                               *
 *  Pressure:  280.0000                          *
 *                                               *
 *************************************************
  
 +------------+-------------+-------------+-----------------+ <-- min LBFGS
 |    Step    |   lambda    |   F.delta'  |    enthalpy     | <-- min LBFGS
 +------------+-------------+-------------+-----------------+ <-- min LBFGS
 |  previous  |    0.000000 |  4.809E-008 |      -93.209179 | <-- min LBFGS
 | trial step |    1.000000 | -8.650E-009 |      -93.209179 | <-- min LBFGS
 +------------+-------------+-------------+-----------------+ <-- min LBFGS
  
 LBFGS: finished iteration    10 with enthalpy= -9.32091792E+001 eV
  
 +-----------+-----------------+-----------------+------------+-----+ <-- LBFGS
 | Parameter |      value      |    tolerance    |    units   | OK? | <-- LBFGS
 +-----------+-----------------+-----------------+------------+-----+ <-- LBFGS
 |  dE/ion   |   2.447067E-013 |   1.000000E-009 |         eV | Yes | <-- LBFGS
 |  |F|max   |   1.404420E-007 |   1.000000E-005 |       eV/A | Yes | <-- LBFGS
 |  |dR|max  |   2.879907E-008 |   1.000000E-005 |          A | Yes | <-- LBFGS
 |   Smax    |   2.124052E-005 |   1.000000E-005 |        GPa | No  | <-- LBFGS
 +-----------+-----------------+-----------------+------------+-----+ <-- LBFGS
  

================================================================================
 Starting LBFGS iteration         11 ...
================================================================================
  
 +------------+-------------+-------------+-----------------+ <-- min LBFGS
 |    Step    |   lambda    |   F.delta'  |    enthalpy     | <-- min LBFGS
 +------------+-------------+-------------+-----------------+ <-- min LBFGS
 |  previous  |    0.000000 |  6.981E-008 |      -93.209179 | <-- min LBFGS
 +------------+-------------+-------------+-----------------+ <-- min LBFGS
  

--------------------------------------------------------------------------------
 LBFGS: starting iteration        11 with trial guess (lambda=  1.000000)
--------------------------------------------------------------------------------

                           -------------------------------
                                      Unit Cell
                           -------------------------------
        Real Lattice(A)              Reciprocal Lattice(1/A)
     1.6408552    -0.0000000     0.0000000        3.829213848   0.000000000   0.000000000
    -0.0000000     2.8295178     0.0000000        0.000000000   2.220585180   0.000000000
     0.0000000     0.0000000     2.5701645        0.000000000   0.000000000   2.444662735

                       Lattice parameters(A)       Cell Angles
                    a =      1.640855          alpha =   90.000000
                    b =      2.829518          beta  =   90.000000
                    c =      2.570164          gamma =   90.000000

                Current cell volume =            11.932834 A**3

                           -------------------------------
                                     Cell Contents
                           -------------------------------

            xxxxxxxxxxxxxxxxxxxxxxxxxxxxxxxxxxxxxxxxxxxxxxxxxxxxxxxxxxxxxxxxx
            x  Element         Atom        Fractional coordinates of atoms  x
            x                 Number           u          v          w      x
            x---------------------------------------------------------------x
            x  H                 1         0.000000   0.373815   0.440718   x
            x  H                 2        -0.000000   0.126185   0.940718   x
            x  H                 3        -0.000000   0.873815   0.059282   x
            x  H                 4         0.000000   0.626185   0.559282   x
            x  H                 5         0.500000   0.873815   0.440718   x
            x  H                 6         0.500000   0.626185   0.940718   x
            x  H                 7         0.500000   0.373815   0.059282   x
            x  H                 8         0.500000   0.126185   0.559282   x
            xxxxxxxxxxxxxxxxxxxxxxxxxxxxxxxxxxxxxxxxxxxxxxxxxxxxxxxxxxxxxxxxx


------------------------------------------------------------------------ <-- SCF
SCF loop      Energy                           Energy gain       Timer   <-- SCF
                                               per atom          (sec)   <-- SCF
------------------------------------------------------------------------ <-- SCF
Initial  -1.14063267E+002                                         40.38  <-- SCF
      1  -1.14063267E+002                   -2.41685658E-014      40.53  <-- SCF
      2  -1.14063267E+002                    0.00000000E+000      40.79  <-- SCF
      3  -1.14063267E+002                    4.22949902E-013      41.06  <-- SCF
      4  -1.14063267E+002                   -2.23559234E-013      41.33  <-- SCF
------------------------------------------------------------------------ <-- SCF
 
Final energy =  -114.0632669901     eV
(energy not corrected for finite basis set)
 

 ******************************** Symmetrised Forces ********************************
 *                                                                                  *
 *                           Cartesian components (eV/A)                            *
 * -------------------------------------------------------------------------------- *
 *                         x                    y                    z              *
 *                                                                                  *
 * H               1      0.00000              0.00000              0.00000         *
 * H               2     -0.00000             -0.00000              0.00000         *
 * H               3      0.00000              0.00000             -0.00000         *
 * H               4      0.00000             -0.00000             -0.00000         *
 * H               5      0.00000              0.00000              0.00000         *
 * H               6     -0.00000             -0.00000              0.00000         *
 * H               7      0.00000              0.00000             -0.00000         *
 * H               8      0.00000             -0.00000             -0.00000         *
 *                                                                                  *
 ************************************************************************************

 *********** Symmetrised Stress Tensor ***********
 *                                               *
 *          Cartesian components (GPa)           *
 * --------------------------------------------- *
 *             x             y             z     *
 *                                               *
 *  x   -279.999996      0.000000      0.000000  *
 *  y      0.000000   -279.999998      0.000000  *
 *  z      0.000000      0.000000   -279.999992  *
 *                                               *
 *  Pressure:  280.0000                          *
 *                                               *
 *************************************************
  
 +------------+-------------+-------------+-----------------+ <-- min LBFGS
 |    Step    |   lambda    |   F.delta'  |    enthalpy     | <-- min LBFGS
 +------------+-------------+-------------+-----------------+ <-- min LBFGS
 |  previous  |    0.000000 |  6.981E-008 |      -93.209179 | <-- min LBFGS
 | trial step |    1.000000 |  2.635E-008 |      -93.209179 | <-- min LBFGS
 +------------+-------------+-------------+-----------------+ <-- min LBFGS
  
 LBFGS: finished iteration    11 with enthalpy= -9.32091792E+001 eV
  
 +-----------+-----------------+-----------------+------------+-----+ <-- LBFGS
 | Parameter |      value      |    tolerance    |    units   | OK? | <-- LBFGS
 +-----------+-----------------+-----------------+------------+-----+ <-- LBFGS
 |  dE/ion   |   2.718964E-014 |   1.000000E-009 |         eV | Yes | <-- LBFGS
 |  |F|max   |   7.004048E-008 |   1.000000E-005 |       eV/A | Yes | <-- LBFGS
 |  |dR|max  |   5.866086E-009 |   1.000000E-005 |          A | Yes | <-- LBFGS
 |   Smax    |   7.511998E-006 |   1.000000E-005 |        GPa | Yes | <-- LBFGS
 +-----------+-----------------+-----------------+------------+-----+ <-- LBFGS
  
 LBFGS: Geometry optimization completed successfully.

================================================================================
 LBFGS: Final Configuration:
================================================================================

                           -------------------------------
                                      Unit Cell
                           -------------------------------
        Real Lattice(A)              Reciprocal Lattice(1/A)
     1.6408552    -0.0000000     0.0000000        3.829213848   0.000000000   0.000000000
    -0.0000000     2.8295178     0.0000000        0.000000000   2.220585180   0.000000000
     0.0000000     0.0000000     2.5701645        0.000000000   0.000000000   2.444662735

                       Lattice parameters(A)       Cell Angles
                    a =      1.640855          alpha =   90.000000
                    b =      2.829518          beta  =   90.000000
                    c =      2.570164          gamma =   90.000000

                Current cell volume =            11.932834 A**3

                           -------------------------------
                                     Cell Contents
                           -------------------------------

            xxxxxxxxxxxxxxxxxxxxxxxxxxxxxxxxxxxxxxxxxxxxxxxxxxxxxxxxxxxxxxxxx
            x  Element         Atom        Fractional coordinates of atoms  x
            x                 Number           u          v          w      x
            x---------------------------------------------------------------x
            x  H                 1         0.000000   0.373815   0.440718   x
            x  H                 2        -0.000000   0.126185   0.940718   x
            x  H                 3        -0.000000   0.873815   0.059282   x
            x  H                 4         0.000000   0.626185   0.559282   x
            x  H                 5         0.500000   0.873815   0.440718   x
            x  H                 6         0.500000   0.626185   0.940718   x
            x  H                 7         0.500000   0.373815   0.059282   x
            x  H                 8         0.500000   0.126185   0.559282   x
            xxxxxxxxxxxxxxxxxxxxxxxxxxxxxxxxxxxxxxxxxxxxxxxxxxxxxxxxxxxxxxxxx


 LBFGS: Final Enthalpy     = -9.32091792E+001 eV
 LBFGS: Final <frequency>  =     961.06452 cm-1
 LBFGS: Final bulk modulus =     829.28868 GPa

 ******************************** Symmetrised Forces ********************************
 *                                                                                  *
 *                           Cartesian components (eV/A)                            *
 * -------------------------------------------------------------------------------- *
 *                         x                    y                    z              *
 *                                                                                  *
 * H               1      0.00000              0.00000              0.00000         *
 * H               2     -0.00000             -0.00000              0.00000         *
 * H               3      0.00000              0.00000             -0.00000         *
 * H               4      0.00000             -0.00000             -0.00000         *
 * H               5      0.00000              0.00000              0.00000         *
 * H               6     -0.00000             -0.00000              0.00000         *
 * H               7      0.00000              0.00000             -0.00000         *
 * H               8      0.00000             -0.00000             -0.00000         *
 *                                                                                  *
 ************************************************************************************

 *********** Symmetrised Stress Tensor ***********
 *                                               *
 *          Cartesian components (GPa)           *
 * --------------------------------------------- *
 *             x             y             z     *
 *                                               *
 *  x   -279.999996      0.000000      0.000000  *
 *  y      0.000000   -279.999998      0.000000  *
 *  z      0.000000      0.000000   -279.999992  *
 *                                               *
 *  Pressure:  280.0000                          *
 *                                               *
 *************************************************

 Pseudo atomic calculation performed for H 1s1

 Converged in 24 iterations to a total energy of -12.4843 eV

Charge spilling parameter for spin component 1 = 0.65%

            Orbital Populations       
     Ion    Atom   Orbital             Charge
  -------------------------------------------
      H     1      S                    0.999
      H     2      S                    1.001
      H     3      S                    1.001
      H     4      S                    0.999
      H     5      S                    0.999
      H     6      S                    1.001
      H     7      S                    1.001
      H     8      S                    0.999
  -------------------------------------------
                           Total:       8.000
  -------------------------------------------

     Atomic Populations (Mulliken)
     -----------------------------
Species          Ion     s      p      d      f     Total  Charge (e)
=====================================================================
  H               1     1.00   0.00   0.00   0.00   1.00     0.00
  H               2     1.00   0.00   0.00   0.00   1.00     0.00
  H               3     1.00   0.00   0.00   0.00   1.00     0.00
  H               4     1.00   0.00   0.00   0.00   1.00     0.00
  H               5     1.00   0.00   0.00   0.00   1.00     0.00
  H               6     1.00   0.00   0.00   0.00   1.00     0.00
  H               7     1.00   0.00   0.00   0.00   1.00     0.00
  H               8     1.00   0.00   0.00   0.00   1.00     0.00
=====================================================================

                 Bond                   Population      Length (A)
======================================================================
               H 2 -- H 3                    0.99        0.77639
               H 6 -- H 7                    0.99        0.77639
               H 5 -- H 8                    0.99        0.77639
               H 1 -- H 4                    0.99        0.77639
               H 4 -- H 5                    0.41        1.12112
               H 3 -- H 6                    0.41        1.12112
               H 2 -- H 7                    0.41        1.12112
               H 1 -- H 8                    0.41        1.12112
               H 3 -- H 5                   -0.01        1.27836
               H 1 -- H 7                   -0.01        1.27836
               H 4 -- H 6                   -0.01        1.27836
               H 2 -- H 8                   -0.01        1.27836
               H 5 -- H 6                   -0.33        1.46369
               H 3 -- H 4                   -0.33        1.46369
               H 7 -- H 8                   -0.33        1.46369
               H 1 -- H 2                   -0.33        1.46369
               H 4 -- H 8                   -0.74        1.63543
               H 3 -- H 7                   -0.74        1.63543
               H 2 -- H 6                   -0.74        1.63543
               H 1 -- H 5                   -0.74        1.63543
======================================================================


Writing analysis data to Cmca4.castep_bin

Writing model to Cmca4.check
 
 A BibTeX formatted list of references used in this run has been written to 
 Cmca4.bib
 
Initialisation time =      2.74 s
Calculation time    =     40.19 s
Finalisation time   =      0.53 s
Total time          =     43.46 s
Peak Memory Use     = 513240 kB
  
Overall parallel efficiency rating: Very good (80%)                             
  
Data was distributed by:-
k-point (32-way); efficiency rating: Very good (81%)                            
  
Parallel notes:
1) Calculation only took 42.9 s, so efficiency estimates may be inaccurate.     
