 +-------------------------------------------------+
 |                                                 |
 |      CCC   AA    SSS  TTTTT  EEEEE  PPPP        |
 |     C     A  A  S       T    E      P   P       |
 |     C     AAAA   SS     T    EEE    PPPP        |
 |     C     A  A     S    T    E      P           |
 |      CCC  A  A  SSS     T    EEEEE  P           |
 |                                                 |
 +-------------------------------------------------+
 |                                                 |
 | Welcome to Academic Release CASTEP version 18.1 |          
 | Ab Initio Total Energy Program                  |
 |                                                 |
 | Authors:                                        |
 | M. Segall, M. Probert, C. Pickard, P. Hasnip,   |
 | S. Clark, K. Refson, J. R. Yates, M. Payne      |
 |                                                 |
 | Contributors:                                   |
 | P. Lindan, P. Haynes, J. White, V. Milman,      |
 | N. Govind, M. Gibson, P. Tulip, V. Cocula,      |
 | B. Montanari, D. Quigley, M. Glover,            |
 | L. Bernasconi, A. Perlov, M. Plummer,           |
 | E. McNellis, J. Meyer, J. Gale, D. Jochym       |
 | J. Aarons, B. Walker, R. Gillen, D. Jones       |
 | T. Green, I. J. Bush, C. J. Armstrong,          |
 | E. J. Higgins, E. L. Brown, M. S. McFly,        |
 | J. Wilkins, B-C. Shih, P. J. P. Byrne           |
 |                                                 |
 | Copyright (c) 2000 - 2017                       |
 |                                                 |
 |     Distributed under the terms of an           |
 |     Agreement between the United Kingdom        |
 |     Car-Parrinello (UKCP) Consortium,           |
 |     Daresbury Laboratory and Accelrys, Inc.     |
 |                                                 |
 | Please cite                                     |
 |                                                 |
 |     "First principles methods using CASTEP"     |
 |                                                 |
 |         Zeitschrift fuer Kristallographie       |
 |           220(5-6) pp. 567-570 (2005)           |
 |                                                 |
 | S. J. Clark, M. D. Segall, C. J. Pickard,       |
 | P. J. Hasnip, M. J. Probert, K. Refson,         |
 | M. C. Payne                                     |
 |                                                 |
 |       in all publications arising from          |
 |              your use of CASTEP                 |
 |                                                 |
 +-------------------------------------------------+


 Compiled for linux_x86_64_gfortran4.8 on Thu, 19 Jul 2018 15:42:32 +0100
 from code version 70483bd0ad64+  Sun, 10 Dec 2017 12:18:29 +0000
 Compiler: GNU Fortran 4.8.5; Optimisation: fast
 MATHLIBS: Intel MKL(2018.0.0) (LAPACK version 3.7.0)
 FFT Lib : mkl
 Fundamental constants values: CODATA 2014

 Run started: Wed, 26 Aug 2020 15:04:14 +0100

 Atomic calculation performed for H: 1s1

 Converged in 41 iterations to an ae energy of -12.488 eV

   ============================================================                
   | Pseudopotential Report - Date of generation 26-08-2020   |                
   ------------------------------------------------------------                
   | Element: H Ionic charge:  1.00 Level of theory: PBE      |                
   | Atomic Solver: Koelling-Harmon                           |                
   |                                                          |                
   |               Reference Electronic Structure             |                
   |         Orbital         Occupation         Energy        |                
   |            1s              1.000           -0.239        |                
   |                                                          |                
   |                 Pseudopotential Definition               |                
   |        Beta     l      e      Rc     scheme   norm       |                
   |         loc     0   -0.239   0.702     qc      1         |                
   |                                                          |                
   | No charge augmentation                                   |                
   | No partial core correction                               |                
   ------------------------------------------------------------                
   | "0|0.7|2|6|8|10L(qc=10)"                                 |                
   ------------------------------------------------------------                
   |      Author: Chris J. Pickard, Cambridge University      |                
   ============================================================                

 Pseudo atomic calculation performed for H 1s1

 Converged in 24 iterations to a total energy of -12.4843 eV

 Calculation parallelised over 32 processes.
 Data is distributed by k-point(32-way)

 ************************************ Title ************************************
 

 ***************************** General Parameters ******************************
  
 output verbosity                               : normal  (1)
 write checkpoint data to                       : Cmca4.check
 type of calculation                            : geometry optimization
 stress calculation                             : on
 density difference calculation                 : off
 electron localisation func (ELF) calculation   : off
 Hirshfeld analysis                             : off
 unlimited duration calculation
 timing information                             : on
 memory usage estimate                          : on
 write extra output files                       : on
 write final potential to formatted file        : off
 write final density to formatted file          : off
 write structure in CELL formatted file         : on
 write BibTeX reference list                    : on
 write OTFG pseudopotential files               : on
 write electrostatic potential file             : on
 write bands file                               : on
 checkpoint writing                             : both castep_bin and check files
  
 output         length unit                     : A
 output           mass unit                     : amu
 output           time unit                     : ps
 output         charge unit                     : e
 output           spin unit                     : hbar/2
 output         energy unit                     : eV
 output          force unit                     : eV/A
 output       velocity unit                     : A/ps
 output       pressure unit                     : GPa
 output     inv_length unit                     : 1/A
 output      frequency unit                     : cm-1
 output force constant unit                     : eV/A**2
 output         volume unit                     : A**3
 output   IR intensity unit                     : (D/A)**2/amu
 output         dipole unit                     : D
 output         efield unit                     : eV/A/e
 output        entropy unit                     : J/mol/K
  
 wavefunctions paging                           : none
 random number generator seed                   : randomised (150414746)
 data distribution                              : optimal for this architecture
 optimization strategy                          : maximize speed(+++)

 *********************** Exchange-Correlation Parameters ***********************
  
 using functional                               : Perdew Burke Ernzerhof
 relativistic treatment                         : Koelling-Harmon
 DFT+D: Semi-empirical dispersion correction    : off

 ************************* Pseudopotential Parameters **************************
  
 pseudopotential representation                 : reciprocal space
 <beta|phi> representation                      : reciprocal space
 spin-orbit coupling                            : off

 **************************** Basis Set Parameters *****************************
  
 plane wave basis set cut-off                   :  1200.0000   eV
 size of standard grid                          :     2.0000
 size of   fine   gmax                          :    35.4943   1/A
 finite basis set correction                    : automatic
 number of sample energies                      :          3
           sample  spacing                      :     5.0000   eV

 **************************** Electronic Parameters ****************************
  
 number of  electrons                           :  8.000    
 net charge of system                           :  0.000    
 treating system as non-spin-polarized
 number of bands                                :          4

 ********************* Electronic Minimization Parameters **********************
  
 Method: Treating system as non-metallic,
         and number of  SD  steps               :          1
         and number of  CG  steps               :          4
  
 total energy / atom convergence tol.           : 0.1000E-10   eV
 eigen-energy convergence tolerance             : 0.2000E-10   eV
 max force / atom convergence tol.              : ignored
 convergence tolerance window                   :          3   cycles
 max. number of SCF cycles                      :        100
 periodic dipole correction                     : NONE

 ************************** Density Mixing Parameters **************************
  
 density-mixing scheme                          : Broyden
 max. length of mixing history                  :         20
 charge density mixing amplitude                : 0.8000    
 cut-off energy for mixing                      :  1200.       eV

 *********************** Population Analysis Parameters ************************
  
 Population analysis with cutoff                :  3.000       A
 Population analysis output                     : summary and pdos components

 ********************** Geometry Optimization Parameters ***********************
  
 optimization method                            : LBFGS
 max. no. of LBFGS updates                      : unbounded
 variable cell method                           : fixed basis quality
 max. number of steps                           :         60
 estimated bulk modulus                         :  500.0       GPa
 estimated <frequency>                          :  1668.       cm-1
 geom line minimiser                            : on
 with line minimiser tolerance                  :     0.4000
 total energy convergence tolerance             : 0.1000E-08   eV/atom
        max ionic |force| tolerance             : 0.1000E-04   eV/A
 max ionic |displacement| tolerance             : 0.1000E-04   A
   max |stress component| tolerance             : 0.1000E-04   GPa
 convergence tolerance window                   :          2   steps
 backup results every                           :      14400   seconds
 write geom trajectory file                     : on

 *******************************************************************************
  

                           -------------------------------
                                      Unit Cell
                           -------------------------------
        Real Lattice(A)                      Reciprocal Lattice(1/A)
     1.8898461    -0.0000000     0.0000000        3.324707362   0.000000000   0.000000000
    -0.0000000     3.0662570     0.0000000        0.000000000   2.049138519   0.000000000
     0.0000000     0.0000000     2.9166561        0.000000000   0.000000000   2.154242754

                       Lattice parameters(A)       Cell Angles
                    a =      1.889846          alpha =   90.000000
                    b =      3.066257          beta  =   90.000000
                    c =      2.916656          gamma =   90.000000

                       Current cell volume =            16.901304       A**3
                                   density =             0.477095   AMU/A**3
                                           =             0.792234     g/cm^3

                           -------------------------------
                                     Cell Contents
                           -------------------------------
                         Total number of ions in cell =    8
                      Total number of species in cell =    1
                        Max number of any one species =    8

            xxxxxxxxxxxxxxxxxxxxxxxxxxxxxxxxxxxxxxxxxxxxxxxxxxxxxxxxxxxx
            x  Element    Atom        Fractional coordinates of atoms  x
            x            Number           u          v          w      x
            x----------------------------------------------------------x
            x  H            1         0.000000   0.386870   0.449099   x 
            x  H            2         0.000000   0.113130   0.949099   x 
            x  H            3        -0.000000   0.886870   0.050901   x 
            x  H            4         0.000000   0.613130   0.550901   x 
            x  H            5         0.500000   0.886870   0.449099   x 
            x  H            6         0.500000   0.613130   0.949099   x 
            x  H            7         0.500000   0.386870   0.050901   x 
            x  H            8         0.500000   0.113130   0.550901   x 
            xxxxxxxxxxxxxxxxxxxxxxxxxxxxxxxxxxxxxxxxxxxxxxxxxxxxxxxxxxxx


                         No user defined ionic velocities

                           -------------------------------
                                   Details of Species
                           -------------------------------

                               Mass of species in AMU
                                    H    1.0079400

                          Electric Quadrupole Moment (Barn)
                                    H    0.0028600 Isotope  2

                          Files used for pseudopotentials:
                                    H 0|0.7|2|6|8|10L(qc=10)

                           -------------------------------
                              k-Points For BZ Sampling
                           -------------------------------
                       MP grid size for SCF calculation is 11 11 11
                            with an offset of   0.000  0.000  0.000
                       Number of kpoints used =           216

                           -------------------------------
                               Symmetry and Constraints
                           -------------------------------

                      Cell is a supercell containing 2 primitive cells
                      Maximum deviation from symmetry = 0.612761E-14     ANG

                      Number of symmetry operations   =          16
                      Number of ionic constraints     =           3
                      Point group of crystal =     8: D2h, mmm, 2/m 2/m 2/m
                      Space group of crystal =    64: Cmce, -C 2bc 2

             Set iprint > 1 for details on symmetry rotations/translations

                         Centre of mass is constrained
             Set iprint > 1 for details of linear ionic constraints

                         Number of cell constraints= 3
                         Cell constraints are:  1 2 3 0 0 0

                         External pressure/stress (GPa)
                        110.00000   0.00000   0.00000
                                  110.00000   0.00000
                                            110.00000
  
+---------------- MEMORY AND SCRATCH DISK ESTIMATES PER PROCESS --------------+
|                                                     Memory          Disk    |
| Baseline code, static data and system overhead      478.0 MB         0.0 MB |
| BLAS internal memory storage                          0.0 MB         0.0 MB |
| Model and support data                               13.9 MB         0.0 MB |
| Electronic energy minimisation requirements           7.7 MB         0.0 MB |
| Force calculation requirements                        3.6 MB         0.0 MB |
| Stress calculation requirements                       4.5 MB         0.0 MB |
|                                               ----------------------------- |
| Approx. total storage required per process          499.6 MB         0.0 MB |
|                                                                             |
| Requirements will fluctuate during execution and may exceed these estimates |
+-----------------------------------------------------------------------------+
Calculating finite basis set correction with  3 cut-off energies.
Calculating total energy with cut-off of 1190.000 eV.
------------------------------------------------------------------------ <-- SCF
SCF loop      Energy                           Energy gain       Timer   <-- SCF
                                               per atom          (sec)   <-- SCF
------------------------------------------------------------------------ <-- SCF
Initial   1.95305808E+002                                          2.98  <-- SCF
      1  -1.00731630E+002                    3.70046797E+001       3.41  <-- SCF
      2  -1.20076030E+002                    2.41805005E+000       3.71  <-- SCF
      3  -1.19777692E+002                   -3.72922818E-002       4.27  <-- SCF
      4  -1.19764107E+002                   -1.69812117E-003       4.80  <-- SCF
      5  -1.19764459E+002                    4.40033232E-005       5.34  <-- SCF
      6  -1.19764491E+002                    4.03778205E-006       5.87  <-- SCF
      7  -1.19764492E+002                    1.49546052E-008       6.41  <-- SCF
      8  -1.19764492E+002                    1.04362133E-008       6.85  <-- SCF
      9  -1.19764492E+002                    1.03719702E-009       7.27  <-- SCF
     10  -1.19764492E+002                    1.24347271E-010       7.68  <-- SCF
     11  -1.19764492E+002                    3.56486346E-012       8.20  <-- SCF
     12  -1.19764492E+002                    3.92739195E-013       8.61  <-- SCF
------------------------------------------------------------------------ <-- SCF
 
Final energy =  -119.7644916295     eV
(energy not corrected for finite basis set)
 
Calculating total energy with cut-off of 1195.000 eV.
------------------------------------------------------------------------ <-- SCF
SCF loop      Energy                           Energy gain       Timer   <-- SCF
                                               per atom          (sec)   <-- SCF
------------------------------------------------------------------------ <-- SCF
Initial  -1.19764492E+002                                          9.00  <-- SCF
      1  -1.19765088E+002                    7.45603553E-005       9.33  <-- SCF
      2  -1.19765088E+002                    1.08779694E-010       9.83  <-- SCF
      3  -1.19765088E+002                    3.05346507E-008      10.36  <-- SCF
      4  -1.19765088E+002                    1.69534937E-009      10.89  <-- SCF
      5  -1.19765088E+002                    1.83922786E-011      11.33  <-- SCF
      6  -1.19765088E+002                    8.73089441E-013      11.78  <-- SCF
      7  -1.19765088E+002                    6.04214146E-015      12.19  <-- SCF
------------------------------------------------------------------------ <-- SCF
 
Final energy =  -119.7650883712     eV
(energy not corrected for finite basis set)
 
Calculating total energy with cut-off of 1200.000 eV.
------------------------------------------------------------------------ <-- SCF
SCF loop      Energy                           Energy gain       Timer   <-- SCF
                                               per atom          (sec)   <-- SCF
------------------------------------------------------------------------ <-- SCF
Initial  -1.19765088E+002                                         12.58  <-- SCF
      1  -1.19765646E+002                    6.97444246E-005      12.91  <-- SCF
      2  -1.19765646E+002                    1.05843213E-010      13.42  <-- SCF
      3  -1.19765647E+002                    2.71097806E-008      13.94  <-- SCF
      4  -1.19765647E+002                    1.44139212E-009      14.47  <-- SCF
      5  -1.19765647E+002                    1.54557979E-011      14.91  <-- SCF
      6  -1.19765647E+002                    6.88804126E-013      15.34  <-- SCF
      7  -1.19765647E+002                    3.20233497E-013      15.75  <-- SCF
------------------------------------------------------------------------ <-- SCF
 
Final energy =  -119.7656465560     eV
(energy not corrected for finite basis set)
 
 For future reference: finite basis dEtot/dlog(Ecut) =      -0.140184eV
 Total energy corrected for finite basis set =    -119.765663 eV
 
+---------------- MEMORY AND SCRATCH DISK ESTIMATES PER PROCESS --------------+
|                                                     Memory          Disk    |
| Model and support data                               23.5 MB         0.0 MB |
| Electronic energy minimisation requirements           7.7 MB         0.0 MB |
| Geometry minimisation requirements                    9.2 MB         0.0 MB |
|                                               ----------------------------- |
| Approx. total storage required per process           40.4 MB         0.0 MB |
|                                                                             |
| Requirements will fluctuate during execution and may exceed these estimates |
+-----------------------------------------------------------------------------+
 

 ******************************** Symmetrised Forces ********************************
 *                                                                                  *
 *                           Cartesian components (eV/A)                            *
 * -------------------------------------------------------------------------------- *
 *                         x                    y                    z              *
 *                                                                                  *
 * H               1     -0.00000              0.01089              0.00692         *
 * H               2      0.00000             -0.01089              0.00692         *
 * H               3      0.00000              0.01089             -0.00692         *
 * H               4     -0.00000             -0.01089             -0.00692         *
 * H               5     -0.00000              0.01089              0.00692         *
 * H               6      0.00000             -0.01089              0.00692         *
 * H               7      0.00000              0.01089             -0.00692         *
 * H               8     -0.00000             -0.01089             -0.00692         *
 *                                                                                  *
 ************************************************************************************

 *********** Symmetrised Stress Tensor ***********
 *                                               *
 *          Cartesian components (GPa)           *
 * --------------------------------------------- *
 *             x             y             z     *
 *                                               *
 *  x   -120.280649      0.000000      0.000000  *
 *  y      0.000000   -119.223201      0.000000  *
 *  z      0.000000      0.000000   -120.737581  *
 *                                               *
 *  Pressure:  120.0805                          *
 *                                               *
 *************************************************
 LBFGS: finished iteration     0 with enthalpy= -1.08161802E+002 eV
  
 +-----------+-----------------+-----------------+------------+-----+ <-- LBFGS
 | Parameter |      value      |    tolerance    |    units   | OK? | <-- LBFGS
 +-----------+-----------------+-----------------+------------+-----+ <-- LBFGS
 |  dE/ion   |   0.000000E+000 |   1.000000E-009 |         eV | No  | <-- LBFGS
 |  |F|max   |   1.290449E-002 |   1.000000E-005 |       eV/A | No  | <-- LBFGS
 |  |dR|max  |   0.000000E+000 |   1.000000E-005 |          A | No  | <-- LBFGS
 |   Smax    |   1.073758E+001 |   1.000000E-005 |        GPa | No  | <-- LBFGS
 +-----------+-----------------+-----------------+------------+-----+ <-- LBFGS
  

================================================================================
 Starting LBFGS iteration          1 ...
================================================================================
  
 +------------+-------------+-------------+-----------------+ <-- min LBFGS
 |    Step    |   lambda    |   F.delta'  |    enthalpy     | <-- min LBFGS
 +------------+-------------+-------------+-----------------+ <-- min LBFGS
 |  previous  |    0.000000 |    0.067885 |     -108.161802 | <-- min LBFGS
 +------------+-------------+-------------+-----------------+ <-- min LBFGS
  

--------------------------------------------------------------------------------
 LBFGS: starting iteration         1 with trial guess (lambda=  1.000000)
--------------------------------------------------------------------------------
 
+---------------- MEMORY AND SCRATCH DISK ESTIMATES PER PROCESS --------------+
|                                                     Memory          Disk    |
| Model and support data                               23.5 MB         0.0 MB |
| Electronic energy minimisation requirements           7.8 MB         0.0 MB |
| Geometry minimisation requirements                    9.3 MB         0.0 MB |
|                                               ----------------------------- |
| Approx. total storage required per process           40.6 MB         0.0 MB |
|                                                                             |
| Requirements will fluctuate during execution and may exceed these estimates |
+-----------------------------------------------------------------------------+
 

                           -------------------------------
                                      Unit Cell
                           -------------------------------
        Real Lattice(A)              Reciprocal Lattice(1/A)
     1.9027987    -0.0000000     0.0000000        3.302075708   0.000000000   0.000000000
    -0.0000000     3.0851108     0.0000000        0.000000000   2.036615774   0.000000000
     0.0000000     0.0000000     2.9375347        0.000000000   0.000000000   2.138931454

                       Lattice parameters(A)       Cell Angles
                    a =      1.902799          alpha =   90.000000
                    b =      3.085111          beta  =   90.000000
                    c =      2.937535          gamma =   90.000000

                Current cell volume =            17.244341 A**3

                           -------------------------------
                                     Cell Contents
                           -------------------------------

            xxxxxxxxxxxxxxxxxxxxxxxxxxxxxxxxxxxxxxxxxxxxxxxxxxxxxxxxxxxxxxxxx
            x  Element         Atom        Fractional coordinates of atoms  x
            x                 Number           u          v          w      x
            x---------------------------------------------------------------x
            x  H                 1        -0.000000   0.387214   0.449329   x
            x  H                 2        -0.000000   0.112786   0.949329   x
            x  H                 3         0.000000   0.887214   0.050671   x
            x  H                 4        -0.000000   0.612786   0.550671   x
            x  H                 5         0.500000   0.887214   0.449329   x
            x  H                 6         0.500000   0.612786   0.949329   x
            x  H                 7         0.500000   0.387214   0.050671   x
            x  H                 8         0.500000   0.112786   0.550671   x
            xxxxxxxxxxxxxxxxxxxxxxxxxxxxxxxxxxxxxxxxxxxxxxxxxxxxxxxxxxxxxxxxx


------------------------------------------------------------------------ <-- SCF
SCF loop      Energy                           Energy gain       Timer   <-- SCF
                                               per atom          (sec)   <-- SCF
------------------------------------------------------------------------ <-- SCF
Initial  -1.20008866E+002                                         16.67  <-- SCF
      1  -1.20016471E+002                    9.50661595E-004      17.02  <-- SCF
      2  -1.20016500E+002                    3.60706741E-006      17.55  <-- SCF
      3  -1.20016146E+002                   -4.43025739E-005      18.10  <-- SCF
      4  -1.20016130E+002                   -1.90519911E-006      18.64  <-- SCF
      5  -1.20016131E+002                    1.76683092E-008      19.18  <-- SCF
      6  -1.20016131E+002                    1.58737328E-009      19.72  <-- SCF
      7  -1.20016131E+002                    2.73104794E-012      20.14  <-- SCF
      8  -1.20016131E+002                    4.86392387E-013      20.56  <-- SCF
------------------------------------------------------------------------ <-- SCF
 
Final energy =  -120.0161305482     eV
(energy not corrected for finite basis set)
 

 ******************************** Symmetrised Forces ********************************
 *                                                                                  *
 *                           Cartesian components (eV/A)                            *
 * -------------------------------------------------------------------------------- *
 *                         x                    y                    z              *
 *                                                                                  *
 * H               1      0.00000              0.07367              0.03401         *
 * H               2     -0.00000             -0.07367              0.03401         *
 * H               3     -0.00000              0.07367             -0.03401         *
 * H               4      0.00000             -0.07367             -0.03401         *
 * H               5      0.00000              0.07367              0.03401         *
 * H               6     -0.00000             -0.07367              0.03401         *
 * H               7     -0.00000              0.07367             -0.03401         *
 * H               8      0.00000             -0.07367             -0.03401         *
 *                                                                                  *
 ************************************************************************************

 *********** Symmetrised Stress Tensor ***********
 *                                               *
 *          Cartesian components (GPa)           *
 * --------------------------------------------- *
 *             x             y             z     *
 *                                               *
 *  x   -114.344327      0.000000      0.000000  *
 *  y      0.000000   -111.583413      0.000000  *
 *  z      0.000000      0.000000   -114.470576  *
 *                                               *
 *  Pressure:  113.4661                          *
 *                                               *
 *************************************************
  
 +------------+-------------+-------------+-----------------+ <-- min LBFGS
 |    Step    |   lambda    |   F.delta'  |    enthalpy     | <-- min LBFGS
 +------------+-------------+-------------+-----------------+ <-- min LBFGS
 |  previous  |    0.000000 |    0.067885 |     -108.161802 | <-- min LBFGS
 | trial step |    1.000000 |    0.026507 |     -108.176751 | <-- min LBFGS
 +------------+-------------+-------------+-----------------+ <-- min LBFGS
  

--------------------------------------------------------------------------------
 LBFGS: improving iteration         1 with line minimization (lambda=  1.640586)
--------------------------------------------------------------------------------
 
+---------------- MEMORY AND SCRATCH DISK ESTIMATES PER PROCESS --------------+
|                                                     Memory          Disk    |
| Model and support data                               23.5 MB         0.0 MB |
| Electronic energy minimisation requirements           7.8 MB         0.0 MB |
| Geometry minimisation requirements                    9.4 MB         0.0 MB |
|                                               ----------------------------- |
| Approx. total storage required per process           40.7 MB         0.0 MB |
|                                                                             |
| Requirements will fluctuate during execution and may exceed these estimates |
+-----------------------------------------------------------------------------+
 

                           -------------------------------
                                      Unit Cell
                           -------------------------------
        Real Lattice(A)              Reciprocal Lattice(1/A)
     1.9110959    -0.0000000     0.0000000        3.287739387   0.000000000   0.000000000
    -0.0000000     3.0971883     0.0000000        0.000000000   2.028673992   0.000000000
     0.0000000     0.0000000     2.9509092        0.000000000   0.000000000   2.129237099

                       Lattice parameters(A)       Cell Angles
                    a =      1.911096          alpha =   90.000000
                    b =      3.097188          beta  =   90.000000
                    c =      2.950909          gamma =   90.000000

                Current cell volume =            17.466502 A**3

                           -------------------------------
                                     Cell Contents
                           -------------------------------

            xxxxxxxxxxxxxxxxxxxxxxxxxxxxxxxxxxxxxxxxxxxxxxxxxxxxxxxxxxxxxxxxx
            x  Element         Atom        Fractional coordinates of atoms  x
            x                 Number           u          v          w      x
            x---------------------------------------------------------------x
            x  H                 1        -0.000000   0.387435   0.449477   x
            x  H                 2        -0.000000   0.112565   0.949477   x
            x  H                 3         0.000000   0.887435   0.050523   x
            x  H                 4        -0.000000   0.612565   0.550523   x
            x  H                 5         0.500000   0.887435   0.449477   x
            x  H                 6         0.500000   0.612565   0.949477   x
            x  H                 7         0.500000   0.387435   0.050523   x
            x  H                 8         0.500000   0.112565   0.550523   x
            xxxxxxxxxxxxxxxxxxxxxxxxxxxxxxxxxxxxxxxxxxxxxxxxxxxxxxxxxxxxxxxxx


------------------------------------------------------------------------ <-- SCF
SCF loop      Energy                           Energy gain       Timer   <-- SCF
                                               per atom          (sec)   <-- SCF
------------------------------------------------------------------------ <-- SCF
Initial  -1.20167993E+002                                         21.44  <-- SCF
      1  -1.20171543E+002                    4.43833745E-004      21.78  <-- SCF
      2  -1.20171555E+002                    1.49421422E-006      22.32  <-- SCF
      3  -1.20171407E+002                   -1.85699212E-005      22.85  <-- SCF
      4  -1.20171400E+002                   -7.90839443E-007      23.39  <-- SCF
      5  -1.20171400E+002                    7.50765079E-009      23.92  <-- SCF
      6  -1.20171400E+002                    6.75148887E-010      24.45  <-- SCF
      7  -1.20171400E+002                    1.25676542E-012      24.87  <-- SCF
      8  -1.20171400E+002                    5.74003439E-014      25.29  <-- SCF
------------------------------------------------------------------------ <-- SCF
 
Final energy =  -120.1714004363     eV
(energy not corrected for finite basis set)
 

 ******************************** Symmetrised Forces ********************************
 *                                                                                  *
 *                           Cartesian components (eV/A)                            *
 * -------------------------------------------------------------------------------- *
 *                         x                    y                    z              *
 *                                                                                  *
 * H               1      0.00000              0.11373              0.05116         *
 * H               2      0.00000             -0.11373              0.05116         *
 * H               3      0.00000              0.11373             -0.05116         *
 * H               4      0.00000             -0.11373             -0.05116         *
 * H               5      0.00000              0.11373              0.05116         *
 * H               6      0.00000             -0.11373              0.05116         *
 * H               7      0.00000              0.11373             -0.05116         *
 * H               8      0.00000             -0.11373             -0.05116         *
 *                                                                                  *
 ************************************************************************************

 *********** Symmetrised Stress Tensor ***********
 *                                               *
 *          Cartesian components (GPa)           *
 * --------------------------------------------- *
 *             x             y             z     *
 *                                               *
 *  x   -110.722414     -0.000000      0.000000  *
 *  y     -0.000000   -106.891273      0.000000  *
 *  z      0.000000      0.000000   -110.634776  *
 *                                               *
 *  Pressure:  109.4162                          *
 *                                               *
 *************************************************
  
 +------------+-------------+-------------+-----------------+ <-- min LBFGS
 |    Step    |   lambda    |   F.delta'  |    enthalpy     | <-- min LBFGS
 +------------+-------------+-------------+-----------------+ <-- min LBFGS
 |  previous  |    0.000000 |    0.067885 |     -108.161802 | <-- min LBFGS
 | trial step |    1.000000 |    0.026507 |     -108.176751 | <-- min LBFGS
 |  line step |    1.640586 |    0.000656 |     -108.179496 | <-- min LBFGS
 +------------+-------------+-------------+-----------------+ <-- min LBFGS
  
 LBFGS: finished iteration     1 with enthalpy= -1.08179496E+002 eV
  
 +-----------+-----------------+-----------------+------------+-----+ <-- LBFGS
 | Parameter |      value      |    tolerance    |    units   | OK? | <-- LBFGS
 +-----------+-----------------+-----------------+------------+-----+ <-- LBFGS
 |  dE/ion   |   2.211681E-003 |   1.000000E-009 |         eV | No  | <-- LBFGS
 |  |F|max   |   1.247051E-001 |   1.000000E-005 |       eV/A | No  | <-- LBFGS
 |  |dR|max  |   2.075060E-003 |   1.000000E-005 |          A | No  | <-- LBFGS
 |   Smax    |   3.108727E+000 |   1.000000E-005 |        GPa | No  | <-- LBFGS
 +-----------+-----------------+-----------------+------------+-----+ <-- LBFGS
  

================================================================================
 Starting LBFGS iteration          2 ...
================================================================================
  
 +------------+-------------+-------------+-----------------+ <-- min LBFGS
 |    Step    |   lambda    |   F.delta'  |    enthalpy     | <-- min LBFGS
 +------------+-------------+-------------+-----------------+ <-- min LBFGS
 |  previous  |    0.000000 |    0.034835 |     -108.179496 | <-- min LBFGS
 +------------+-------------+-------------+-----------------+ <-- min LBFGS
  

--------------------------------------------------------------------------------
 LBFGS: starting iteration         2 with trial guess (lambda=  1.000000)
--------------------------------------------------------------------------------
 
+---------------- MEMORY AND SCRATCH DISK ESTIMATES PER PROCESS --------------+
|                                                     Memory          Disk    |
| Model and support data                               23.5 MB         0.0 MB |
| Electronic energy minimisation requirements           7.9 MB         0.0 MB |
| Geometry minimisation requirements                    9.4 MB         0.0 MB |
|                                               ----------------------------- |
| Approx. total storage required per process           40.9 MB         0.0 MB |
|                                                                             |
| Requirements will fluctuate during execution and may exceed these estimates |
+-----------------------------------------------------------------------------+
 

                           -------------------------------
                                      Unit Cell
                           -------------------------------
        Real Lattice(A)              Reciprocal Lattice(1/A)
     1.9201031    -0.0000000     0.0000000        3.272316614   0.000000000   0.000000000
    -0.0000000     3.1023670     0.0000000        0.000000000   2.025287590   0.000000000
     0.0000000     0.0000000     2.9651872        0.000000000   0.000000000   2.118984359

                       Lattice parameters(A)       Cell Angles
                    a =      1.920103          alpha =   90.000000
                    b =      3.102367          beta  =   90.000000
                    c =      2.965187          gamma =   90.000000

                Current cell volume =            17.663218 A**3

                           -------------------------------
                                     Cell Contents
                           -------------------------------

            xxxxxxxxxxxxxxxxxxxxxxxxxxxxxxxxxxxxxxxxxxxxxxxxxxxxxxxxxxxxxxxxx
            x  Element         Atom        Fractional coordinates of atoms  x
            x                 Number           u          v          w      x
            x---------------------------------------------------------------x
            x  H                 1        -0.000000   0.391318   0.451358   x
            x  H                 2        -0.000000   0.108682   0.951358   x
            x  H                 3         0.000000   0.891318   0.048642   x
            x  H                 4        -0.000000   0.608682   0.548642   x
            x  H                 5         0.500000   0.891318   0.451358   x
            x  H                 6         0.500000   0.608682   0.951358   x
            x  H                 7         0.500000   0.391318   0.048642   x
            x  H                 8         0.500000   0.108682   0.548642   x
            xxxxxxxxxxxxxxxxxxxxxxxxxxxxxxxxxxxxxxxxxxxxxxxxxxxxxxxxxxxxxxxxx


------------------------------------------------------------------------ <-- SCF
SCF loop      Energy                           Energy gain       Timer   <-- SCF
                                               per atom          (sec)   <-- SCF
------------------------------------------------------------------------ <-- SCF
Initial  -1.20146414E+002                                         26.41  <-- SCF
      1  -1.20299889E+002                    1.91844201E-002      26.75  <-- SCF
      2  -1.20300453E+002                    7.04907769E-005      27.29  <-- SCF
      3  -1.20290316E+002                   -1.26716795E-003      27.81  <-- SCF
      4  -1.20289879E+002                   -5.46120597E-005      28.34  <-- SCF
      5  -1.20289881E+002                    2.67723463E-007      28.87  <-- SCF
      6  -1.20289881E+002                    2.19748788E-008      29.41  <-- SCF
      7  -1.20289881E+002                    7.77955924E-011      29.83  <-- SCF
      8  -1.20289881E+002                    5.20530487E-012      30.24  <-- SCF
      9  -1.20289881E+002                    4.83371317E-014      30.67  <-- SCF
------------------------------------------------------------------------ <-- SCF
 
Final energy =  -120.2898814062     eV
(energy not corrected for finite basis set)
 

 ******************************** Symmetrised Forces ********************************
 *                                                                                  *
 *                           Cartesian components (eV/A)                            *
 * -------------------------------------------------------------------------------- *
 *                         x                    y                    z              *
 *                                                                                  *
 * H               1      0.00000             -0.42677             -0.19988         *
 * H               2      0.00000              0.42677             -0.19988         *
 * H               3      0.00000             -0.42677              0.19988         *
 * H               4      0.00000              0.42677              0.19988         *
 * H               5      0.00000             -0.42677             -0.19988         *
 * H               6      0.00000              0.42677             -0.19988         *
 * H               7      0.00000             -0.42677              0.19988         *
 * H               8      0.00000              0.42677              0.19988         *
 *                                                                                  *
 ************************************************************************************

 *********** Symmetrised Stress Tensor ***********
 *                                               *
 *          Cartesian components (GPa)           *
 * --------------------------------------------- *
 *             x             y             z     *
 *                                               *
 *  x   -109.432564     -0.000000      0.000000  *
 *  y     -0.000000   -117.745193      0.000000  *
 *  z      0.000000      0.000000   -110.696537  *
 *                                               *
 *  Pressure:  112.6248                          *
 *                                               *
 *************************************************
  
 +------------+-------------+-------------+-----------------+ <-- min LBFGS
 |    Step    |   lambda    |   F.delta'  |    enthalpy     | <-- min LBFGS
 +------------+-------------+-------------+-----------------+ <-- min LBFGS
 |  previous  |    0.000000 |    0.034835 |     -108.179496 | <-- min LBFGS
 | trial step |    1.000000 |   -0.126643 |     -108.162913 | <-- min LBFGS
 +------------+-------------+-------------+-----------------+ <-- min LBFGS
  

--------------------------------------------------------------------------------
 LBFGS: improving iteration         2 with line minimization (lambda=  0.215724)
--------------------------------------------------------------------------------

                           -------------------------------
                                      Unit Cell
                           -------------------------------
        Real Lattice(A)              Reciprocal Lattice(1/A)
     1.9130390    -0.0000000     0.0000000        3.284400033   0.000000000   0.000000000
    -0.0000000     3.0983054     0.0000000        0.000000000   2.027942505   0.000000000
     0.0000000     0.0000000     2.9539893        0.000000000   0.000000000   2.127016949

                       Lattice parameters(A)       Cell Angles
                    a =      1.913039          alpha =   90.000000
                    b =      3.098305          beta  =   90.000000
                    c =      2.953989          gamma =   90.000000

                Current cell volume =            17.508824 A**3

                           -------------------------------
                                     Cell Contents
                           -------------------------------

            xxxxxxxxxxxxxxxxxxxxxxxxxxxxxxxxxxxxxxxxxxxxxxxxxxxxxxxxxxxxxxxxx
            x  Element         Atom        Fractional coordinates of atoms  x
            x                 Number           u          v          w      x
            x---------------------------------------------------------------x
            x  H                 1        -0.000000   0.388273   0.449883   x
            x  H                 2        -0.000000   0.111727   0.949883   x
            x  H                 3         0.000000   0.888273   0.050117   x
            x  H                 4        -0.000000   0.611727   0.550117   x
            x  H                 5         0.500000   0.888273   0.449883   x
            x  H                 6         0.500000   0.611727   0.949883   x
            x  H                 7         0.500000   0.388273   0.050117   x
            x  H                 8         0.500000   0.111727   0.550117   x
            xxxxxxxxxxxxxxxxxxxxxxxxxxxxxxxxxxxxxxxxxxxxxxxxxxxxxxxxxxxxxxxxx


------------------------------------------------------------------------ <-- SCF
SCF loop      Energy                           Energy gain       Timer   <-- SCF
                                               per atom          (sec)   <-- SCF
------------------------------------------------------------------------ <-- SCF
Initial  -1.20112339E+002                                         31.54  <-- SCF
      1  -1.20208308E+002                    1.19961803E-002      31.88  <-- SCF
      2  -1.20208678E+002                    4.62126655E-005      32.41  <-- SCF
      3  -1.20202296E+002                   -7.97664270E-004      32.94  <-- SCF
      4  -1.20202020E+002                   -3.45398656E-005      33.47  <-- SCF
      5  -1.20202021E+002                    1.42697986E-007      33.99  <-- SCF
      6  -1.20202021E+002                    1.11535937E-008      34.51  <-- SCF
      7  -1.20202021E+002                    3.18330223E-011      34.94  <-- SCF
      8  -1.20202021E+002                    2.73406901E-012      35.35  <-- SCF
      9  -1.20202021E+002                    6.04214146E-014      35.76  <-- SCF
------------------------------------------------------------------------ <-- SCF
 
Final energy =  -120.2020212965     eV
(energy not corrected for finite basis set)
 

 ******************************** Symmetrised Forces ********************************
 *                                                                                  *
 *                           Cartesian components (eV/A)                            *
 * -------------------------------------------------------------------------------- *
 *                         x                    y                    z              *
 *                                                                                  *
 * H               1      0.00000              0.00709              0.00134         *
 * H               2      0.00000             -0.00709              0.00134         *
 * H               3     -0.00000              0.00709             -0.00134         *
 * H               4     -0.00000             -0.00709             -0.00134         *
 * H               5      0.00000              0.00709              0.00134         *
 * H               6      0.00000             -0.00709              0.00134         *
 * H               7     -0.00000              0.00709             -0.00134         *
 * H               8     -0.00000             -0.00709             -0.00134         *
 *                                                                                  *
 ************************************************************************************

 *********** Symmetrised Stress Tensor ***********
 *                                               *
 *          Cartesian components (GPa)           *
 * --------------------------------------------- *
 *             x             y             z     *
 *                                               *
 *  x   -110.395757      0.000000      0.000000  *
 *  y      0.000000   -109.117243      0.000000  *
 *  z      0.000000      0.000000   -110.581387  *
 *                                               *
 *  Pressure:  110.0315                          *
 *                                               *
 *************************************************
  
 +------------+-------------+-------------+-----------------+ <-- min LBFGS
 |    Step    |   lambda    |   F.delta'  |    enthalpy     | <-- min LBFGS
 +------------+-------------+-------------+-----------------+ <-- min LBFGS
 |  previous  |    0.000000 |    0.034835 |     -108.179496 | <-- min LBFGS
 | trial step |    1.000000 |   -0.126643 |     -108.162913 | <-- min LBFGS
 |  line step |    0.215724 |    0.002847 |     -108.181051 | <-- min LBFGS
 +------------+-------------+-------------+-----------------+ <-- min LBFGS
  
 LBFGS: finished iteration     2 with enthalpy= -1.08181051E+002 eV
  
 +-----------+-----------------+-----------------+------------+-----+ <-- LBFGS
 | Parameter |      value      |    tolerance    |    units   | OK? | <-- LBFGS
 +-----------+-----------------+-----------------+------------+-----+ <-- LBFGS
 |  dE/ion   |   1.943856E-004 |   1.000000E-009 |         eV | No  | <-- LBFGS
 |  |F|max   |   7.214668E-003 |   1.000000E-005 |       eV/A | No  | <-- LBFGS
 |  |dR|max  |   2.859278E-003 |   1.000000E-005 |          A | No  | <-- LBFGS
 |   Smax    |   8.827567E-001 |   1.000000E-005 |        GPa | No  | <-- LBFGS
 +-----------+-----------------+-----------------+------------+-----+ <-- LBFGS
  

================================================================================
 Starting LBFGS iteration          3 ...
================================================================================
  
 +------------+-------------+-------------+-----------------+ <-- min LBFGS
 |    Step    |   lambda    |   F.delta'  |    enthalpy     | <-- min LBFGS
 +------------+-------------+-------------+-----------------+ <-- min LBFGS
 |  previous  |    0.000000 |    0.004466 |     -108.181051 | <-- min LBFGS
 +------------+-------------+-------------+-----------------+ <-- min LBFGS
  

--------------------------------------------------------------------------------
 LBFGS: starting iteration         3 with trial guess (lambda=  1.000000)
--------------------------------------------------------------------------------

                           -------------------------------
                                      Unit Cell
                           -------------------------------
        Real Lattice(A)              Reciprocal Lattice(1/A)
     1.9138338    -0.0000000     0.0000000        3.283035991   0.000000000   0.000000000
    -0.0000000     3.0970554     0.0000000        0.000000000   2.028761008   0.000000000
     0.0000000     0.0000000     2.9556466        0.000000000   0.000000000   2.125824245

                       Lattice parameters(A)       Cell Angles
                    a =      1.913834          alpha =   90.000000
                    b =      3.097055          beta  =   90.000000
                    c =      2.955647          gamma =   90.000000

                Current cell volume =            17.518855 A**3

                           -------------------------------
                                     Cell Contents
                           -------------------------------

            xxxxxxxxxxxxxxxxxxxxxxxxxxxxxxxxxxxxxxxxxxxxxxxxxxxxxxxxxxxxxxxxx
            x  Element         Atom        Fractional coordinates of atoms  x
            x                 Number           u          v          w      x
            x---------------------------------------------------------------x
            x  H                 1        -0.000000   0.388334   0.449846   x
            x  H                 2        -0.000000   0.111666   0.949846   x
            x  H                 3         0.000000   0.888334   0.050154   x
            x  H                 4        -0.000000   0.611666   0.550154   x
            x  H                 5         0.500000   0.888334   0.449846   x
            x  H                 6         0.500000   0.611666   0.949846   x
            x  H                 7         0.500000   0.388334   0.050154   x
            x  H                 8         0.500000   0.111666   0.550154   x
            xxxxxxxxxxxxxxxxxxxxxxxxxxxxxxxxxxxxxxxxxxxxxxxxxxxxxxxxxxxxxxxxx


------------------------------------------------------------------------ <-- SCF
SCF loop      Energy                           Energy gain       Timer   <-- SCF
                                               per atom          (sec)   <-- SCF
------------------------------------------------------------------------ <-- SCF
Initial  -1.20208833E+002                                         36.66  <-- SCF
      1  -1.20208984E+002                    1.89371544E-005      36.99  <-- SCF
      2  -1.20208985E+002                    6.66881576E-008      37.52  <-- SCF
      3  -1.20208981E+002                   -4.69714014E-007      38.06  <-- SCF
      4  -1.20208981E+002                   -1.70587568E-008      38.62  <-- SCF
      5  -1.20208981E+002                    2.15266395E-010      39.08  <-- SCF
      6  -1.20208981E+002                    2.09390412E-011      39.61  <-- SCF
      7  -1.20208981E+002                    3.68570629E-013      40.03  <-- SCF
      8  -1.20208981E+002                   -7.55267682E-014      40.44  <-- SCF
------------------------------------------------------------------------ <-- SCF
 
Final energy =  -120.2089810197     eV
(energy not corrected for finite basis set)
 

 ******************************** Symmetrised Forces ********************************
 *                                                                                  *
 *                           Cartesian components (eV/A)                            *
 * -------------------------------------------------------------------------------- *
 *                         x                    y                    z              *
 *                                                                                  *
 * H               1     -0.00000             -0.00088             -0.00225         *
 * H               2      0.00000              0.00088             -0.00225         *
 * H               3     -0.00000             -0.00088              0.00225         *
 * H               4      0.00000              0.00088              0.00225         *
 * H               5      0.00000             -0.00088             -0.00225         *
 * H               6      0.00000              0.00088             -0.00225         *
 * H               7      0.00000             -0.00088              0.00225         *
 * H               8      0.00000              0.00088              0.00225         *
 *                                                                                  *
 ************************************************************************************

 *********** Symmetrised Stress Tensor ***********
 *                                               *
 *          Cartesian components (GPa)           *
 * --------------------------------------------- *
 *             x             y             z     *
 *                                               *
 *  x   -110.227649      0.000000      0.000000  *
 *  y      0.000000   -109.456124      0.000000  *
 *  z      0.000000      0.000000   -110.288682  *
 *                                               *
 *  Pressure:  109.9908                          *
 *                                               *
 *************************************************
  
 +------------+-------------+-------------+-----------------+ <-- min LBFGS
 |    Step    |   lambda    |   F.delta'  |    enthalpy     | <-- min LBFGS
 +------------+-------------+-------------+-----------------+ <-- min LBFGS
 |  previous  |    0.000000 |    0.004466 |     -108.181051 | <-- min LBFGS
 | trial step |    1.000000 |    0.002301 |     -108.181128 | <-- min LBFGS
 +------------+-------------+-------------+-----------------+ <-- min LBFGS
  

--------------------------------------------------------------------------------
 LBFGS: improving iteration         3 with line minimization (lambda=  2.062737)
--------------------------------------------------------------------------------

                           -------------------------------
                                      Unit Cell
                           -------------------------------
        Real Lattice(A)              Reciprocal Lattice(1/A)
     1.9146785    -0.0000000     0.0000000        3.281587615   0.000000000   0.000000000
    -0.0000000     3.0957270     0.0000000        0.000000000   2.029631586   0.000000000
     0.0000000     0.0000000     2.9574080        0.000000000   0.000000000   2.124558180

                       Lattice parameters(A)       Cell Angles
                    a =      1.914679          alpha =   90.000000
                    b =      3.095727          beta  =   90.000000
                    c =      2.957408          gamma =   90.000000

                Current cell volume =            17.529509 A**3

                           -------------------------------
                                     Cell Contents
                           -------------------------------

            xxxxxxxxxxxxxxxxxxxxxxxxxxxxxxxxxxxxxxxxxxxxxxxxxxxxxxxxxxxxxxxxx
            x  Element         Atom        Fractional coordinates of atoms  x
            x                 Number           u          v          w      x
            x---------------------------------------------------------------x
            x  H                 1        -0.000000   0.388400   0.449806   x
            x  H                 2        -0.000000   0.111600   0.949806   x
            x  H                 3         0.000000   0.888400   0.050194   x
            x  H                 4        -0.000000   0.611600   0.550194   x
            x  H                 5         0.500000   0.888400   0.449806   x
            x  H                 6         0.500000   0.611600   0.949806   x
            x  H                 7         0.500000   0.388400   0.050194   x
            x  H                 8         0.500000   0.111600   0.550194   x
            xxxxxxxxxxxxxxxxxxxxxxxxxxxxxxxxxxxxxxxxxxxxxxxxxxxxxxxxxxxxxxxxx


------------------------------------------------------------------------ <-- SCF
SCF loop      Energy                           Energy gain       Timer   <-- SCF
                                               per atom          (sec)   <-- SCF
------------------------------------------------------------------------ <-- SCF
Initial  -1.20216151E+002                                         41.33  <-- SCF
      1  -1.20216324E+002                    2.16784583E-005      41.67  <-- SCF
      2  -1.20216325E+002                    7.93243750E-008      42.19  <-- SCF
      3  -1.20216321E+002                   -5.30146932E-007      42.74  <-- SCF
      4  -1.20216321E+002                   -1.92747968E-008      43.29  <-- SCF
      5  -1.20216321E+002                    2.45039047E-010      43.76  <-- SCF
      6  -1.20216321E+002                    2.32018232E-011      44.17  <-- SCF
      7  -1.20216321E+002                    5.07539883E-013      44.59  <-- SCF
      8  -1.20216321E+002                   -2.05432810E-013      45.01  <-- SCF
------------------------------------------------------------------------ <-- SCF
 
Final energy =  -120.2163205218     eV
(energy not corrected for finite basis set)
 

 ******************************** Symmetrised Forces ********************************
 *                                                                                  *
 *                           Cartesian components (eV/A)                            *
 * -------------------------------------------------------------------------------- *
 *                         x                    y                    z              *
 *                                                                                  *
 * H               1      0.00000             -0.00933             -0.00609         *
 * H               2      0.00000              0.00933             -0.00609         *
 * H               3      0.00000             -0.00933              0.00609         *
 * H               4      0.00000              0.00933              0.00609         *
 * H               5      0.00000             -0.00933             -0.00609         *
 * H               6      0.00000              0.00933             -0.00609         *
 * H               7      0.00000             -0.00933              0.00609         *
 * H               8      0.00000              0.00933              0.00609         *
 *                                                                                  *
 ************************************************************************************

 *********** Symmetrised Stress Tensor ***********
 *                                               *
 *          Cartesian components (GPa)           *
 * --------------------------------------------- *
 *             x             y             z     *
 *                                               *
 *  x   -110.052310      0.000000      0.000000  *
 *  y      0.000000   -109.813326      0.000000  *
 *  z      0.000000      0.000000   -109.979772  *
 *                                               *
 *  Pressure:  109.9485                          *
 *                                               *
 *************************************************
  
 +------------+-------------+-------------+-----------------+ <-- min LBFGS
 |    Step    |   lambda    |   F.delta'  |    enthalpy     | <-- min LBFGS
 +------------+-------------+-------------+-----------------+ <-- min LBFGS
 |  previous  |    0.000000 |    0.004466 |     -108.181051 | <-- min LBFGS
 | trial step |    1.000000 |    0.002301 |     -108.181128 | <-- min LBFGS
 |  line step |    2.062737 |    0.000020 |     -108.181156 | <-- min LBFGS
 +------------+-------------+-------------+-----------------+ <-- min LBFGS
  
 LBFGS: finished iteration     3 with enthalpy= -1.08181156E+002 eV
  
 +-----------+-----------------+-----------------+------------+-----+ <-- LBFGS
 | Parameter |      value      |    tolerance    |    units   | OK? | <-- LBFGS
 +-----------+-----------------+-----------------+------------+-----+ <-- LBFGS
 |  dE/ion   |   1.315438E-005 |   1.000000E-009 |         eV | No  | <-- LBFGS
 |  |F|max   |   1.114248E-002 |   1.000000E-005 |       eV/A | No  | <-- LBFGS
 |  |dR|max  |   4.542784E-004 |   1.000000E-005 |          A | No  | <-- LBFGS
 |   Smax    |   1.866739E-001 |   1.000000E-005 |        GPa | No  | <-- LBFGS
 +-----------+-----------------+-----------------+------------+-----+ <-- LBFGS
  

================================================================================
 Starting LBFGS iteration          4 ...
================================================================================
  
 +------------+-------------+-------------+-----------------+ <-- min LBFGS
 |    Step    |   lambda    |   F.delta'  |    enthalpy     | <-- min LBFGS
 +------------+-------------+-------------+-----------------+ <-- min LBFGS
 |  previous  |    0.000000 |    0.002378 |     -108.181156 | <-- min LBFGS
 +------------+-------------+-------------+-----------------+ <-- min LBFGS
  

--------------------------------------------------------------------------------
 LBFGS: starting iteration         4 with trial guess (lambda=  1.000000)
--------------------------------------------------------------------------------

                           -------------------------------
                                      Unit Cell
                           -------------------------------
        Real Lattice(A)              Reciprocal Lattice(1/A)
     1.9148353    -0.0000000     0.0000000        3.281318927   0.000000000   0.000000000
    -0.0000000     3.0942373     0.0000000        0.000000000   2.030608716   0.000000000
     0.0000000     0.0000000     2.9576103        0.000000000   0.000000000   2.124412868

                       Lattice parameters(A)       Cell Angles
                    a =      1.914835          alpha =   90.000000
                    b =      3.094237          beta  =   90.000000
                    c =      2.957610          gamma =   90.000000

                Current cell volume =            17.523707 A**3

                           -------------------------------
                                     Cell Contents
                           -------------------------------

            xxxxxxxxxxxxxxxxxxxxxxxxxxxxxxxxxxxxxxxxxxxxxxxxxxxxxxxxxxxxxxxxx
            x  Element         Atom        Fractional coordinates of atoms  x
            x                 Number           u          v          w      x
            x---------------------------------------------------------------x
            x  H                 1        -0.000000   0.388343   0.449693   x
            x  H                 2        -0.000000   0.111657   0.949693   x
            x  H                 3         0.000000   0.888343   0.050307   x
            x  H                 4        -0.000000   0.611657   0.550307   x
            x  H                 5         0.500000   0.888343   0.449693   x
            x  H                 6         0.500000   0.611657   0.949693   x
            x  H                 7         0.500000   0.388343   0.050307   x
            x  H                 8         0.500000   0.111657   0.550307   x
            xxxxxxxxxxxxxxxxxxxxxxxxxxxxxxxxxxxxxxxxxxxxxxxxxxxxxxxxxxxxxxxxx


------------------------------------------------------------------------ <-- SCF
SCF loop      Energy                           Energy gain       Timer   <-- SCF
                                               per atom          (sec)   <-- SCF
------------------------------------------------------------------------ <-- SCF
Initial  -1.20212286E+002                                         45.90  <-- SCF
      1  -1.20212366E+002                    1.00525624E-005      46.23  <-- SCF
      2  -1.20212366E+002                    3.22692891E-008      46.77  <-- SCF
      3  -1.20212365E+002                   -1.93454947E-007      47.31  <-- SCF
      4  -1.20212365E+002                   -3.79631675E-009      47.86  <-- SCF
      5  -1.20212365E+002                    1.18141992E-010      48.28  <-- SCF
      6  -1.20212365E+002                    1.06220847E-011      48.71  <-- SCF
      7  -1.20212365E+002                    1.23863900E-013      49.12  <-- SCF
      8  -1.20212365E+002                    6.91825197E-013      49.53  <-- SCF
------------------------------------------------------------------------ <-- SCF
 
Final energy =  -120.2123648146     eV
(energy not corrected for finite basis set)
 

 ******************************** Symmetrised Forces ********************************
 *                                                                                  *
 *                           Cartesian components (eV/A)                            *
 * -------------------------------------------------------------------------------- *
 *                         x                    y                    z              *
 *                                                                                  *
 * H               1      0.00000             -0.00261             -0.00269         *
 * H               2     -0.00000              0.00261             -0.00269         *
 * H               3     -0.00000             -0.00261              0.00269         *
 * H               4     -0.00000              0.00261              0.00269         *
 * H               5      0.00000             -0.00261             -0.00269         *
 * H               6     -0.00000              0.00261             -0.00269         *
 * H               7      0.00000             -0.00261              0.00269         *
 * H               8     -0.00000              0.00261              0.00269         *
 *                                                                                  *
 ************************************************************************************

 *********** Symmetrised Stress Tensor ***********
 *                                               *
 *          Cartesian components (GPa)           *
 * --------------------------------------------- *
 *             x             y             z     *
 *                                               *
 *  x   -110.078748      0.000000      0.000000  *
 *  y      0.000000   -109.928392      0.000000  *
 *  z      0.000000      0.000000   -109.919741  *
 *                                               *
 *  Pressure:  109.9756                          *
 *                                               *
 *************************************************
  
 +------------+-------------+-------------+-----------------+ <-- min LBFGS
 |    Step    |   lambda    |   F.delta'  |    enthalpy     | <-- min LBFGS
 +------------+-------------+-------------+-----------------+ <-- min LBFGS
 |  previous  |    0.000000 |    0.002378 |     -108.181156 | <-- min LBFGS
 | trial step |    1.000000 |    0.000885 |     -108.181184 | <-- min LBFGS
 +------------+-------------+-------------+-----------------+ <-- min LBFGS
  

--------------------------------------------------------------------------------
 LBFGS: improving iteration         4 with line minimization (lambda=  1.592375)
--------------------------------------------------------------------------------

                           -------------------------------
                                      Unit Cell
                           -------------------------------
        Real Lattice(A)              Reciprocal Lattice(1/A)
     1.9149282    -0.0000000     0.0000000        3.281159783   0.000000000   0.000000000
    -0.0000000     3.0933549     0.0000000        0.000000000   2.031187987   0.000000000
     0.0000000     0.0000000     2.9577301        0.000000000   0.000000000   2.124326799

                       Lattice parameters(A)       Cell Angles
                    a =      1.914928          alpha =   90.000000
                    b =      3.093355          beta  =   90.000000
                    c =      2.957730          gamma =   90.000000

                Current cell volume =            17.520269 A**3

                           -------------------------------
                                     Cell Contents
                           -------------------------------

            xxxxxxxxxxxxxxxxxxxxxxxxxxxxxxxxxxxxxxxxxxxxxxxxxxxxxxxxxxxxxxxxx
            x  Element         Atom        Fractional coordinates of atoms  x
            x                 Number           u          v          w      x
            x---------------------------------------------------------------x
            x  H                 1        -0.000000   0.388309   0.449627   x
            x  H                 2        -0.000000   0.111691   0.949627   x
            x  H                 3         0.000000   0.888309   0.050373   x
            x  H                 4        -0.000000   0.611691   0.550373   x
            x  H                 5         0.500000   0.888309   0.449627   x
            x  H                 6         0.500000   0.611691   0.949627   x
            x  H                 7         0.500000   0.388309   0.050373   x
            x  H                 8         0.500000   0.111691   0.550373   x
            xxxxxxxxxxxxxxxxxxxxxxxxxxxxxxxxxxxxxxxxxxxxxxxxxxxxxxxxxxxxxxxxx


------------------------------------------------------------------------ <-- SCF
SCF loop      Energy                           Energy gain       Timer   <-- SCF
                                               per atom          (sec)   <-- SCF
------------------------------------------------------------------------ <-- SCF
Initial  -1.20209978E+002                                         50.42  <-- SCF
      1  -1.20210009E+002                    3.82339113E-006      50.76  <-- SCF
      2  -1.20210009E+002                    1.13038950E-008      51.28  <-- SCF
      3  -1.20210008E+002                   -6.77550245E-008      51.82  <-- SCF
      4  -1.20210008E+002                   -1.33191456E-009      52.37  <-- SCF
      5  -1.20210008E+002                    4.13131422E-011      52.78  <-- SCF
      6  -1.20210008E+002                    4.16001439E-012      53.20  <-- SCF
      7  -1.20210008E+002                   -1.35948183E-013      53.61  <-- SCF
------------------------------------------------------------------------ <-- SCF
 
Final energy =  -120.2100083435     eV
(energy not corrected for finite basis set)
 

 ******************************** Symmetrised Forces ********************************
 *                                                                                  *
 *                           Cartesian components (eV/A)                            *
 * -------------------------------------------------------------------------------- *
 *                         x                    y                    z              *
 *                                                                                  *
 * H               1     -0.00000              0.00137             -0.00066         *
 * H               2      0.00000             -0.00137             -0.00066         *
 * H               3      0.00000              0.00137              0.00066         *
 * H               4      0.00000             -0.00137              0.00066         *
 * H               5     -0.00000              0.00137             -0.00066         *
 * H               6      0.00000             -0.00137             -0.00066         *
 * H               7      0.00000              0.00137              0.00066         *
 * H               8      0.00000             -0.00137              0.00066         *
 *                                                                                  *
 ************************************************************************************

 *********** Symmetrised Stress Tensor ***********
 *                                               *
 *          Cartesian components (GPa)           *
 * --------------------------------------------- *
 *             x             y             z     *
 *                                               *
 *  x   -110.094568     -0.000000      0.000000  *
 *  y     -0.000000   -109.996768      0.000000  *
 *  z      0.000000      0.000000   -109.884031  *
 *                                               *
 *  Pressure:  109.9918                          *
 *                                               *
 *************************************************
  
 +------------+-------------+-------------+-----------------+ <-- min LBFGS
 |    Step    |   lambda    |   F.delta'  |    enthalpy     | <-- min LBFGS
 +------------+-------------+-------------+-----------------+ <-- min LBFGS
 |  previous  |    0.000000 |    0.002378 |     -108.181156 | <-- min LBFGS
 | trial step |    1.000000 |    0.000885 |     -108.181184 | <-- min LBFGS
 |  line step |    1.592375 | -1.436E-006 |     -108.181189 | <-- min LBFGS
 +------------+-------------+-------------+-----------------+ <-- min LBFGS
  
 LBFGS: finished iteration     4 with enthalpy= -1.08181189E+002 eV
  
 +-----------+-----------------+-----------------+------------+-----+ <-- LBFGS
 | Parameter |      value      |    tolerance    |    units   | OK? | <-- LBFGS
 +-----------+-----------------+-----------------+------------+-----+ <-- LBFGS
 |  dE/ion   |   4.125568E-006 |   1.000000E-009 |         eV | No  | <-- LBFGS
 |  |F|max   |   1.520749E-003 |   1.000000E-005 |       eV/A | No  | <-- LBFGS
 |  |dR|max  |   6.023692E-004 |   1.000000E-005 |          A | No  | <-- LBFGS
[...]
            x  H                 4        -0.000000   0.611537   0.550719   x
            x  H                 5         0.500000   0.888463   0.449281   x
            x  H                 6         0.500000   0.611537   0.949281   x
            x  H                 7         0.500000   0.388463   0.050719   x
            x  H                 8         0.500000   0.111537   0.550719   x
            xxxxxxxxxxxxxxxxxxxxxxxxxxxxxxxxxxxxxxxxxxxxxxxxxxxxxxxxxxxxxxxxx


------------------------------------------------------------------------ <-- SCF
SCF loop      Energy                           Energy gain       Timer   <-- SCF
                                               per atom          (sec)   <-- SCF
------------------------------------------------------------------------ <-- SCF
Initial  -1.20210614E+002                                         83.82  <-- SCF
      1  -1.20210614E+002                    1.26884971E-013      84.03  <-- SCF
      2  -1.20210614E+002                    2.11474951E-014      84.44  <-- SCF
      3  -1.20210614E+002                    2.29601375E-013      84.85  <-- SCF
      4  -1.20210614E+002                   -3.17212427E-013      85.25  <-- SCF
------------------------------------------------------------------------ <-- SCF
 
Final energy =  -120.2106143452     eV
(energy not corrected for finite basis set)
 

 ******************************** Symmetrised Forces ********************************
 *                                                                                  *
 *                           Cartesian components (eV/A)                            *
 * -------------------------------------------------------------------------------- *
 *                         x                    y                    z              *
 *                                                                                  *
 * H               1     -0.00000             -0.00000             -0.00000         *
 * H               2      0.00000              0.00000             -0.00000         *
 * H               3      0.00000             -0.00000              0.00000         *
 * H               4      0.00000              0.00000              0.00000         *
 * H               5     -0.00000             -0.00000             -0.00000         *
 * H               6      0.00000              0.00000             -0.00000         *
 * H               7      0.00000             -0.00000              0.00000         *
 * H               8      0.00000              0.00000              0.00000         *
 *                                                                                  *
 ************************************************************************************

 *********** Symmetrised Stress Tensor ***********
 *                                               *
 *          Cartesian components (GPa)           *
 * --------------------------------------------- *
 *             x             y             z     *
 *                                               *
 *  x   -109.999989      0.000000      0.000000  *
 *  y      0.000000   -110.000013      0.000000  *
 *  z      0.000000      0.000000   -109.999999  *
 *                                               *
 *  Pressure:  110.0000                          *
 *                                               *
 *************************************************
  
 +------------+-------------+-------------+-----------------+ <-- min LBFGS
 |    Step    |   lambda    |   F.delta'  |    enthalpy     | <-- min LBFGS
 +------------+-------------+-------------+-----------------+ <-- min LBFGS
 |  previous  |    0.000000 |  7.822E-008 |     -108.181195 | <-- min LBFGS
 | trial step |    1.000000 | -4.529E-008 |     -108.181195 | <-- min LBFGS
 +------------+-------------+-------------+-----------------+ <-- min LBFGS
  
 LBFGS: finished iteration    10 with enthalpy= -1.08181195E+002 eV
  
 +-----------+-----------------+-----------------+------------+-----+ <-- LBFGS
 | Parameter |      value      |    tolerance    |    units   | OK? | <-- LBFGS
 +-----------+-----------------+-----------------+------------+-----+ <-- LBFGS
 |  dE/ion   |   6.495302E-014 |   1.000000E-009 |         eV | Yes | <-- LBFGS
 |  |F|max   |   2.532036E-007 |   1.000000E-005 |       eV/A | Yes | <-- LBFGS
 |  |dR|max  |   3.096255E-008 |   1.000000E-005 |          A | Yes | <-- LBFGS
 |   Smax    |   1.273703E-005 |   1.000000E-005 |        GPa | No  | <-- LBFGS
 +-----------+-----------------+-----------------+------------+-----+ <-- LBFGS
  

================================================================================
 Starting LBFGS iteration         11 ...
================================================================================
  
 +------------+-------------+-------------+-----------------+ <-- min LBFGS
 |    Step    |   lambda    |   F.delta'  |    enthalpy     | <-- min LBFGS
 +------------+-------------+-------------+-----------------+ <-- min LBFGS
 |  previous  |    0.000000 |  5.681E-008 |     -108.181195 | <-- min LBFGS
 +------------+-------------+-------------+-----------------+ <-- min LBFGS
  

--------------------------------------------------------------------------------
 LBFGS: starting iteration        11 with trial guess (lambda=  1.000000)
--------------------------------------------------------------------------------

                           -------------------------------
                                      Unit Cell
                           -------------------------------
        Real Lattice(A)              Reciprocal Lattice(1/A)
     1.9156949    -0.0000000     0.0000000        3.279846466   0.000000000   0.000000000
    -0.0000000     3.0931946     0.0000000        0.000000000   2.031293250   0.000000000
     0.0000000     0.0000000     2.9568467        0.000000000   0.000000000   2.124961452

                       Lattice parameters(A)       Cell Angles
                    a =      1.915695          alpha =   90.000000
                    b =      3.093195          beta  =   90.000000
                    c =      2.956847          gamma =   90.000000

                Current cell volume =            17.521142 A**3

                           -------------------------------
                                     Cell Contents
                           -------------------------------

            xxxxxxxxxxxxxxxxxxxxxxxxxxxxxxxxxxxxxxxxxxxxxxxxxxxxxxxxxxxxxxxxx
            x  Element         Atom        Fractional coordinates of atoms  x
            x                 Number           u          v          w      x
            x---------------------------------------------------------------x
            x  H                 1        -0.000000   0.388463   0.449281   x
            x  H                 2        -0.000000   0.111537   0.949281   x
            x  H                 3        -0.000000   0.888463   0.050719   x
            x  H                 4        -0.000000   0.611537   0.550719   x
            x  H                 5         0.500000   0.888463   0.449281   x
            x  H                 6         0.500000   0.611537   0.949281   x
            x  H                 7         0.500000   0.388463   0.050719   x
            x  H                 8         0.500000   0.111537   0.550719   x
            xxxxxxxxxxxxxxxxxxxxxxxxxxxxxxxxxxxxxxxxxxxxxxxxxxxxxxxxxxxxxxxxx


------------------------------------------------------------------------ <-- SCF
SCF loop      Energy                           Energy gain       Timer   <-- SCF
                                               per atom          (sec)   <-- SCF
------------------------------------------------------------------------ <-- SCF
Initial  -1.20210614E+002                                         86.15  <-- SCF
      1  -1.20210614E+002                    2.83980649E-013      86.36  <-- SCF
      2  -1.20210614E+002                    2.41685658E-014      86.77  <-- SCF
      3  -1.20210614E+002                   -2.77938507E-013      87.19  <-- SCF
      4  -1.20210614E+002                    4.16907761E-013      87.61  <-- SCF
------------------------------------------------------------------------ <-- SCF
 
Final energy =  -120.2106140302     eV
(energy not corrected for finite basis set)
 

 ******************************** Symmetrised Forces ********************************
 *                                                                                  *
 *                           Cartesian components (eV/A)                            *
 * -------------------------------------------------------------------------------- *
 *                         x                    y                    z              *
 *                                                                                  *
 * H               1     -0.00000              0.00000              0.00000         *
 * H               2      0.00000             -0.00000              0.00000         *
 * H               3     -0.00000              0.00000             -0.00000         *
 * H               4      0.00000             -0.00000             -0.00000         *
 * H               5     -0.00000              0.00000              0.00000         *
 * H               6      0.00000             -0.00000              0.00000         *
 * H               7     -0.00000              0.00000             -0.00000         *
 * H               8      0.00000             -0.00000             -0.00000         *
 *                                                                                  *
 ************************************************************************************

 *********** Symmetrised Stress Tensor ***********
 *                                               *
 *          Cartesian components (GPa)           *
 * --------------------------------------------- *
 *             x             y             z     *
 *                                               *
 *  x   -109.999994      0.000000      0.000000  *
 *  y      0.000000   -110.000008      0.000000  *
 *  z      0.000000      0.000000   -110.000009  *
 *                                               *
 *  Pressure:  110.0000                          *
 *                                               *
 *************************************************
  
 +------------+-------------+-------------+-----------------+ <-- min LBFGS
 |    Step    |   lambda    |   F.delta'  |    enthalpy     | <-- min LBFGS
 +------------+-------------+-------------+-----------------+ <-- min LBFGS
 |  previous  |    0.000000 |  5.681E-008 |     -108.181195 | <-- min LBFGS
 | trial step |    1.000000 |  4.031E-009 |     -108.181195 | <-- min LBFGS
 +------------+-------------+-------------+-----------------+ <-- min LBFGS
  
 LBFGS: finished iteration    11 with enthalpy= -1.08181195E+002 eV
  
 +-----------+-----------------+-----------------+------------+-----+ <-- LBFGS
 | Parameter |      value      |    tolerance    |    units   | OK? | <-- LBFGS
 +-----------+-----------------+-----------------+------------+-----+ <-- LBFGS
 |  dE/ion   |   4.184183E-013 |   1.000000E-009 |         eV | Yes | <-- LBFGS
 |  |F|max   |   2.134067E-007 |   1.000000E-005 |       eV/A | Yes | <-- LBFGS
 |  |dR|max  |   7.773468E-008 |   1.000000E-005 |          A | Yes | <-- LBFGS
 |   Smax    |   8.880985E-006 |   1.000000E-005 |        GPa | Yes | <-- LBFGS
 +-----------+-----------------+-----------------+------------+-----+ <-- LBFGS
  
 LBFGS: Geometry optimization completed successfully.

================================================================================
 LBFGS: Final Configuration:
================================================================================

                           -------------------------------
                                      Unit Cell
                           -------------------------------
        Real Lattice(A)              Reciprocal Lattice(1/A)
     1.9156949    -0.0000000     0.0000000        3.279846466   0.000000000   0.000000000
    -0.0000000     3.0931946     0.0000000        0.000000000   2.031293250   0.000000000
     0.0000000     0.0000000     2.9568467        0.000000000   0.000000000   2.124961452

                       Lattice parameters(A)       Cell Angles
                    a =      1.915695          alpha =   90.000000
                    b =      3.093195          beta  =   90.000000
                    c =      2.956847          gamma =   90.000000

                Current cell volume =            17.521142 A**3

                           -------------------------------
                                     Cell Contents
                           -------------------------------

            xxxxxxxxxxxxxxxxxxxxxxxxxxxxxxxxxxxxxxxxxxxxxxxxxxxxxxxxxxxxxxxxx
            x  Element         Atom        Fractional coordinates of atoms  x
            x                 Number           u          v          w      x
            x---------------------------------------------------------------x
            x  H                 1        -0.000000   0.388463   0.449281   x
            x  H                 2        -0.000000   0.111537   0.949281   x
            x  H                 3        -0.000000   0.888463   0.050719   x
            x  H                 4        -0.000000   0.611537   0.550719   x
            x  H                 5         0.500000   0.888463   0.449281   x
            x  H                 6         0.500000   0.611537   0.949281   x
            x  H                 7         0.500000   0.388463   0.050719   x
            x  H                 8         0.500000   0.111537   0.550719   x
            xxxxxxxxxxxxxxxxxxxxxxxxxxxxxxxxxxxxxxxxxxxxxxxxxxxxxxxxxxxxxxxxx


 LBFGS: Final Enthalpy     = -1.08181195E+002 eV
 LBFGS: Final <frequency>  =     828.88359 cm-1
 LBFGS: Final bulk modulus =     211.17368 GPa

 ******************************** Symmetrised Forces ********************************
 *                                                                                  *
 *                           Cartesian components (eV/A)                            *
 * -------------------------------------------------------------------------------- *
 *                         x                    y                    z              *
 *                                                                                  *
 * H               1     -0.00000              0.00000              0.00000         *
 * H               2      0.00000             -0.00000              0.00000         *
 * H               3     -0.00000              0.00000             -0.00000         *
 * H               4      0.00000             -0.00000             -0.00000         *
 * H               5     -0.00000              0.00000              0.00000         *
 * H               6      0.00000             -0.00000              0.00000         *
 * H               7     -0.00000              0.00000             -0.00000         *
 * H               8      0.00000             -0.00000             -0.00000         *
 *                                                                                  *
 ************************************************************************************

 *********** Symmetrised Stress Tensor ***********
 *                                               *
 *          Cartesian components (GPa)           *
 * --------------------------------------------- *
 *             x             y             z     *
 *                                               *
 *  x   -109.999994      0.000000      0.000000  *
 *  y      0.000000   -110.000008      0.000000  *
 *  z      0.000000      0.000000   -110.000009  *
 *                                               *
 *  Pressure:  110.0000                          *
 *                                               *
 *************************************************

 Pseudo atomic calculation performed for H 1s1

 Converged in 24 iterations to a total energy of -12.4843 eV

Charge spilling parameter for spin component 1 = 0.54%

            Orbital Populations       
     Ion    Atom   Orbital             Charge
  -------------------------------------------
      H     1      S                    0.997
      H     2      S                    1.003
      H     3      S                    1.003
      H     4      S                    0.997
      H     5      S                    0.997
      H     6      S                    1.003
      H     7      S                    1.003
      H     8      S                    0.997
  -------------------------------------------
                           Total:       8.000
  -------------------------------------------

     Atomic Populations (Mulliken)
     -----------------------------
Species          Ion     s      p      d      f     Total  Charge (e)
=====================================================================
  H               1     1.00   0.00   0.00   0.00   1.00     0.00
  H               2     1.00   0.00   0.00   0.00   1.00     0.00
  H               3     1.00   0.00   0.00   0.00   1.00     0.00
  H               4     1.00   0.00   0.00   0.00   1.00     0.00
  H               5     1.00   0.00   0.00   0.00   1.00     0.00
  H               6     1.00   0.00   0.00   0.00   1.00     0.00
  H               7     1.00   0.00   0.00   0.00   1.00     0.00
  H               8     1.00   0.00   0.00   0.00   1.00     0.00
=====================================================================

                 Bond                   Population      Length (A)
======================================================================
               H 6 -- H 7                    1.20        0.75238
               H 1 -- H 4                    1.20        0.75238
               H 5 -- H 8                    1.20        0.75238
               H 2 -- H 3                    1.20        0.75238
               H 4 -- H 5                    0.02        1.31953
               H 3 -- H 6                    0.02        1.31953
               H 1 -- H 8                    0.02        1.31953
               H 2 -- H 7                    0.02        1.31953
               H 3 -- H 5                   -0.21        1.51865
               H 1 -- H 7                   -0.21        1.51865
               H 4 -- H 6                   -0.21        1.51865
               H 2 -- H 8                   -0.21        1.51865
               H 5 -- H 6                   -0.07        1.70865
               H 3 -- H 4                   -0.07        1.70865
               H 7 -- H 8                   -0.07        1.70865
               H 1 -- H 2                   -0.07        1.70865
               H 3 -- H 7                   -0.54        1.81919
               H 1 -- H 5                   -0.54        1.81919
               H 4 -- H 8                   -0.54        1.81919
               H 2 -- H 6                   -0.54        1.81919
               H 1 -- H 6                   -0.42        1.89191
               H 4 -- H 7                   -0.42        1.89191
               H 3 -- H 8                   -0.42        1.89191
               H 2 -- H 5                   -0.42        1.89191
======================================================================


Writing analysis data to Cmca4.castep_bin

Writing model to Cmca4.check
 
 A BibTeX formatted list of references used in this run has been written to 
 Cmca4.bib
 
Initialisation time =      2.63 s
Calculation time    =     86.73 s
Finalisation time   =      1.80 s
Total time          =     91.16 s
Peak Memory Use     = 518736 kB
  
Overall parallel efficiency rating: Very good (82%)                             
  
Data was distributed by:-
k-point (32-way); efficiency rating: Very good (83%)                            
  
Parallel notes:
1) Calculation only took 89.4 s, so efficiency estimates may be inaccurate.     
