 +-------------------------------------------------+
 |                                                 |
 |      CCC   AA    SSS  TTTTT  EEEEE  PPPP        |
 |     C     A  A  S       T    E      P   P       |
 |     C     AAAA   SS     T    EEE    PPPP        |
 |     C     A  A     S    T    E      P           |
 |      CCC  A  A  SSS     T    EEEEE  P           |
 |                                                 |
 +-------------------------------------------------+
 |                                                 |
 | Welcome to Academic Release CASTEP version 18.1 |          
 | Ab Initio Total Energy Program                  |
 |                                                 |
 | Authors:                                        |
 | M. Segall, M. Probert, C. Pickard, P. Hasnip,   |
 | S. Clark, K. Refson, J. R. Yates, M. Payne      |
 |                                                 |
 | Contributors:                                   |
 | P. Lindan, P. Haynes, J. White, V. Milman,      |
 | N. Govind, M. Gibson, P. Tulip, V. Cocula,      |
 | B. Montanari, D. Quigley, M. Glover,            |
 | L. Bernasconi, A. Perlov, M. Plummer,           |
 | E. McNellis, J. Meyer, J. Gale, D. Jochym       |
 | J. Aarons, B. Walker, R. Gillen, D. Jones       |
 | T. Green, I. J. Bush, C. J. Armstrong,          |
 | E. J. Higgins, E. L. Brown, M. S. McFly,        |
 | J. Wilkins, B-C. Shih, P. J. P. Byrne           |
 |                                                 |
 | Copyright (c) 2000 - 2017                       |
 |                                                 |
 |     Distributed under the terms of an           |
 |     Agreement between the United Kingdom        |
 |     Car-Parrinello (UKCP) Consortium,           |
 |     Daresbury Laboratory and Accelrys, Inc.     |
 |                                                 |
 | Please cite                                     |
 |                                                 |
 |     "First principles methods using CASTEP"     |
 |                                                 |
 |         Zeitschrift fuer Kristallographie       |
 |           220(5-6) pp. 567-570 (2005)           |
 |                                                 |
 | S. J. Clark, M. D. Segall, C. J. Pickard,       |
 | P. J. Hasnip, M. J. Probert, K. Refson,         |
 | M. C. Payne                                     |
 |                                                 |
 |       in all publications arising from          |
 |              your use of CASTEP                 |
 |                                                 |
 +-------------------------------------------------+


 Compiled for linux_x86_64_gfortran4.8 on Thu, 19 Jul 2018 15:42:32 +0100
 from code version 70483bd0ad64+  Sun, 10 Dec 2017 12:18:29 +0000
 Compiler: GNU Fortran 4.8.5; Optimisation: fast
 MATHLIBS: Intel MKL(2018.0.0) (LAPACK version 3.7.0)
 FFT Lib : mkl
 Fundamental constants values: CODATA 2014

 Run started: Wed, 26 Aug 2020 15:11:57 +0100

 Atomic calculation performed for H: 1s1

 Converged in 41 iterations to an ae energy of -12.488 eV

   ============================================================                
   | Pseudopotential Report - Date of generation 26-08-2020   |                
   ------------------------------------------------------------                
   | Element: H Ionic charge:  1.00 Level of theory: PBE      |                
   | Atomic Solver: Koelling-Harmon                           |                
   |                                                          |                
   |               Reference Electronic Structure             |                
   |         Orbital         Occupation         Energy        |                
   |            1s              1.000           -0.239        |                
   |                                                          |                
   |                 Pseudopotential Definition               |                
   |        Beta     l      e      Rc     scheme   norm       |                
   |         loc     0   -0.239   0.702     qc      1         |                
   |                                                          |                
   | No charge augmentation                                   |                
   | No partial core correction                               |                
   ------------------------------------------------------------                
   | "0|0.7|2|6|8|10L(qc=10)"                                 |                
   ------------------------------------------------------------                
   |      Author: Chris J. Pickard, Cambridge University      |                
   ============================================================                

 Pseudo atomic calculation performed for H 1s1

 Converged in 24 iterations to a total energy of -12.4843 eV

 Calculation parallelised over 32 processes.
 Data is distributed by k-point(32-way)

 ************************************ Title ************************************
 

 ***************************** General Parameters ******************************
  
 output verbosity                               : normal  (1)
 write checkpoint data to                       : Cmca4.check
 type of calculation                            : geometry optimization
 stress calculation                             : on
 density difference calculation                 : off
 electron localisation func (ELF) calculation   : off
 Hirshfeld analysis                             : off
 unlimited duration calculation
 timing information                             : on
 memory usage estimate                          : on
 write extra output files                       : on
 write final potential to formatted file        : off
 write final density to formatted file          : off
 write structure in CELL formatted file         : on
 write BibTeX reference list                    : on
 write OTFG pseudopotential files               : on
 write electrostatic potential file             : on
 write bands file                               : on
 checkpoint writing                             : both castep_bin and check files
  
 output         length unit                     : A
 output           mass unit                     : amu
 output           time unit                     : ps
 output         charge unit                     : e
 output           spin unit                     : hbar/2
 output         energy unit                     : eV
 output          force unit                     : eV/A
 output       velocity unit                     : A/ps
 output       pressure unit                     : GPa
 output     inv_length unit                     : 1/A
 output      frequency unit                     : cm-1
 output force constant unit                     : eV/A**2
 output         volume unit                     : A**3
 output   IR intensity unit                     : (D/A)**2/amu
 output         dipole unit                     : D
 output         efield unit                     : eV/A/e
 output        entropy unit                     : J/mol/K
  
 wavefunctions paging                           : none
 random number generator seed                   : randomised (151157974)
 data distribution                              : optimal for this architecture
 optimization strategy                          : maximize speed(+++)

 *********************** Exchange-Correlation Parameters ***********************
  
 using functional                               : Perdew Burke Ernzerhof
 relativistic treatment                         : Koelling-Harmon
 DFT+D: Semi-empirical dispersion correction    : off

 ************************* Pseudopotential Parameters **************************
  
 pseudopotential representation                 : reciprocal space
 <beta|phi> representation                      : reciprocal space
 spin-orbit coupling                            : off

 **************************** Basis Set Parameters *****************************
  
 plane wave basis set cut-off                   :  1200.0000   eV
 size of standard grid                          :     2.0000
 size of   fine   gmax                          :    35.4943   1/A
 finite basis set correction                    : automatic
 number of sample energies                      :          3
           sample  spacing                      :     5.0000   eV

 **************************** Electronic Parameters ****************************
  
 number of  electrons                           :  8.000    
 net charge of system                           :  0.000    
 treating system as non-spin-polarized
 number of bands                                :          4

 ********************* Electronic Minimization Parameters **********************
  
 Method: Treating system as non-metallic,
         and number of  SD  steps               :          1
         and number of  CG  steps               :          4
  
 total energy / atom convergence tol.           : 0.1000E-10   eV
 eigen-energy convergence tolerance             : 0.2000E-10   eV
 max force / atom convergence tol.              : ignored
 convergence tolerance window                   :          3   cycles
 max. number of SCF cycles                      :        100
 periodic dipole correction                     : NONE

 ************************** Density Mixing Parameters **************************
  
 density-mixing scheme                          : Broyden
 max. length of mixing history                  :         20
 charge density mixing amplitude                : 0.8000    
 cut-off energy for mixing                      :  1200.       eV

 *********************** Population Analysis Parameters ************************
  
 Population analysis with cutoff                :  3.000       A
 Population analysis output                     : summary and pdos components

 ********************** Geometry Optimization Parameters ***********************
  
 optimization method                            : LBFGS
 max. no. of LBFGS updates                      : unbounded
 variable cell method                           : fixed basis quality
 max. number of steps                           :         60
 estimated bulk modulus                         :  500.0       GPa
 estimated <frequency>                          :  1668.       cm-1
 geom line minimiser                            : on
 with line minimiser tolerance                  :     0.4000
 total energy convergence tolerance             : 0.1000E-08   eV/atom
        max ionic |force| tolerance             : 0.1000E-04   eV/A
 max ionic |displacement| tolerance             : 0.1000E-04   A
   max |stress component| tolerance             : 0.1000E-04   GPa
 convergence tolerance window                   :          2   steps
 backup results every                           :      14400   seconds
 write geom trajectory file                     : on

 *******************************************************************************
  

                           -------------------------------
                                      Unit Cell
                           -------------------------------
        Real Lattice(A)                      Reciprocal Lattice(1/A)
     2.0503520    -0.0000000     0.0000000        3.064442255   0.000000000   0.000000000
    -0.0000000     3.1717519     0.0000000        0.000000000   1.980982617   0.000000000
     0.0000000     0.0000000     3.0956145        0.000000000   0.000000000   2.029705335

                       Lattice parameters(A)       Cell Angles
                    a =      2.050352          alpha =   90.000000
                    b =      3.171752          beta  =   90.000000
                    c =      3.095615          gamma =   90.000000

                       Current cell volume =            20.131424       A**3
                                   density =             0.400544   AMU/A**3
                                           =             0.665119     g/cm^3

                           -------------------------------
                                     Cell Contents
                           -------------------------------
                         Total number of ions in cell =    8
                      Total number of species in cell =    1
                        Max number of any one species =    8

            xxxxxxxxxxxxxxxxxxxxxxxxxxxxxxxxxxxxxxxxxxxxxxxxxxxxxxxxxxxx
            x  Element    Atom        Fractional coordinates of atoms  x
            x            Number           u          v          w      x
            x----------------------------------------------------------x
            x  H            1         0.000000   0.398891   0.440282   x 
            x  H            2         0.000000   0.101109   0.940282   x 
            x  H            3         0.000000   0.898891   0.059718   x 
            x  H            4        -0.000000   0.601109   0.559718   x 
            x  H            5         0.500000   0.898891   0.440282   x 
            x  H            6         0.500000   0.601109   0.940282   x 
            x  H            7         0.500000   0.398891   0.059718   x 
            x  H            8         0.500000   0.101109   0.559718   x 
            xxxxxxxxxxxxxxxxxxxxxxxxxxxxxxxxxxxxxxxxxxxxxxxxxxxxxxxxxxxx


                         No user defined ionic velocities

                           -------------------------------
                                   Details of Species
                           -------------------------------

                               Mass of species in AMU
                                    H    1.0079400

                          Electric Quadrupole Moment (Barn)
                                    H    0.0028600 Isotope  2

                          Files used for pseudopotentials:
                                    H 0|0.7|2|6|8|10L(qc=10)

                           -------------------------------
                              k-Points For BZ Sampling
                           -------------------------------
                       MP grid size for SCF calculation is 11 11 11
                            with an offset of   0.000  0.000  0.000
                       Number of kpoints used =           216

                           -------------------------------
                               Symmetry and Constraints
                           -------------------------------

                      Cell is a supercell containing 2 primitive cells
                      Maximum deviation from symmetry = 0.950765E-14     ANG

                      Number of symmetry operations   =          16
                      Number of ionic constraints     =           3
                      Point group of crystal =     8: D2h, mmm, 2/m 2/m 2/m
                      Space group of crystal =    64: Cmce, -C 2bc 2

             Set iprint > 1 for details on symmetry rotations/translations

                         Centre of mass is constrained
             Set iprint > 1 for details of linear ionic constraints

                         Number of cell constraints= 3
                         Cell constraints are:  1 2 3 0 0 0

                         External pressure/stress (GPa)
                         70.00000   0.00000   0.00000
                                   70.00000   0.00000
                                             70.00000
  
+---------------- MEMORY AND SCRATCH DISK ESTIMATES PER PROCESS --------------+
|                                                     Memory          Disk    |
| Baseline code, static data and system overhead      478.0 MB         0.0 MB |
| BLAS internal memory storage                          0.0 MB         0.0 MB |
| Model and support data                               14.1 MB         0.0 MB |
| Electronic energy minimisation requirements           8.6 MB         0.0 MB |
| Force calculation requirements                        3.6 MB         0.0 MB |
| Stress calculation requirements                       4.5 MB         0.0 MB |
|                                               ----------------------------- |
| Approx. total storage required per process          500.7 MB         0.0 MB |
|                                                                             |
| Requirements will fluctuate during execution and may exceed these estimates |
+-----------------------------------------------------------------------------+
Calculating finite basis set correction with  3 cut-off energies.
Calculating total energy with cut-off of 1190.000 eV.
------------------------------------------------------------------------ <-- SCF
SCF loop      Energy                           Energy gain       Timer   <-- SCF
                                               per atom          (sec)   <-- SCF
------------------------------------------------------------------------ <-- SCF
Initial   2.01091379E+002                                          2.94  <-- SCF
      1  -9.95051855E+001                    3.75745705E+001       3.39  <-- SCF
      2  -1.22268134E+002                    2.84536852E+000       3.71  <-- SCF
      3  -1.22363802E+002                    1.19585524E-002       3.97  <-- SCF
      4  -1.21756376E+002                   -7.59282044E-002       4.53  <-- SCF
      5  -1.21736517E+002                   -2.48247172E-003       5.08  <-- SCF
      6  -1.21737189E+002                    8.40411521E-005       5.62  <-- SCF
      7  -1.21737256E+002                    8.40503596E-006       6.16  <-- SCF
      8  -1.21737256E+002                    1.09867279E-008       6.71  <-- SCF
      9  -1.21737256E+002                    5.63323954E-010       7.26  <-- SCF
     10  -1.21737256E+002                    2.69781616E-012       7.68  <-- SCF
     11  -1.21737256E+002                    7.49225541E-013       8.10  <-- SCF
------------------------------------------------------------------------ <-- SCF
 
Final energy =  -121.7372563524     eV
(energy not corrected for finite basis set)
 
Calculating total energy with cut-off of 1195.000 eV.
------------------------------------------------------------------------ <-- SCF
SCF loop      Energy                           Energy gain       Timer   <-- SCF
                                               per atom          (sec)   <-- SCF
------------------------------------------------------------------------ <-- SCF
Initial  -1.21737256E+002                                          8.49  <-- SCF
      1  -1.21737840E+002                    7.30045854E-005       8.85  <-- SCF
      2  -1.21737840E+002                    7.56476111E-011       9.36  <-- SCF
      3  -1.21737841E+002                    3.19341738E-008       9.90  <-- SCF
      4  -1.21737841E+002                    1.80880870E-009      10.45  <-- SCF
      5  -1.21737841E+002                    2.51292663E-011      10.90  <-- SCF
      6  -1.21737841E+002                    1.04831154E-012      11.35  <-- SCF
      7  -1.21737841E+002                    7.40162329E-013      11.77  <-- SCF
------------------------------------------------------------------------ <-- SCF
 
Final energy =  -121.7378406598     eV
(energy not corrected for finite basis set)
 
Calculating total energy with cut-off of 1200.000 eV.
------------------------------------------------------------------------ <-- SCF
SCF loop      Energy                           Energy gain       Timer   <-- SCF
                                               per atom          (sec)   <-- SCF
------------------------------------------------------------------------ <-- SCF
Initial  -1.21737841E+002                                         12.17  <-- SCF
      1  -1.21738428E+002                    7.33672848E-005      12.51  <-- SCF
      2  -1.21738428E+002                    6.93214890E-011      13.03  <-- SCF
      3  -1.21738428E+002                    3.28833761E-008      13.58  <-- SCF
      4  -1.21738428E+002                    1.82881423E-009      14.10  <-- SCF
      5  -1.21738428E+002                    2.51745824E-011      14.55  <-- SCF
      6  -1.21738428E+002                    1.19332294E-012      15.01  <-- SCF
      7  -1.21738428E+002                    6.22340570E-013      15.44  <-- SCF
------------------------------------------------------------------------ <-- SCF
 
Final energy =  -121.7384278766     eV
(energy not corrected for finite basis set)
 
 For future reference: finite basis dEtot/dlog(Ecut) =      -0.140694eV
 Total energy corrected for finite basis set =    -121.738427 eV
 
+---------------- MEMORY AND SCRATCH DISK ESTIMATES PER PROCESS --------------+
|                                                     Memory          Disk    |
| Model and support data                               23.7 MB         0.0 MB |
| Electronic energy minimisation requirements           8.6 MB         0.0 MB |
| Geometry minimisation requirements                   10.3 MB         0.0 MB |
|                                               ----------------------------- |
| Approx. total storage required per process           42.6 MB         0.0 MB |
|                                                                             |
| Requirements will fluctuate during execution and may exceed these estimates |
+-----------------------------------------------------------------------------+
 

 ******************************** Symmetrised Forces ********************************
 *                                                                                  *
 *                           Cartesian components (eV/A)                            *
 * -------------------------------------------------------------------------------- *
 *                         x                    y                    z              *
 *                                                                                  *
 * H               1      0.00000              0.01769              0.00627         *
 * H               2     -0.00000             -0.01769              0.00627         *
 * H               3      0.00000              0.01769             -0.00627         *
 * H               4     -0.00000             -0.01769             -0.00627         *
 * H               5      0.00000              0.01769              0.00627         *
 * H               6      0.00000             -0.01769              0.00627         *
 * H               7      0.00000              0.01769             -0.00627         *
 * H               8     -0.00000             -0.01769             -0.00627         *
 *                                                                                  *
 ************************************************************************************

 *********** Symmetrised Stress Tensor ***********
 *                                               *
 *          Cartesian components (GPa)           *
 * --------------------------------------------- *
 *             x             y             z     *
 *                                               *
 *  x    -80.589142      0.000000      0.000000  *
 *  y      0.000000    -79.478191      0.000000  *
 *  z      0.000000      0.000000    -80.242366  *
 *                                               *
 *  Pressure:   80.1032                          *
 *                                               *
 *************************************************
 LBFGS: finished iteration     0 with enthalpy= -1.12942894E+002 eV
  
 +-----------+-----------------+-----------------+------------+-----+ <-- LBFGS
 | Parameter |      value      |    tolerance    |    units   | OK? | <-- LBFGS
 +-----------+-----------------+-----------------+------------+-----+ <-- LBFGS
 |  dE/ion   |   0.000000E+000 |   1.000000E-009 |         eV | No  | <-- LBFGS
 |  |F|max   |   1.876512E-002 |   1.000000E-005 |       eV/A | No  | <-- LBFGS
 |  |dR|max  |   0.000000E+000 |   1.000000E-005 |          A | No  | <-- LBFGS
 |   Smax    |   1.058914E+001 |   1.000000E-005 |        GPa | No  | <-- LBFGS
 +-----------+-----------------+-----------------+------------+-----+ <-- LBFGS
  

================================================================================
 Starting LBFGS iteration          1 ...
================================================================================
  
 +------------+-------------+-------------+-----------------+ <-- min LBFGS
 |    Step    |   lambda    |   F.delta'  |    enthalpy     | <-- min LBFGS
 +------------+-------------+-------------+-----------------+ <-- min LBFGS
 |  previous  |    0.000000 |    0.080967 |     -112.942894 | <-- min LBFGS
 +------------+-------------+-------------+-----------------+ <-- min LBFGS
  

--------------------------------------------------------------------------------
 LBFGS: starting iteration         1 with trial guess (lambda=  1.000000)
--------------------------------------------------------------------------------
 
+---------------- MEMORY AND SCRATCH DISK ESTIMATES PER PROCESS --------------+
|                                                     Memory          Disk    |
| Model and support data                               24.3 MB         0.0 MB |
| Electronic energy minimisation requirements           9.1 MB         0.0 MB |
| Geometry minimisation requirements                   10.8 MB         0.0 MB |
|                                               ----------------------------- |
| Approx. total storage required per process           44.1 MB         0.0 MB |
|                                                                             |
| Requirements will fluctuate during execution and may exceed these estimates |
+-----------------------------------------------------------------------------+
 

                           -------------------------------
                                      Unit Cell
                           -------------------------------
        Real Lattice(A)              Reciprocal Lattice(1/A)
     2.0648263    -0.0000000     0.0000000        3.042960692   0.000000000   0.000000000
    -0.0000000     3.1917935     0.0000000        0.000000000   1.968543795   0.000000000
     0.0000000     0.0000000     3.1167521        0.000000000   0.000000000   2.015940004

                       Lattice parameters(A)       Cell Angles
                    a =      2.064826          alpha =   90.000000
                    b =      3.191794          beta  =   90.000000
                    c =      3.116752          gamma =   90.000000

                Current cell volume =            20.540953 A**3

                           -------------------------------
                                     Cell Contents
                           -------------------------------

            xxxxxxxxxxxxxxxxxxxxxxxxxxxxxxxxxxxxxxxxxxxxxxxxxxxxxxxxxxxxxxxxx
            x  Element         Atom        Fractional coordinates of atoms  x
            x                 Number           u          v          w      x
            x---------------------------------------------------------------x
            x  H                 1        -0.000000   0.399431   0.440479   x
            x  H                 2        -0.000000   0.100569   0.940479   x
            x  H                 3         0.000000   0.899431   0.059521   x
            x  H                 4         0.000000   0.600569   0.559521   x
            x  H                 5         0.500000   0.899431   0.440479   x
            x  H                 6         0.500000   0.600569   0.940479   x
            x  H                 7         0.500000   0.399431   0.059521   x
            x  H                 8         0.500000   0.100569   0.559521   x
            xxxxxxxxxxxxxxxxxxxxxxxxxxxxxxxxxxxxxxxxxxxxxxxxxxxxxxxxxxxxxxxxx


------------------------------------------------------------------------ <-- SCF
SCF loop      Energy                           Energy gain       Timer   <-- SCF
                                               per atom          (sec)   <-- SCF
------------------------------------------------------------------------ <-- SCF
Initial  -1.21928738E+002                                         16.39  <-- SCF
      1  -1.21939077E+002                    1.29233728E-003      16.78  <-- SCF
      2  -1.21939111E+002                    4.30410713E-006      17.38  <-- SCF
      3  -1.21938390E+002                   -9.01605032E-005      17.97  <-- SCF
      4  -1.21938362E+002                   -3.43791607E-006      18.55  <-- SCF
      5  -1.21938363E+002                    4.24569287E-008      19.15  <-- SCF
      6  -1.21938363E+002                    3.92799918E-009      19.76  <-- SCF
      7  -1.21938363E+002                    5.45303267E-012      20.22  <-- SCF
      8  -1.21938363E+002                    5.95150934E-013      20.69  <-- SCF
------------------------------------------------------------------------ <-- SCF
 
Final energy =  -121.9383625821     eV
(energy not corrected for finite basis set)
 

 ******************************** Symmetrised Forces ********************************
 *                                                                                  *
 *                           Cartesian components (eV/A)                            *
 * -------------------------------------------------------------------------------- *
 *                         x                    y                    z              *
 *                                                                                  *
 * H               1     -0.00000              0.06326              0.02971         *
 * H               2      0.00000             -0.06326              0.02971         *
 * H               3      0.00000              0.06326             -0.02971         *
 * H               4     -0.00000             -0.06326             -0.02971         *
 * H               5      0.00000              0.06326              0.02971         *
 * H               6     -0.00000             -0.06326              0.02971         *
 * H               7      0.00000              0.06326             -0.02971         *
 * H               8     -0.00000             -0.06326             -0.02971         *
 *                                                                                  *
 ************************************************************************************

 *********** Symmetrised Stress Tensor ***********
 *                                               *
 *          Cartesian components (GPa)           *
 * --------------------------------------------- *
 *             x             y             z     *
 *                                               *
 *  x    -76.881257     -0.000000      0.000000  *
 *  y     -0.000000    -74.370600      0.000000  *
 *  z      0.000000      0.000000    -76.254374  *
 *                                               *
 *  Pressure:   75.8354                          *
 *                                               *
 *************************************************
  
 +------------+-------------+-------------+-----------------+ <-- min LBFGS
 |    Step    |   lambda    |   F.delta'  |    enthalpy     | <-- min LBFGS
 +------------+-------------+-------------+-----------------+ <-- min LBFGS
 |  previous  |    0.000000 |    0.080967 |     -112.942894 | <-- min LBFGS
 | trial step |    1.000000 |    0.050365 |     -112.963909 | <-- min LBFGS
 +------------+-------------+-------------+-----------------+ <-- min LBFGS
  

--------------------------------------------------------------------------------
 LBFGS: improving iteration         1 with line minimization (lambda=  2.645809)
--------------------------------------------------------------------------------
 
+---------------- MEMORY AND SCRATCH DISK ESTIMATES PER PROCESS --------------+
|                                                     Memory          Disk    |
| Model and support data                               24.4 MB         0.0 MB |
| Electronic energy minimisation requirements           9.2 MB         0.0 MB |
| Geometry minimisation requirements                   10.9 MB         0.0 MB |
|                                               ----------------------------- |
| Approx. total storage required per process           44.5 MB         0.0 MB |
|                                                                             |
| Requirements will fluctuate during execution and may exceed these estimates |
+-----------------------------------------------------------------------------+
 

                           -------------------------------
                                      Unit Cell
                           -------------------------------
        Real Lattice(A)              Reciprocal Lattice(1/A)
     2.0886483    -0.0000000     0.0000000        3.008254394   0.000000000   0.000000000
    -0.0000000     3.2247782     0.0000000        0.000000000   1.948408503   0.000000000
     0.0000000     0.0000000     3.1515406        0.000000000   0.000000000   1.993686934

                       Lattice parameters(A)       Cell Angles
                    a =      2.088648          alpha =   90.000000
                    b =      3.224778          beta  =   90.000000
                    c =      3.151541          gamma =   90.000000

                Current cell volume =            21.226973 A**3

                           -------------------------------
                                     Cell Contents
                           -------------------------------

            xxxxxxxxxxxxxxxxxxxxxxxxxxxxxxxxxxxxxxxxxxxxxxxxxxxxxxxxxxxxxxxxx
            x  Element         Atom        Fractional coordinates of atoms  x
            x                 Number           u          v          w      x
            x---------------------------------------------------------------x
            x  H                 1        -0.000000   0.400321   0.440802   x
            x  H                 2        -0.000000   0.099679   0.940802   x
            x  H                 3         0.000000   0.900321   0.059198   x
            x  H                 4         0.000000   0.599679   0.559198   x
            x  H                 5         0.500000   0.900321   0.440802   x
            x  H                 6         0.500000   0.599679   0.940802   x
            x  H                 7         0.500000   0.400321   0.059198   x
            x  H                 8         0.500000   0.099679   0.559198   x
            xxxxxxxxxxxxxxxxxxxxxxxxxxxxxxxxxxxxxxxxxxxxxxxxxxxxxxxxxxxxxxxxx


------------------------------------------------------------------------ <-- SCF
SCF loop      Energy                           Energy gain       Timer   <-- SCF
                                               per atom          (sec)   <-- SCF
------------------------------------------------------------------------ <-- SCF
Initial  -1.22227797E+002                                         21.65  <-- SCF
      1  -1.22253741E+002                    3.24306094E-003      22.05  <-- SCF
      2  -1.22253835E+002                    1.16721926E-005      22.66  <-- SCF
      3  -1.22251842E+002                   -2.49080305E-004      23.27  <-- SCF
      4  -1.22251766E+002                   -9.44714163E-006      23.89  <-- SCF
      5  -1.22251767E+002                    1.25912660E-007      24.50  <-- SCF
      6  -1.22251767E+002                    1.18724636E-008      25.12  <-- SCF
      7  -1.22251767E+002                    1.99874039E-011      25.59  <-- SCF
      8  -1.22251767E+002                    6.79740914E-013      26.07  <-- SCF
      9  -1.22251767E+002                   -8.45899804E-014      26.54  <-- SCF
------------------------------------------------------------------------ <-- SCF
 
Final energy =  -122.2517674129     eV
(energy not corrected for finite basis set)
 

 ******************************** Symmetrised Forces ********************************
 *                                                                                  *
 *                           Cartesian components (eV/A)                            *
 * -------------------------------------------------------------------------------- *
 *                         x                    y                    z              *
 *                                                                                  *
 * H               1      0.00000              0.13387              0.06646         *
 * H               2      0.00000             -0.13387              0.06646         *
 * H               3      0.00000              0.13387             -0.06646         *
 * H               4      0.00000             -0.13387             -0.06646         *
 * H               5      0.00000              0.13387              0.06646         *
 * H               6      0.00000             -0.13387              0.06646         *
 * H               7      0.00000              0.13387             -0.06646         *
 * H               8      0.00000             -0.13387             -0.06646         *
 *                                                                                  *
 ************************************************************************************

 *********** Symmetrised Stress Tensor ***********
 *                                               *
 *          Cartesian components (GPa)           *
 * --------------------------------------------- *
 *             x             y             z     *
 *                                               *
 *  x    -71.168389      0.000000      0.000000  *
 *  y      0.000000    -66.633125      0.000000  *
 *  z      0.000000      0.000000    -70.137593  *
 *                                               *
 *  Pressure:   69.3130                          *
 *                                               *
 *************************************************
  
 +------------+-------------+-------------+-----------------+ <-- min LBFGS
 |    Step    |   lambda    |   F.delta'  |    enthalpy     | <-- min LBFGS
 +------------+-------------+-------------+-----------------+ <-- min LBFGS
 |  previous  |    0.000000 |    0.080967 |     -112.942894 | <-- min LBFGS
 | trial step |    1.000000 |    0.050365 |     -112.963909 | <-- min LBFGS
 |  line step |    2.645809 |    0.001931 |     -112.977584 | <-- min LBFGS
 +------------+-------------+-------------+-----------------+ <-- min LBFGS
  
 LBFGS: finished iteration     1 with enthalpy= -1.12977584E+002 eV
  
 +-----------+-----------------+-----------------+------------+-----+ <-- LBFGS
 | Parameter |      value      |    tolerance    |    units   | OK? | <-- LBFGS
 +-----------+-----------------+-----------------+------------+-----+ <-- LBFGS
 |  dE/ion   |   4.336239E-003 |   1.000000E-009 |         eV | No  | <-- LBFGS
 |  |F|max   |   1.494569E-001 |   1.000000E-005 |       eV/A | No  | <-- LBFGS
 |  |dR|max  |   4.896679E-003 |   1.000000E-005 |          A | No  | <-- LBFGS
 |   Smax    |   3.366875E+000 |   1.000000E-005 |        GPa | No  | <-- LBFGS
 +-----------+-----------------+-----------------+------------+-----+ <-- LBFGS
  

================================================================================
 Starting LBFGS iteration          2 ...
================================================================================
  
 +------------+-------------+-------------+-----------------+ <-- min LBFGS
 |    Step    |   lambda    |   F.delta'  |    enthalpy     | <-- min LBFGS
 +------------+-------------+-------------+-----------------+ <-- min LBFGS
 |  previous  |    0.000000 |    0.042356 |     -112.977584 | <-- min LBFGS
 +------------+-------------+-------------+-----------------+ <-- min LBFGS
  

--------------------------------------------------------------------------------
 LBFGS: starting iteration         2 with trial guess (lambda=  1.000000)
--------------------------------------------------------------------------------
 
+---------------- MEMORY AND SCRATCH DISK ESTIMATES PER PROCESS --------------+
|                                                     Memory          Disk    |
| Model and support data                               24.4 MB         0.0 MB |
| Electronic energy minimisation requirements           9.3 MB         0.0 MB |
| Geometry minimisation requirements                   11.1 MB         0.0 MB |
|                                               ----------------------------- |
| Approx. total storage required per process           44.8 MB         0.0 MB |
|                                                                             |
| Requirements will fluctuate during execution and may exceed these estimates |
+-----------------------------------------------------------------------------+
 

                           -------------------------------
                                      Unit Cell
                           -------------------------------
        Real Lattice(A)              Reciprocal Lattice(1/A)
     2.1020667    -0.0000000     0.0000000        2.989051421   0.000000000   0.000000000
    -0.0000000     3.2334492     0.0000000        0.000000000   1.943183542   0.000000000
     0.0000000     0.0000000     3.1689644        0.000000000   0.000000000   1.982725146

                       Lattice parameters(A)       Cell Angles
                    a =      2.102067          alpha =   90.000000
                    b =      3.233449          beta  =   90.000000
                    c =      3.168964          gamma =   90.000000

                Current cell volume =            21.539215 A**3

                           -------------------------------
                                     Cell Contents
                           -------------------------------

            xxxxxxxxxxxxxxxxxxxxxxxxxxxxxxxxxxxxxxxxxxxxxxxxxxxxxxxxxxxxxxxxx
            x  Element         Atom        Fractional coordinates of atoms  x
            x                 Number           u          v          w      x
            x---------------------------------------------------------------x
            x  H                 1        -0.000000   0.405023   0.443133   x
            x  H                 2        -0.000000   0.094977   0.943133   x
            x  H                 3         0.000000   0.905023   0.056867   x
            x  H                 4         0.000000   0.594977   0.556867   x
            x  H                 5         0.500000   0.905023   0.443133   x
            x  H                 6         0.500000   0.594977   0.943133   x
            x  H                 7         0.500000   0.405023   0.056867   x
            x  H                 8         0.500000   0.094977   0.556867   x
            xxxxxxxxxxxxxxxxxxxxxxxxxxxxxxxxxxxxxxxxxxxxxxxxxxxxxxxxxxxxxxxxx


------------------------------------------------------------------------ <-- SCF
SCF loop      Energy                           Energy gain       Timer   <-- SCF
                                               per atom          (sec)   <-- SCF
------------------------------------------------------------------------ <-- SCF
Initial  -1.22121684E+002                                         27.53  <-- SCF
      1  -1.22366559E+002                    3.06093158E-002      27.92  <-- SCF
      2  -1.22367391E+002                    1.04033585E-004      28.52  <-- SCF
      3  -1.22349182E+002                   -2.27608085E-003      29.13  <-- SCF
      4  -1.22348504E+002                   -8.47364238E-005      29.74  <-- SCF
      5  -1.22348511E+002                    8.66172491E-007      30.32  <-- SCF
      6  -1.22348512E+002                    8.35727859E-008      30.92  <-- SCF
      7  -1.22348512E+002                    3.10230732E-010      31.49  <-- SCF
      8  -1.22348512E+002                    2.44767151E-011      31.96  <-- SCF
      9  -1.22348512E+002                    1.06643797E-012      32.41  <-- SCF
     10  -1.22348512E+002                   -5.74003439E-014      32.88  <-- SCF
------------------------------------------------------------------------ <-- SCF
 
Final energy =  -122.3485120207     eV
(energy not corrected for finite basis set)
 

 ******************************** Symmetrised Forces ********************************
 *                                                                                  *
 *                           Cartesian components (eV/A)                            *
 * -------------------------------------------------------------------------------- *
 *                         x                    y                    z              *
 *                                                                                  *
 * H               1      0.00000             -0.70697             -0.44473         *
 * H               2      0.00000              0.70697             -0.44473         *
 * H               3      0.00000             -0.70697              0.44473         *
 * H               4      0.00000              0.70697              0.44473         *
 * H               5      0.00000             -0.70697             -0.44473         *
 * H               6      0.00000              0.70697             -0.44473         *
 * H               7      0.00000             -0.70697              0.44473         *
 * H               8      0.00000              0.70697              0.44473         *
 *                                                                                  *
 ************************************************************************************

 *********** Symmetrised Stress Tensor ***********
 *                                               *
 *          Cartesian components (GPa)           *
 * --------------------------------------------- *
 *             x             y             z     *
 *                                               *
 *  x    -69.664228      0.000000      0.000000  *
 *  y      0.000000    -79.347028      0.000000  *
 *  z      0.000000      0.000000    -73.650626  *
 *                                               *
 *  Pressure:   74.2206                          *
 *                                               *
 *************************************************
  
 +------------+-------------+-------------+-----------------+ <-- min LBFGS
 |    Step    |   lambda    |   F.delta'  |    enthalpy     | <-- min LBFGS
 +------------+-------------+-------------+-----------------+ <-- min LBFGS
 |  previous  |    0.000000 |    0.042356 |     -112.977584 | <-- min LBFGS
 | trial step |    1.000000 |   -0.225068 |     -112.937909 | <-- min LBFGS
 +------------+-------------+-------------+-----------------+ <-- min LBFGS
  

--------------------------------------------------------------------------------
 LBFGS: improving iteration         2 with line minimization (lambda=  0.158384)
--------------------------------------------------------------------------------

                           -------------------------------
                                      Unit Cell
                           -------------------------------
        Real Lattice(A)              Reciprocal Lattice(1/A)
     2.0907735    -0.0000000     0.0000000        3.005196517   0.000000000   0.000000000
    -0.0000000     3.2261516     0.0000000        0.000000000   1.947579079   0.000000000
     0.0000000     0.0000000     3.1543002        0.000000000   0.000000000   1.991942688

                       Lattice parameters(A)       Cell Angles
                    a =      2.090774          alpha =   90.000000
                    b =      3.226152          beta  =   90.000000
                    c =      3.154300          gamma =   90.000000

                Current cell volume =            21.276235 A**3

                           -------------------------------
                                     Cell Contents
                           -------------------------------

            xxxxxxxxxxxxxxxxxxxxxxxxxxxxxxxxxxxxxxxxxxxxxxxxxxxxxxxxxxxxxxxxx
            x  Element         Atom        Fractional coordinates of atoms  x
            x                 Number           u          v          w      x
            x---------------------------------------------------------------x
            x  H                 1        -0.000000   0.401066   0.441171   x
            x  H                 2        -0.000000   0.098934   0.941171   x
            x  H                 3         0.000000   0.901066   0.058829   x
            x  H                 4         0.000000   0.598934   0.558829   x
            x  H                 5         0.500000   0.901066   0.441171   x
            x  H                 6         0.500000   0.598934   0.941171   x
            x  H                 7         0.500000   0.401066   0.058829   x
            x  H                 8         0.500000   0.098934   0.558829   x
            xxxxxxxxxxxxxxxxxxxxxxxxxxxxxxxxxxxxxxxxxxxxxxxxxxxxxxxxxxxxxxxxx


------------------------------------------------------------------------ <-- SCF
SCF loop      Energy                           Energy gain       Timer   <-- SCF
                                               per atom          (sec)   <-- SCF
------------------------------------------------------------------------ <-- SCF
Initial  -1.22112398E+002                                         33.84  <-- SCF
      1  -1.22288041E+002                    2.19554228E-002      34.22  <-- SCF
      2  -1.22288771E+002                    9.12934586E-005      34.82  <-- SCF
      3  -1.22275584E+002                   -1.64843748E-003      35.44  <-- SCF
      4  -1.22275103E+002                   -6.01693740E-005      36.05  <-- SCF
      5  -1.22275106E+002                    4.79270086E-007      36.66  <-- SCF
      6  -1.22275107E+002                    4.30505147E-008      37.28  <-- SCF
      7  -1.22275107E+002                    1.55878186E-010      37.78  <-- SCF
      8  -1.22275107E+002                    1.43198753E-011      38.24  <-- SCF
      9  -1.22275107E+002                    8.09646956E-013      38.71  <-- SCF
     10  -1.22275107E+002                    4.28992044E-013      39.18  <-- SCF
------------------------------------------------------------------------ <-- SCF
 
Final energy =  -122.2751067962     eV
(energy not corrected for finite basis set)
 

 ******************************** Symmetrised Forces ********************************
 *                                                                                  *
 *                           Cartesian components (eV/A)                            *
 * -------------------------------------------------------------------------------- *
 *                         x                    y                    z              *
 *                                                                                  *
 * H               1      0.00000              0.01852             -0.00399         *
 * H               2      0.00000             -0.01852             -0.00399         *
 * H               3     -0.00000              0.01852              0.00399         *
 * H               4     -0.00000             -0.01852              0.00399         *
 * H               5      0.00000              0.01852             -0.00399         *
 * H               6      0.00000             -0.01852             -0.00399         *
 * H               7     -0.00000              0.01852              0.00399         *
 * H               8     -0.00000             -0.01852              0.00399         *
 *                                                                                  *
 ************************************************************************************

 *********** Symmetrised Stress Tensor ***********
 *                                               *
 *          Cartesian components (GPa)           *
 * --------------------------------------------- *
 *             x             y             z     *
 *                                               *
 *  x    -71.008041     -0.000000      0.000000  *
 *  y     -0.000000    -68.426308      0.000000  *
 *  z      0.000000      0.000000    -70.682040  *
 *                                               *
 *  Pressure:   70.0388                          *
 *                                               *
 *************************************************
  
 +------------+-------------+-------------+-----------------+ <-- min LBFGS
 |    Step    |   lambda    |   F.delta'  |    enthalpy     | <-- min LBFGS
 +------------+-------------+-------------+-----------------+ <-- min LBFGS
 |  previous  |    0.000000 |    0.042356 |     -112.977584 | <-- min LBFGS
 | trial step |    1.000000 |   -0.225068 |     -112.937909 | <-- min LBFGS
 |  line step |    0.158384 |    0.005939 |     -112.979403 | <-- min LBFGS
 +------------+-------------+-------------+-----------------+ <-- min LBFGS
  
 LBFGS: finished iteration     2 with enthalpy= -1.12979403E+002 eV
  
 +-----------+-----------------+-----------------+------------+-----+ <-- LBFGS
 | Parameter |      value      |    tolerance    |    units   | OK? | <-- LBFGS
 +-----------+-----------------+-----------------+------------+-----+ <-- LBFGS
 |  dE/ion   |   2.273465E-004 |   1.000000E-009 |         eV | No  | <-- LBFGS
 |  |F|max   |   1.894100E-002 |   1.000000E-005 |       eV/A | No  | <-- LBFGS
 |  |dR|max  |   2.669832E-003 |   1.000000E-005 |          A | No  | <-- LBFGS
 |   Smax    |   1.573692E+000 |   1.000000E-005 |        GPa | No  | <-- LBFGS
 +-----------+-----------------+-----------------+------------+-----+ <-- LBFGS
  

================================================================================
 Starting LBFGS iteration          3 ...
================================================================================
  
 +------------+-------------+-------------+-----------------+ <-- min LBFGS
 |    Step    |   lambda    |   F.delta'  |    enthalpy     | <-- min LBFGS
 +------------+-------------+-------------+-----------------+ <-- min LBFGS
 |  previous  |    0.000000 |    0.009636 |     -112.979403 | <-- min LBFGS
 +------------+-------------+-------------+-----------------+ <-- min LBFGS
  

--------------------------------------------------------------------------------
 LBFGS: starting iteration         3 with trial guess (lambda=  1.000000)
--------------------------------------------------------------------------------

                           -------------------------------
                                      Unit Cell
                           -------------------------------
        Real Lattice(A)              Reciprocal Lattice(1/A)
     2.0932746    -0.0000000     0.0000000        3.001605795   0.000000000   0.000000000
    -0.0000000     3.2242017     0.0000000        0.000000000   1.948756919   0.000000000
     0.0000000     0.0000000     3.1574242        0.000000000   0.000000000   1.989971863

                       Lattice parameters(A)       Cell Angles
                    a =      2.093275          alpha =   90.000000
                    b =      3.224202          beta  =   90.000000
                    c =      3.157424          gamma =   90.000000

                Current cell volume =            21.309897 A**3

                           -------------------------------
                                     Cell Contents
                           -------------------------------

            xxxxxxxxxxxxxxxxxxxxxxxxxxxxxxxxxxxxxxxxxxxxxxxxxxxxxxxxxxxxxxxxx
            x  Element         Atom        Fractional coordinates of atoms  x
            x                 Number           u          v          w      x
            x---------------------------------------------------------------x
            x  H                 1         0.000000   0.401382   0.440837   x
            x  H                 2        -0.000000   0.098618   0.940837   x
            x  H                 3         0.000000   0.901382   0.059163   x
            x  H                 4        -0.000000   0.598618   0.559163   x
            x  H                 5         0.500000   0.901382   0.440837   x
            x  H                 6         0.500000   0.598618   0.940837   x
            x  H                 7         0.500000   0.401382   0.059163   x
            x  H                 8         0.500000   0.098618   0.559163   x
            xxxxxxxxxxxxxxxxxxxxxxxxxxxxxxxxxxxxxxxxxxxxxxxxxxxxxxxxxxxxxxxxx


------------------------------------------------------------------------ <-- SCF
SCF loop      Energy                           Energy gain       Timer   <-- SCF
                                               per atom          (sec)   <-- SCF
------------------------------------------------------------------------ <-- SCF
Initial  -1.22289194E+002                                         40.17  <-- SCF
      1  -1.22290313E+002                    1.39868198E-004      40.57  <-- SCF
      2  -1.22290317E+002                    5.20231703E-007      41.19  <-- SCF
      3  -1.22290300E+002                   -2.10513526E-006      41.85  <-- SCF
      4  -1.22290300E+002                   -2.98515836E-008      42.44  <-- SCF
      5  -1.22290300E+002                    1.81965132E-009      43.04  <-- SCF
      6  -1.22290300E+002                    1.75856527E-010      43.53  <-- SCF
      7  -1.22290300E+002                    1.99692775E-012      44.00  <-- SCF
      8  -1.22290300E+002                   -1.72201032E-013      44.47  <-- SCF
------------------------------------------------------------------------ <-- SCF
 
Final energy =  -122.2903000765     eV
(energy not corrected for finite basis set)
 

 ******************************** Symmetrised Forces ********************************
 *                                                                                  *
 *                           Cartesian components (eV/A)                            *
 * -------------------------------------------------------------------------------- *
 *                         x                    y                    z              *
 *                                                                                  *
 * H               1     -0.00000              0.00171             -0.01357         *
 * H               2      0.00000             -0.00171             -0.01357         *
 * H               3      0.00000              0.00171              0.01357         *
 * H               4      0.00000             -0.00171              0.01357         *
 * H               5     -0.00000              0.00171             -0.01357         *
 * H               6     -0.00000             -0.00171             -0.01357         *
 * H               7      0.00000              0.00171              0.01357         *
 * H               8      0.00000             -0.00171              0.01357         *
 *                                                                                  *
 ************************************************************************************

 *********** Symmetrised Stress Tensor ***********
 *                                               *
 *          Cartesian components (GPa)           *
 * --------------------------------------------- *
 *             x             y             z     *
 *                                               *
 *  x    -70.781377     -0.000000      0.000000  *
 *  y     -0.000000    -68.729610      0.000000  *
 *  z      0.000000      0.000000    -70.388738  *
 *                                               *
 *  Pressure:   69.9666                          *
 *                                               *
 *************************************************
  
 +------------+-------------+-------------+-----------------+ <-- min LBFGS
 |    Step    |   lambda    |   F.delta'  |    enthalpy     | <-- min LBFGS
 +------------+-------------+-------------+-----------------+ <-- min LBFGS
 |  previous  |    0.000000 |    0.009636 |     -112.979403 | <-- min LBFGS
 | trial step |    1.000000 |    0.006974 |     -112.979887 | <-- min LBFGS
 +------------+-------------+-------------+-----------------+ <-- min LBFGS
  

--------------------------------------------------------------------------------
 LBFGS: improving iteration         3 with line minimization (lambda=  3.619502)
--------------------------------------------------------------------------------

                           -------------------------------
                                      Unit Cell
                           -------------------------------
        Real Lattice(A)              Reciprocal Lattice(1/A)
     2.0998263    -0.0000000     0.0000000        2.992240444   0.000000000   0.000000000
    -0.0000000     3.2190939     0.0000000        0.000000000   1.951849036   0.000000000
     0.0000000     0.0000000     3.1656074        0.000000000   0.000000000   1.984827722

                       Lattice parameters(A)       Cell Angles
                    a =      2.099826          alpha =   90.000000
                    b =      3.219094          beta  =   90.000000
                    c =      3.165607          gamma =   90.000000

                Current cell volume =            21.398044 A**3

                           -------------------------------
                                     Cell Contents
                           -------------------------------

            xxxxxxxxxxxxxxxxxxxxxxxxxxxxxxxxxxxxxxxxxxxxxxxxxxxxxxxxxxxxxxxxx
            x  Element         Atom        Fractional coordinates of atoms  x
            x                 Number           u          v          w      x
            x---------------------------------------------------------------x
            x  H                 1         0.000000   0.402211   0.439963   x
            x  H                 2        -0.000000   0.097789   0.939963   x
            x  H                 3         0.000000   0.902211   0.060037   x
            x  H                 4        -0.000000   0.597789   0.560037   x
            x  H                 5         0.500000   0.902211   0.439963   x
            x  H                 6         0.500000   0.597789   0.939963   x
            x  H                 7         0.500000   0.402211   0.060037   x
            x  H                 8         0.500000   0.097789   0.560037   x
            xxxxxxxxxxxxxxxxxxxxxxxxxxxxxxxxxxxxxxxxxxxxxxxxxxxxxxxxxxxxxxxxx


------------------------------------------------------------------------ <-- SCF
SCF loop      Energy                           Energy gain       Timer   <-- SCF
                                               per atom          (sec)   <-- SCF
------------------------------------------------------------------------ <-- SCF
Initial  -1.22322561E+002                                         45.43  <-- SCF
      1  -1.22329440E+002                    8.59895981E-004      45.82  <-- SCF
      2  -1.22329467E+002                    3.27133936E-006      46.41  <-- SCF
      3  -1.22329364E+002                   -1.28353697E-005      47.01  <-- SCF
      4  -1.22329363E+002                   -1.47935477E-007      47.63  <-- SCF
      5  -1.22329363E+002                    1.22175605E-008      48.24  <-- SCF
      6  -1.22329363E+002                    1.20317163E-009      48.86  <-- SCF
      7  -1.22329363E+002                    1.12021303E-011      49.33  <-- SCF
      8  -1.22329363E+002                    2.35643517E-013      49.79  <-- SCF
      9  -1.22329363E+002                   -1.41990324E-013      50.25  <-- SCF
------------------------------------------------------------------------ <-- SCF
 
Final energy =  -122.3293627622     eV
(energy not corrected for finite basis set)
 

 ******************************** Symmetrised Forces ********************************
 *                                                                                  *
 *                           Cartesian components (eV/A)                            *
 * -------------------------------------------------------------------------------- *
 *                         x                    y                    z              *
 *                                                                                  *
 * H               1      0.00000             -0.04144             -0.03898         *
 * H               2      0.00000              0.04144             -0.03898         *
 * H               3      0.00000             -0.04144              0.03898         *
 * H               4      0.00000              0.04144              0.03898         *
 * H               5      0.00000             -0.04144             -0.03898         *
 * H               6      0.00000              0.04144             -0.03898         *
 * H               7     -0.00000             -0.04144              0.03898         *
 * H               8      0.00000              0.04144              0.03898         *
 *                                                                                  *
 ************************************************************************************

 *********** Symmetrised Stress Tensor ***********
 *                                               *
 *          Cartesian components (GPa)           *
 * --------------------------------------------- *
 *             x             y             z     *
 *                                               *
 *  x    -70.179193      0.000000      0.000000  *
 *  y      0.000000    -69.486797      0.000000  *
 *  z      0.000000      0.000000    -69.614449  *
 *                                               *
 *  Pressure:   69.7601                          *
 *                                               *
 *************************************************
  
 +------------+-------------+-------------+-----------------+ <-- min LBFGS
 |    Step    |   lambda    |   F.delta'  |    enthalpy     | <-- min LBFGS
 +------------+-------------+-------------+-----------------+ <-- min LBFGS
 |  previous  |    0.000000 |    0.009636 |     -112.979403 | <-- min LBFGS
 | trial step |    1.000000 |    0.006974 |     -112.979887 | <-- min LBFGS
 |  line step |    3.619502 |    0.000194 |     -112.980437 | <-- min LBFGS
 +------------+-------------+-------------+-----------------+ <-- min LBFGS
  
 LBFGS: finished iteration     3 with enthalpy= -1.12980437E+002 eV
  
 +-----------+-----------------+-----------------+------------+-----+ <-- LBFGS
 | Parameter |      value      |    tolerance    |    units   | OK? | <-- LBFGS
 +-----------+-----------------+-----------------+------------+-----+ <-- LBFGS
 |  dE/ion   |   1.292812E-004 |   1.000000E-009 |         eV | No  | <-- LBFGS
 |  |F|max   |   5.689416E-002 |   1.000000E-005 |       eV/A | No  | <-- LBFGS
 |  |dR|max  |   5.310869E-003 |   1.000000E-005 |          A | No  | <-- LBFGS
 |   Smax    |   5.132031E-001 |   1.000000E-005 |        GPa | No  | <-- LBFGS
 +-----------+-----------------+-----------------+------------+-----+ <-- LBFGS
  

================================================================================
 Starting LBFGS iteration          4 ...
================================================================================
  
 +------------+-------------+-------------+-----------------+ <-- min LBFGS
 |    Step    |   lambda    |   F.delta'  |    enthalpy     | <-- min LBFGS
 +------------+-------------+-------------+-----------------+ <-- min LBFGS
 |  previous  |    0.000000 |    0.008002 |     -112.980437 | <-- min LBFGS
 +------------+-------------+-------------+-----------------+ <-- min LBFGS
  

--------------------------------------------------------------------------------
 LBFGS: starting iteration         4 with trial guess (lambda=  1.000000)
--------------------------------------------------------------------------------

                           -------------------------------
                                      Unit Cell
                           -------------------------------
        Real Lattice(A)              Reciprocal Lattice(1/A)
     2.1024424    -0.0000000     0.0000000        2.988517236   0.000000000   0.000000000
    -0.0000000     3.2109377     0.0000000        0.000000000   1.956807007   0.000000000
     0.0000000     0.0000000     3.1668499        0.000000000   0.000000000   1.984048958

                       Lattice parameters(A)       Cell Angles
                    a =      2.102442          alpha =   90.000000
                    b =      3.210938          beta  =   90.000000
                    c =      3.166850          gamma =   90.000000

                Current cell volume =            21.378807 A**3

                           -------------------------------
                                     Cell Contents
                           -------------------------------

            xxxxxxxxxxxxxxxxxxxxxxxxxxxxxxxxxxxxxxxxxxxxxxxxxxxxxxxxxxxxxxxxx
            x  Element         Atom        Fractional coordinates of atoms  x
            x                 Number           u          v          w      x
            x---------------------------------------------------------------x
            x  H                 1         0.000000   0.402520   0.438851   x
            x  H                 2         0.000000   0.097480   0.938851   x
            x  H                 3         0.000000   0.902520   0.061149   x
            x  H                 4        -0.000000   0.597480   0.561149   x
            x  H                 5         0.500000   0.902520   0.438851   x
            x  H                 6         0.500000   0.597480   0.938851   x
            x  H                 7         0.500000   0.402520   0.061149   x
            x  H                 8         0.500000   0.097480   0.561149   x
            xxxxxxxxxxxxxxxxxxxxxxxxxxxxxxxxxxxxxxxxxxxxxxxxxxxxxxxxxxxxxxxxx


------------------------------------------------------------------------ <-- SCF
SCF loop      Energy                           Energy gain       Timer   <-- SCF
                                               per atom          (sec)   <-- SCF
------------------------------------------------------------------------ <-- SCF
Initial  -1.22317056E+002                                         51.24  <-- SCF
      1  -1.22321623E+002                    5.70865801E-004      51.64  <-- SCF
      2  -1.22321637E+002                    1.69032782E-006      52.25  <-- SCF
      3  -1.22321714E+002                    9.59695752E-006      52.86  <-- SCF
      4  -1.22321720E+002                    8.08256308E-007      53.48  <-- SCF
      5  -1.22321720E+002                    6.82659268E-009      54.10  <-- SCF
      6  -1.22321720E+002                    7.48748212E-010      54.71  <-- SCF
      7  -1.22321720E+002                    4.93945064E-012      55.19  <-- SCF
      8  -1.22321720E+002                    5.43792731E-013      55.66  <-- SCF
------------------------------------------------------------------------ <-- SCF
 
Final energy =  -122.3217202004     eV
(energy not corrected for finite basis set)
 

 ******************************** Symmetrised Forces ********************************
 *                                                                                  *
 *                           Cartesian components (eV/A)                            *
 * -------------------------------------------------------------------------------- *
 *                         x                    y                    z              *
 *                                                                                  *
 * H               1      0.00000             -0.01824             -0.02216         *
 * H               2      0.00000              0.01824             -0.02216         *
 * H               3     -0.00000             -0.01824              0.02216         *
 * H               4     -0.00000              0.01824              0.02216         *
 * H               5      0.00000             -0.01824             -0.02216         *
 * H               6      0.00000              0.01824             -0.02216         *
 * H               7     -0.00000             -0.01824              0.02216         *
 * H               8      0.00000              0.01824              0.02216         *
 *                                                                                  *
 ************************************************************************************

 *********** Symmetrised Stress Tensor ***********
 *                                               *
 *          Cartesian components (GPa)           *
 * --------------------------------------------- *
 *             x             y             z     *
 *                                               *
 *  x    -70.307234      0.000000      0.000000  *
 *  y      0.000000    -69.775821      0.000000  *
 *  z      0.000000      0.000000    -69.271884  *
 *                                               *
 *  Pressure:   69.7850                          *
 *                                               *
 *************************************************
  
 +------------+-------------+-------------+-----------------+ <-- min LBFGS
 |    Step    |   lambda    |   F.delta'  |    enthalpy     | <-- min LBFGS
 +------------+-------------+-------------+-----------------+ <-- min LBFGS
 |  previous  |    0.000000 |    0.008002 |     -112.980437 | <-- min LBFGS
 | trial step |    1.000000 |    0.004782 |     -112.981197 | <-- min LBFGS
 +------------+-------------+-------------+-----------------+ <-- min LBFGS
  

--------------------------------------------------------------------------------
 LBFGS: improving iteration         4 with line minimization (lambda=  2.485483)
--------------------------------------------------------------------------------

                           -------------------------------
                                      Unit Cell
                           -------------------------------
        Real Lattice(A)              Reciprocal Lattice(1/A)
     2.1063285    -0.0000000     0.0000000        2.983003548   0.000000000   0.000000000
    -0.0000000     3.1988217     0.0000000        0.000000000   1.964218662   0.000000000
     0.0000000     0.0000000     3.1686957        0.000000000   0.000000000   1.982893245

                       Lattice parameters(A)       Cell Angles
                    a =      2.106328          alpha =   90.000000
                    b =      3.198822          beta  =   90.000000
                    c =      3.168696          gamma =   90.000000

                Current cell volume =            21.349941 A**3

                           -------------------------------
                                     Cell Contents
                           -------------------------------

            xxxxxxxxxxxxxxxxxxxxxxxxxxxxxxxxxxxxxxxxxxxxxxxxxxxxxxxxxxxxxxxxx
            x  Element         Atom        Fractional coordinates of atoms  x
            x                 Number           u          v          w      x
            x---------------------------------------------------------------x
            x  H                 1         0.000000   0.402981   0.437198   x
            x  H                 2         0.000000   0.097019   0.937198   x
            x  H                 3         0.000000   0.902981   0.062802   x
            x  H                 4        -0.000000   0.597019   0.562802   x
            x  H                 5         0.500000   0.902981   0.437198   x
            x  H                 6         0.500000   0.597019   0.937198   x
            x  H                 7         0.500000   0.402981   0.062802   x
            x  H                 8         0.500000   0.097019   0.562802   x
            xxxxxxxxxxxxxxxxxxxxxxxxxxxxxxxxxxxxxxxxxxxxxxxxxxxxxxxxxxxxxxxxx


------------------------------------------------------------------------ <-- SCF
SCF loop      Energy                           Energy gain       Timer   <-- SCF
                                               per atom          (sec)   <-- SCF
------------------------------------------------------------------------ <-- SCF
Initial  -1.22299201E+002                                         56.63  <-- SCF
      1  -1.22309302E+002                    1.26266441E-003      57.02  <-- SCF
      2  -1.22309330E+002                    3.48874622E-006      57.63  <-- SCF
      3  -1.22309489E+002                    1.98664229E-005      58.24  <-- SCF
      4  -1.22309503E+002                    1.71831779E-006      58.83  <-- SCF
      5  -1.22309503E+002                    1.51992697E-008      59.46  <-- SCF
      6  -1.22309503E+002                    1.67020500E-009      60.07  <-- SCF
      7  -1.22309503E+002                    1.12232778E-011      60.54  <-- SCF
      8  -1.22312716E+002                    4.01577178E-004      61.02  <-- SCF
      9  -1.22312716E+002                   -1.08703563E-009      61.50  <-- SCF
     10  -1.22312685E+002                   -3.88374932E-006      62.09  <-- SCF
     11  -1.22312703E+002                    2.34185191E-006      62.69  <-- SCF
     12  -1.22312711E+002                    9.35985816E-007      63.30  <-- SCF
     13  -1.22312713E+002                    2.12971807E-007      63.91  <-- SCF
     14  -1.22312713E+002                    7.85297125E-011      64.41  <-- SCF
     15  -1.22312713E+002                    3.48329455E-012      64.88  <-- SCF
     16  -1.22312713E+002                   -1.32927112E-013      65.36  <-- SCF
------------------------------------------------------------------------ <-- SCF
 
Final energy =  -122.3127125997     eV
(energy not corrected for finite basis set)
 

 ******************************** Symmetrised Forces ********************************
 *                                                                                  *
 *                           Cartesian components (eV/A)                            *
 * -------------------------------------------------------------------------------- *
 *                         x                    y                    z              *
 *                                                                                  *
 * H               1      0.00000              0.05240              0.02205         *
 * H               2     -0.00000             -0.05240              0.02205         *
 * H               3     -0.00000              0.05240             -0.02205         *
 * H               4      0.00000             -0.05240             -0.02205         *
 * H               5      0.00000              0.05240              0.02205         *
 * H               6     -0.00000             -0.05240              0.02205         *
 * H               7     -0.00000              0.05240             -0.02205         *
 * H               8      0.00000             -0.05240             -0.02205         *
 *                                                                                  *
 ************************************************************************************

 *********** Symmetrised Stress Tensor ***********
 *                                               *
 *          Cartesian components (GPa)           *
 * --------------------------------------------- *
 *             x             y             z     *
 *                                               *
 *  x    -71.342423      0.000000      0.000000  *
 *  y      0.000000    -69.239488      0.000000  *
 *  z      0.000000      0.000000    -69.306686  *
 *                                               *
 *  Pressure:   69.9629                          *
 *                                               *
 *************************************************
  
 +------------+-------------+-------------+-----------------+ <-- min LBFGS
[...]
            xxxxxxxxxxxxxxxxxxxxxxxxxxxxxxxxxxxxxxxxxxxxxxxxxxxxxxxxxxxxxxxxx


------------------------------------------------------------------------ <-- SCF
SCF loop      Energy                           Energy gain       Timer   <-- SCF
                                               per atom          (sec)   <-- SCF
------------------------------------------------------------------------ <-- SCF
Initial  -1.22530074E+002                                        309.57  <-- SCF
      1  -1.22530074E+002                    5.36740344E-009     309.96  <-- SCF
      2  -1.22530074E+002                    4.27179401E-012     310.41  <-- SCF
      3  -1.22530074E+002                    1.05093987E-010     310.86  <-- SCF
      4  -1.22530074E+002                    9.36229819E-012     311.31  <-- SCF
      5  -1.22530074E+002                    2.29601375E-013     311.76  <-- SCF
------------------------------------------------------------------------ <-- SCF
 
Final energy =  -122.5300739579     eV
(energy not corrected for finite basis set)
 

 ******************************** Symmetrised Forces ********************************
 *                                                                                  *
 *                           Cartesian components (eV/A)                            *
 * -------------------------------------------------------------------------------- *
 *                         x                    y                    z              *
 *                                                                                  *
 * H               1      0.00000             -0.00000             -0.00000         *
 * H               2      0.00000              0.00000             -0.00000         *
 * H               3      0.00000             -0.00000              0.00000         *
 * H               4      0.00000              0.00000              0.00000         *
 * H               5      0.00000             -0.00000             -0.00000         *
 * H               6      0.00000              0.00000             -0.00000         *
 * H               7      0.00000             -0.00000              0.00000         *
 * H               8      0.00000              0.00000              0.00000         *
 *                                                                                  *
 ************************************************************************************

 *********** Symmetrised Stress Tensor ***********
 *                                               *
 *          Cartesian components (GPa)           *
 * --------------------------------------------- *
 *             x             y             z     *
 *                                               *
 *  x    -69.999962      0.000000      0.000000  *
 *  y      0.000000    -70.000037      0.000000  *
 *  z      0.000000      0.000000    -70.000054  *
 *                                               *
 *  Pressure:   70.0000                          *
 *                                               *
 *************************************************
  
 +------------+-------------+-------------+-----------------+ <-- min LBFGS
 |    Step    |   lambda    |   F.delta'  |    enthalpy     | <-- min LBFGS
 +------------+-------------+-------------+-----------------+ <-- min LBFGS
 |  previous  |    0.000000 |  7.217E-006 |     -113.164219 | <-- min LBFGS
 | trial step |    1.000000 |  1.988E-007 |     -113.164219 | <-- min LBFGS
 +------------+-------------+-------------+-----------------+ <-- min LBFGS
  
 LBFGS: finished iteration    24 with enthalpy= -1.13164219E+002 eV
  
 +-----------+-----------------+-----------------+------------+-----+ <-- LBFGS
 | Parameter |      value      |    tolerance    |    units   | OK? | <-- LBFGS
 +-----------+-----------------+-----------------+------------+-----+ <-- LBFGS
 |  dE/ion   |   1.641499E-010 |   1.000000E-009 |         eV | Yes | <-- LBFGS
 |  |F|max   |   3.075528E-006 |   1.000000E-005 |       eV/A | Yes | <-- LBFGS
 |  |dR|max  |   1.174217E-005 |   1.000000E-005 |          A | No  | <-- LBFGS
 |   Smax    |   5.430654E-005 |   1.000000E-005 |        GPa | No  | <-- LBFGS
 +-----------+-----------------+-----------------+------------+-----+ <-- LBFGS
  

================================================================================
 Starting LBFGS iteration         25 ...
================================================================================
  
 +------------+-------------+-------------+-----------------+ <-- min LBFGS
 |    Step    |   lambda    |   F.delta'  |    enthalpy     | <-- min LBFGS
 +------------+-------------+-------------+-----------------+ <-- min LBFGS
 |  previous  |    0.000000 |  2.426E-007 |     -113.164219 | <-- min LBFGS
 +------------+-------------+-------------+-----------------+ <-- min LBFGS
  

--------------------------------------------------------------------------------
 LBFGS: starting iteration        25 with trial guess (lambda=  1.000000)
--------------------------------------------------------------------------------

                           -------------------------------
                                      Unit Cell
                           -------------------------------
        Real Lattice(A)              Reciprocal Lattice(1/A)
     2.7909594    -0.0000000     0.0000000        2.251263576   0.000000000   0.000000000
    -0.0000000     2.7623131     0.0000000        0.000000000   2.274610090   0.000000000
     0.0000000     0.0000000     2.7805659        0.000000000   0.000000000   2.259678648

                       Lattice parameters(A)       Cell Angles
                    a =      2.790959          alpha =   90.000000
                    b =      2.762313          beta  =   90.000000
                    c =      2.780566          gamma =   90.000000

                Current cell volume =            21.436783 A**3

                           -------------------------------
                                     Cell Contents
                           -------------------------------

            xxxxxxxxxxxxxxxxxxxxxxxxxxxxxxxxxxxxxxxxxxxxxxxxxxxxxxxxxxxxxxxxx
            x  Element         Atom        Fractional coordinates of atoms  x
            x                 Number           u          v          w      x
            x---------------------------------------------------------------x
            x  H                 1        -0.000000   0.403921   0.409360   x
            x  H                 2        -0.000000   0.096079   0.909360   x
            x  H                 3         0.000000   0.903921   0.090640   x
            x  H                 4        -0.000000   0.596079   0.590640   x
            x  H                 5         0.500000   0.903921   0.409360   x
            x  H                 6         0.500000   0.596079   0.909360   x
            x  H                 7         0.500000   0.403921   0.090640   x
            x  H                 8         0.500000   0.096079   0.590640   x
            xxxxxxxxxxxxxxxxxxxxxxxxxxxxxxxxxxxxxxxxxxxxxxxxxxxxxxxxxxxxxxxxx


------------------------------------------------------------------------ <-- SCF
SCF loop      Energy                           Energy gain       Timer   <-- SCF
                                               per atom          (sec)   <-- SCF
------------------------------------------------------------------------ <-- SCF
Initial  -1.22530074E+002                                        312.66  <-- SCF
      1  -1.22530074E+002                    1.89330503E-011     312.97  <-- SCF
      2  -1.22530074E+002                    2.38664588E-013     313.42  <-- SCF
      3  -1.22530074E+002                    6.88804126E-013     313.87  <-- SCF
      4  -1.22530074E+002                   -1.26884971E-013     314.32  <-- SCF
------------------------------------------------------------------------ <-- SCF
 
Final energy =  -122.5300739289     eV
(energy not corrected for finite basis set)
 

 ******************************** Symmetrised Forces ********************************
 *                                                                                  *
 *                           Cartesian components (eV/A)                            *
 * -------------------------------------------------------------------------------- *
 *                         x                    y                    z              *
 *                                                                                  *
 * H               1      0.00000              0.00000             -0.00000         *
 * H               2      0.00000             -0.00000             -0.00000         *
 * H               3      0.00000              0.00000              0.00000         *
 * H               4      0.00000             -0.00000              0.00000         *
 * H               5     -0.00000              0.00000             -0.00000         *
 * H               6      0.00000             -0.00000             -0.00000         *
 * H               7      0.00000              0.00000              0.00000         *
 * H               8      0.00000             -0.00000              0.00000         *
 *                                                                                  *
 ************************************************************************************

 *********** Symmetrised Stress Tensor ***********
 *                                               *
 *          Cartesian components (GPa)           *
 * --------------------------------------------- *
 *             x             y             z     *
 *                                               *
 *  x    -70.000008     -0.000000      0.000000  *
 *  y     -0.000000    -69.999999      0.000000  *
 *  z      0.000000      0.000000    -69.999993  *
 *                                               *
 *  Pressure:   70.0000                          *
 *                                               *
 *************************************************
  
 +------------+-------------+-------------+-----------------+ <-- min LBFGS
 |    Step    |   lambda    |   F.delta'  |    enthalpy     | <-- min LBFGS
 +------------+-------------+-------------+-----------------+ <-- min LBFGS
 |  previous  |    0.000000 |  2.426E-007 |     -113.164219 | <-- min LBFGS
 | trial step |    1.000000 |  2.377E-008 |     -113.164219 | <-- min LBFGS
 +------------+-------------+-------------+-----------------+ <-- min LBFGS
  
 LBFGS: finished iteration    25 with enthalpy= -1.13164219E+002 eV
  
 +-----------+-----------------+-----------------+------------+-----+ <-- LBFGS
 | Parameter |      value      |    tolerance    |    units   | OK? | <-- LBFGS
 +-----------+-----------------+-----------------+------------+-----+ <-- LBFGS
 |  dE/ion   |   3.292967E-013 |   1.000000E-009 |         eV | Yes | <-- LBFGS
 |  |F|max   |   1.974146E-007 |   1.000000E-005 |       eV/A | Yes | <-- LBFGS
 |  |dR|max  |   6.732577E-007 |   1.000000E-005 |          A | Yes | <-- LBFGS
 |   Smax    |   8.386616E-006 |   1.000000E-005 |        GPa | Yes | <-- LBFGS
 +-----------+-----------------+-----------------+------------+-----+ <-- LBFGS
  
 LBFGS: Geometry optimization completed successfully.

================================================================================
 LBFGS: Final Configuration:
================================================================================

                           -------------------------------
                                      Unit Cell
                           -------------------------------
        Real Lattice(A)              Reciprocal Lattice(1/A)
     2.7909594    -0.0000000     0.0000000        2.251263576   0.000000000   0.000000000
    -0.0000000     2.7623131     0.0000000        0.000000000   2.274610090   0.000000000
     0.0000000     0.0000000     2.7805659        0.000000000   0.000000000   2.259678648

                       Lattice parameters(A)       Cell Angles
                    a =      2.790959          alpha =   90.000000
                    b =      2.762313          beta  =   90.000000
                    c =      2.780566          gamma =   90.000000

                Current cell volume =            21.436783 A**3

                           -------------------------------
                                     Cell Contents
                           -------------------------------

            xxxxxxxxxxxxxxxxxxxxxxxxxxxxxxxxxxxxxxxxxxxxxxxxxxxxxxxxxxxxxxxxx
            x  Element         Atom        Fractional coordinates of atoms  x
            x                 Number           u          v          w      x
            x---------------------------------------------------------------x
            x  H                 1        -0.000000   0.403921   0.409360   x
            x  H                 2        -0.000000   0.096079   0.909360   x
            x  H                 3         0.000000   0.903921   0.090640   x
            x  H                 4        -0.000000   0.596079   0.590640   x
            x  H                 5         0.500000   0.903921   0.409360   x
            x  H                 6         0.500000   0.596079   0.909360   x
            x  H                 7         0.500000   0.403921   0.090640   x
            x  H                 8         0.500000   0.096079   0.590640   x
            xxxxxxxxxxxxxxxxxxxxxxxxxxxxxxxxxxxxxxxxxxxxxxxxxxxxxxxxxxxxxxxxx


 LBFGS: Final Enthalpy     = -1.13164219E+002 eV
 LBFGS: Final <frequency>  =    2316.26618 cm-1
 LBFGS: Final bulk modulus =     185.97737 GPa

 ******************************** Symmetrised Forces ********************************
 *                                                                                  *
 *                           Cartesian components (eV/A)                            *
 * -------------------------------------------------------------------------------- *
 *                         x                    y                    z              *
 *                                                                                  *
 * H               1      0.00000              0.00000             -0.00000         *
 * H               2      0.00000             -0.00000             -0.00000         *
 * H               3      0.00000              0.00000              0.00000         *
 * H               4      0.00000             -0.00000              0.00000         *
 * H               5     -0.00000              0.00000             -0.00000         *
 * H               6      0.00000             -0.00000             -0.00000         *
 * H               7      0.00000              0.00000              0.00000         *
 * H               8      0.00000             -0.00000              0.00000         *
 *                                                                                  *
 ************************************************************************************

 *********** Symmetrised Stress Tensor ***********
 *                                               *
 *          Cartesian components (GPa)           *
 * --------------------------------------------- *
 *             x             y             z     *
 *                                               *
 *  x    -70.000008     -0.000000      0.000000  *
 *  y     -0.000000    -69.999999      0.000000  *
 *  z      0.000000      0.000000    -69.999993  *
 *                                               *
 *  Pressure:   70.0000                          *
 *                                               *
 *************************************************

 Pseudo atomic calculation performed for H 1s1

 Converged in 24 iterations to a total energy of -12.4843 eV

Charge spilling parameter for spin component 1 = 0.58%

            Orbital Populations       
     Ion    Atom   Orbital             Charge
  -------------------------------------------
      H     1      S                    0.998
      H     2      S                    1.002
      H     3      S                    1.002
      H     4      S                    0.998
      H     5      S                    0.998
      H     6      S                    1.002
      H     7      S                    1.002
      H     8      S                    0.998
  -------------------------------------------
                           Total:       8.000
  -------------------------------------------

     Atomic Populations (Mulliken)
     -----------------------------
Species          Ion     s      p      d      f     Total  Charge (e)
=====================================================================
  H               1     1.00   0.00   0.00   0.00   1.00     0.00
  H               2     1.00   0.00   0.00   0.00   1.00     0.00
  H               3     1.00   0.00   0.00   0.00   1.00     0.00
  H               4     1.00   0.00   0.00   0.00   1.00     0.00
  H               5     1.00   0.00   0.00   0.00   1.00     0.00
  H               6     1.00   0.00   0.00   0.00   1.00     0.00
  H               7     1.00   0.00   0.00   0.00   1.00     0.00
  H               8     1.00   0.00   0.00   0.00   1.00     0.00
=====================================================================

                 Bond                   Population      Length (A)
======================================================================
               H 1 -- H 4                    1.51        0.73200
               H 6 -- H 7                    1.51        0.73200
               H 5 -- H 8                    1.51        0.73200
               H 2 -- H 3                    1.51        0.73200
               H 5 -- H 6                   -0.27        1.62972
               H 3 -- H 4                   -0.27        1.62972
               H 1 -- H 2                   -0.27        1.62972
               H 7 -- H 8                   -0.27        1.62972
               H 5 -- H 7                   -0.28        1.64103
               H 1 -- H 3                   -0.28        1.64103
               H 6 -- H 8                   -0.28        1.64103
               H 2 -- H 4                   -0.28        1.64103
               H 4 -- H 6                   -0.22        1.65310
               H 2 -- H 8                   -0.22        1.65310
               H 3 -- H 5                   -0.22        1.65310
               H 1 -- H 7                   -0.22        1.65310
               H 4 -- H 5                   -0.25        1.71013
               H 3 -- H 6                   -0.25        1.71013
               H 2 -- H 7                   -0.25        1.71013
               H 1 -- H 8                   -0.25        1.71013
               H 3 -- H 7                   -0.28        1.96340
               H 1 -- H 5                   -0.28        1.96340
               H 4 -- H 8                   -0.28        1.96340
               H 2 -- H 6                   -0.28        1.96340
               H 1 -- H 6                   -0.29        2.04010
               H 4 -- H 7                   -0.29        2.04010
               H 2 -- H 5                   -0.29        2.04010
               H 3 -- H 8                   -0.29        2.04010
======================================================================


Writing analysis data to Cmca4.castep_bin

Writing model to Cmca4.check
 
 A BibTeX formatted list of references used in this run has been written to 
 Cmca4.bib
 
Initialisation time =      2.58 s
Calculation time    =    314.05 s
Finalisation time   =      2.16 s
Total time          =    318.79 s
Peak Memory Use     = 526936 kB
  
Overall parallel efficiency rating: Very good (85%)                             
  
Data was distributed by:-
k-point (32-way); efficiency rating: Very good (86%)                            
  
Parallel notes:
1) Calculation only took 316.7 s, so efficiency estimates may be inaccurate.    
