 +-------------------------------------------------+
 |                                                 |
 |      CCC   AA    SSS  TTTTT  EEEEE  PPPP        |
 |     C     A  A  S       T    E      P   P       |
 |     C     AAAA   SS     T    EEE    PPPP        |
 |     C     A  A     S    T    E      P           |
 |      CCC  A  A  SSS     T    EEEEE  P           |
 |                                                 |
 +-------------------------------------------------+
 |                                                 |
 | Welcome to Academic Release CASTEP version 18.1 |          
 | Ab Initio Total Energy Program                  |
 |                                                 |
 | Authors:                                        |
 | M. Segall, M. Probert, C. Pickard, P. Hasnip,   |
 | S. Clark, K. Refson, J. R. Yates, M. Payne      |
 |                                                 |
 | Contributors:                                   |
 | P. Lindan, P. Haynes, J. White, V. Milman,      |
 | N. Govind, M. Gibson, P. Tulip, V. Cocula,      |
 | B. Montanari, D. Quigley, M. Glover,            |
 | L. Bernasconi, A. Perlov, M. Plummer,           |
 | E. McNellis, J. Meyer, J. Gale, D. Jochym       |
 | J. Aarons, B. Walker, R. Gillen, D. Jones       |
 | T. Green, I. J. Bush, C. J. Armstrong,          |
 | E. J. Higgins, E. L. Brown, M. S. McFly,        |
 | J. Wilkins, B-C. Shih, P. J. P. Byrne           |
 |                                                 |
 | Copyright (c) 2000 - 2017                       |
 |                                                 |
 |     Distributed under the terms of an           |
 |     Agreement between the United Kingdom        |
 |     Car-Parrinello (UKCP) Consortium,           |
 |     Daresbury Laboratory and Accelrys, Inc.     |
 |                                                 |
 | Please cite                                     |
 |                                                 |
 |     "First principles methods using CASTEP"     |
 |                                                 |
 |         Zeitschrift fuer Kristallographie       |
 |           220(5-6) pp. 567-570 (2005)           |
 |                                                 |
 | S. J. Clark, M. D. Segall, C. J. Pickard,       |
 | P. J. Hasnip, M. J. Probert, K. Refson,         |
 | M. C. Payne                                     |
 |                                                 |
 |       in all publications arising from          |
 |              your use of CASTEP                 |
 |                                                 |
 +-------------------------------------------------+


 Compiled for linux_x86_64_gfortran4.8 on Thu, 19 Jul 2018 15:42:32 +0100
 from code version 70483bd0ad64+  Sun, 10 Dec 2017 12:18:29 +0000
 Compiler: GNU Fortran 4.8.5; Optimisation: fast
 MATHLIBS: Intel MKL(2018.0.0) (LAPACK version 3.7.0)
 FFT Lib : mkl
 Fundamental constants values: CODATA 2014

 Run started: Wed, 26 Aug 2020 14:44:49 +0100

 Atomic calculation performed for H: 1s1

 Converged in 41 iterations to an ae energy of -12.488 eV

   ============================================================                
   | Pseudopotential Report - Date of generation 26-08-2020   |                
   ------------------------------------------------------------                
   | Element: H Ionic charge:  1.00 Level of theory: PBE      |                
   | Atomic Solver: Koelling-Harmon                           |                
   |                                                          |                
   |               Reference Electronic Structure             |                
   |         Orbital         Occupation         Energy        |                
   |            1s              1.000           -0.239        |                
   |                                                          |                
   |                 Pseudopotential Definition               |                
   |        Beta     l      e      Rc     scheme   norm       |                
   |         loc     0   -0.239   0.702     qc      1         |                
   |                                                          |                
   | No charge augmentation                                   |                
   | No partial core correction                               |                
   ------------------------------------------------------------                
   | "0|0.7|2|6|8|10L(qc=10)"                                 |                
   ------------------------------------------------------------                
   |      Author: Chris J. Pickard, Cambridge University      |                
   ============================================================                

 Pseudo atomic calculation performed for H 1s1

 Converged in 24 iterations to a total energy of -12.4843 eV

 Calculation parallelised over 32 processes.
 Data is distributed by k-point(32-way)

 ************************************ Title ************************************
 

 ***************************** General Parameters ******************************
  
 output verbosity                               : normal  (1)
 write checkpoint data to                       : Cmca4.check
 type of calculation                            : geometry optimization
 stress calculation                             : on
 density difference calculation                 : off
 electron localisation func (ELF) calculation   : off
 Hirshfeld analysis                             : off
 unlimited duration calculation
 timing information                             : on
 memory usage estimate                          : on
 write extra output files                       : on
 write final potential to formatted file        : off
 write final density to formatted file          : off
 write structure in CELL formatted file         : on
 write BibTeX reference list                    : on
 write OTFG pseudopotential files               : on
 write electrostatic potential file             : on
 write bands file                               : on
 checkpoint writing                             : both castep_bin and check files
  
 output         length unit                     : A
 output           mass unit                     : amu
 output           time unit                     : ps
 output         charge unit                     : e
 output           spin unit                     : hbar/2
 output         energy unit                     : eV
 output          force unit                     : eV/A
 output       velocity unit                     : A/ps
 output       pressure unit                     : GPa
 output     inv_length unit                     : 1/A
 output      frequency unit                     : cm-1
 output force constant unit                     : eV/A**2
 output         volume unit                     : A**3
 output   IR intensity unit                     : (D/A)**2/amu
 output         dipole unit                     : D
 output         efield unit                     : eV/A/e
 output        entropy unit                     : J/mol/K
  
 wavefunctions paging                           : none
 random number generator seed                   : randomised (144449459)
 data distribution                              : optimal for this architecture
 optimization strategy                          : maximize speed(+++)

 *********************** Exchange-Correlation Parameters ***********************
  
 using functional                               : Perdew Burke Ernzerhof
 relativistic treatment                         : Koelling-Harmon
 DFT+D: Semi-empirical dispersion correction    : off

 ************************* Pseudopotential Parameters **************************
  
 pseudopotential representation                 : reciprocal space
 <beta|phi> representation                      : reciprocal space
 spin-orbit coupling                            : off

 **************************** Basis Set Parameters *****************************
  
 plane wave basis set cut-off                   :  1200.0000   eV
 size of standard grid                          :     2.0000
 size of   fine   gmax                          :    35.4943   1/A
 finite basis set correction                    : automatic
 number of sample energies                      :          3
           sample  spacing                      :     5.0000   eV

 **************************** Electronic Parameters ****************************
  
 number of  electrons                           :  8.000    
 net charge of system                           :  0.000    
 treating system as non-spin-polarized
 number of bands                                :          4

 ********************* Electronic Minimization Parameters **********************
  
 Method: Treating system as non-metallic,
         and number of  SD  steps               :          1
         and number of  CG  steps               :          4
  
 total energy / atom convergence tol.           : 0.1000E-10   eV
 eigen-energy convergence tolerance             : 0.2000E-10   eV
 max force / atom convergence tol.              : ignored
 convergence tolerance window                   :          3   cycles
 max. number of SCF cycles                      :        100
 periodic dipole correction                     : NONE

 ************************** Density Mixing Parameters **************************
  
 density-mixing scheme                          : Broyden
 max. length of mixing history                  :         20
 charge density mixing amplitude                : 0.8000    
 cut-off energy for mixing                      :  1200.       eV

 *********************** Population Analysis Parameters ************************
  
 Population analysis with cutoff                :  3.000       A
 Population analysis output                     : summary and pdos components

 ********************** Geometry Optimization Parameters ***********************
  
 optimization method                            : LBFGS
 max. no. of LBFGS updates                      : unbounded
 variable cell method                           : fixed basis quality
 max. number of steps                           :         60
 estimated bulk modulus                         :  500.0       GPa
 estimated <frequency>                          :  1668.       cm-1
 geom line minimiser                            : on
 with line minimiser tolerance                  :     0.4000
 total energy convergence tolerance             : 0.1000E-08   eV/atom
        max ionic |force| tolerance             : 0.1000E-04   eV/A
 max ionic |displacement| tolerance             : 0.1000E-04   A
   max |stress component| tolerance             : 0.1000E-04   GPa
 convergence tolerance window                   :          2   steps
 backup results every                           :      14400   seconds
 write geom trajectory file                     : on

 *******************************************************************************
  

                           -------------------------------
                                      Unit Cell
                           -------------------------------
        Real Lattice(A)                      Reciprocal Lattice(1/A)
     1.6252679     0.0000000     0.0000000        3.865938269  -0.000000000   0.000000000
     0.0000000     2.8059382     0.0000000       -0.000000000   2.239245791   0.000000000
     0.0000000     0.0000000     2.5453518        0.000000000   0.000000000   2.468493825

                       Lattice parameters(A)       Cell Angles
                    a =      1.625268          alpha =   90.000000
                    b =      2.805938          beta  =   90.000000
                    c =      2.545352          gamma =   90.000000

                       Current cell volume =            11.607826       A**3
                                   density =             0.694662   AMU/A**3
                                           =             1.153514     g/cm^3

                           -------------------------------
                                     Cell Contents
                           -------------------------------
                         Total number of ions in cell =    8
                      Total number of species in cell =    1
                        Max number of any one species =    8

            xxxxxxxxxxxxxxxxxxxxxxxxxxxxxxxxxxxxxxxxxxxxxxxxxxxxxxxxxxxx
            x  Element    Atom        Fractional coordinates of atoms  x
            x            Number           u          v          w      x
            x----------------------------------------------------------x
            x  H            1         0.000000   0.373052   0.439542   x 
            x  H            2        -0.000000   0.126948   0.939542   x 
            x  H            3         0.000000   0.873052   0.060458   x 
            x  H            4        -0.000000   0.626948   0.560458   x 
            x  H            5         0.500000   0.873052   0.439542   x 
            x  H            6         0.500000   0.626948   0.939542   x 
            x  H            7         0.500000   0.373052   0.060458   x 
            x  H            8         0.500000   0.126948   0.560458   x 
            xxxxxxxxxxxxxxxxxxxxxxxxxxxxxxxxxxxxxxxxxxxxxxxxxxxxxxxxxxxx


                         No user defined ionic velocities

                           -------------------------------
                                   Details of Species
                           -------------------------------

                               Mass of species in AMU
                                    H    1.0079400

                          Electric Quadrupole Moment (Barn)
                                    H    0.0028600 Isotope  2

                          Files used for pseudopotentials:
                                    H 0|0.7|2|6|8|10L(qc=10)

                           -------------------------------
                              k-Points For BZ Sampling
                           -------------------------------
                       MP grid size for SCF calculation is 11 11 11
                            with an offset of   0.000  0.000  0.000
                       Number of kpoints used =           216

                           -------------------------------
                               Symmetry and Constraints
                           -------------------------------

                      Cell is a supercell containing 2 primitive cells
                      Maximum deviation from symmetry = 0.311522E-15     ANG

                      Number of symmetry operations   =          16
                      Number of ionic constraints     =           3
                      Point group of crystal =     8: D2h, mmm, 2/m 2/m 2/m
                      Space group of crystal =    64: Cmce, -C 2bc 2

             Set iprint > 1 for details on symmetry rotations/translations

                         Centre of mass is constrained
             Set iprint > 1 for details of linear ionic constraints

                         Number of cell constraints= 3
                         Cell constraints are:  1 2 3 0 0 0

                         External pressure/stress (GPa)
                        290.00000   0.00000   0.00000
                                  290.00000   0.00000
                                            290.00000
  
+---------------- MEMORY AND SCRATCH DISK ESTIMATES PER PROCESS --------------+
|                                                     Memory          Disk    |
| Baseline code, static data and system overhead      478.0 MB         0.0 MB |
| BLAS internal memory storage                          0.0 MB         0.0 MB |
| Model and support data                               11.4 MB         0.0 MB |
| Electronic energy minimisation requirements           5.1 MB         0.0 MB |
| Force calculation requirements                        2.2 MB         0.0 MB |
| Stress calculation requirements                       2.8 MB         0.0 MB |
|                                               ----------------------------- |
| Approx. total storage required per process          494.6 MB         0.0 MB |
|                                                                             |
| Requirements will fluctuate during execution and may exceed these estimates |
+-----------------------------------------------------------------------------+
Calculating finite basis set correction with  3 cut-off energies.
Calculating total energy with cut-off of 1190.000 eV.
------------------------------------------------------------------------ <-- SCF
SCF loop      Energy                           Energy gain       Timer   <-- SCF
                                               per atom          (sec)   <-- SCF
------------------------------------------------------------------------ <-- SCF
Initial   1.73790458E+002                                          3.05  <-- SCF
      1  -1.00619111E+002                    3.43011962E+001       3.31  <-- SCF
      2  -1.13530395E+002                    1.61391053E+000       3.51  <-- SCF
      3  -1.13474833E+002                   -6.94524830E-003       3.85  <-- SCF
      4  -1.13474032E+002                   -1.00192817E-004       4.20  <-- SCF
      5  -1.13474116E+002                    1.05770870E-005       4.53  <-- SCF
      6  -1.13474123E+002                    7.99191555E-007       4.88  <-- SCF
      7  -1.13474123E+002                    1.51853818E-009       5.22  <-- SCF
      8  -1.13474123E+002                    6.52128328E-011       5.51  <-- SCF
      9  -1.13474123E+002                    1.56491464E-012       5.78  <-- SCF
     10  -1.13474123E+002                   -4.53160609E-014       6.05  <-- SCF
------------------------------------------------------------------------ <-- SCF
 
Final energy =  -113.4741228520     eV
(energy not corrected for finite basis set)
 
Calculating total energy with cut-off of 1195.000 eV.
------------------------------------------------------------------------ <-- SCF
SCF loop      Energy                           Energy gain       Timer   <-- SCF
                                               per atom          (sec)   <-- SCF
------------------------------------------------------------------------ <-- SCF
Initial  -1.13474123E+002                                          6.30  <-- SCF
      1  -1.13474810E+002                    8.58898753E-005       6.52  <-- SCF
      2  -1.13474810E+002                    1.84418242E-010       6.86  <-- SCF
      3  -1.13474810E+002                    2.55039456E-008       7.21  <-- SCF
      4  -1.13474810E+002                    1.11266035E-009       7.55  <-- SCF
      5  -1.13474810E+002                    4.15397225E-012       7.83  <-- SCF
      6  -1.13474810E+002                    5.67961297E-013       8.11  <-- SCF
------------------------------------------------------------------------ <-- SCF
 
Final energy =  -113.4748101854     eV
(energy not corrected for finite basis set)
 
Calculating total energy with cut-off of 1200.000 eV.
------------------------------------------------------------------------ <-- SCF
SCF loop      Energy                           Energy gain       Timer   <-- SCF
                                               per atom          (sec)   <-- SCF
------------------------------------------------------------------------ <-- SCF
Initial  -1.13474810E+002                                          8.36  <-- SCF
      1  -1.13475486E+002                    8.45270852E-005       8.57  <-- SCF
      2  -1.13475486E+002                    1.61974707E-010       8.92  <-- SCF
      3  -1.13475487E+002                    2.50737813E-008       9.27  <-- SCF
      4  -1.13475487E+002                    1.14019741E-009       9.61  <-- SCF
      5  -1.13475487E+002                    4.12074048E-012       9.89  <-- SCF
      6  -1.13475487E+002                    3.32317780E-014      10.17  <-- SCF
------------------------------------------------------------------------ <-- SCF
 
Final energy =  -113.4754866132     eV
(energy not corrected for finite basis set)
 
 For future reference: finite basis dEtot/dlog(Ecut) =      -0.163720eV
 Total energy corrected for finite basis set =    -113.475494 eV
 
+---------------- MEMORY AND SCRATCH DISK ESTIMATES PER PROCESS --------------+
|                                                     Memory          Disk    |
| Model and support data                               21.5 MB         0.0 MB |
| Electronic energy minimisation requirements           5.1 MB         0.0 MB |
| Geometry minimisation requirements                    6.2 MB         0.0 MB |
|                                               ----------------------------- |
| Approx. total storage required per process           32.9 MB         0.0 MB |
|                                                                             |
| Requirements will fluctuate during execution and may exceed these estimates |
+-----------------------------------------------------------------------------+
 

 ******************************** Symmetrised Forces ********************************
 *                                                                                  *
 *                           Cartesian components (eV/A)                            *
 * -------------------------------------------------------------------------------- *
 *                         x                    y                    z              *
 *                                                                                  *
 * H               1     -0.00000              0.00000              0.00000         *
 * H               2      0.00000             -0.00000              0.00000         *
 * H               3      0.00000              0.00000             -0.00000         *
 * H               4      0.00000             -0.00000             -0.00000         *
 * H               5     -0.00000              0.00000              0.00000         *
 * H               6      0.00000             -0.00000              0.00000         *
 * H               7      0.00000              0.00000             -0.00000         *
 * H               8      0.00000             -0.00000             -0.00000         *
 *                                                                                  *
 ************************************************************************************

 *********** Symmetrised Stress Tensor ***********
 *                                               *
 *          Cartesian components (GPa)           *
 * --------------------------------------------- *
 *             x             y             z     *
 *                                               *
 *  x   -299.984639      0.000000      0.000000  *
 *  y      0.000000   -299.984625      0.000000  *
 *  z      0.000000      0.000000   -299.984625  *
 *                                               *
 *  Pressure:  299.9846                          *
 *                                               *
 *************************************************
 LBFGS: finished iteration     0 with enthalpy= -9.24648921E+001 eV
  
 +-----------+-----------------+-----------------+------------+-----+ <-- LBFGS
 | Parameter |      value      |    tolerance    |    units   | OK? | <-- LBFGS
 +-----------+-----------------+-----------------+------------+-----+ <-- LBFGS
 |  dE/ion   |   0.000000E+000 |   1.000000E-009 |         eV | No  | <-- LBFGS
 |  |F|max   |   1.416513E-007 |   1.000000E-005 |       eV/A | Yes | <-- LBFGS
 |  |dR|max  |   0.000000E+000 |   1.000000E-005 |          A | No  | <-- LBFGS
 |   Smax    |   9.984639E+000 |   1.000000E-005 |        GPa | No  | <-- LBFGS
 +-----------+-----------------+-----------------+------------+-----+ <-- LBFGS
  

================================================================================
 Starting LBFGS iteration          1 ...
================================================================================
  
 +------------+-------------+-------------+-----------------+ <-- min LBFGS
 |    Step    |   lambda    |   F.delta'  |    enthalpy     | <-- min LBFGS
 +------------+-------------+-------------+-----------------+ <-- min LBFGS
 |  previous  |    0.000000 |    0.046045 |      -92.464892 | <-- min LBFGS
 +------------+-------------+-------------+-----------------+ <-- min LBFGS
  

--------------------------------------------------------------------------------
 LBFGS: starting iteration         1 with trial guess (lambda=  1.000000)
--------------------------------------------------------------------------------
 
+---------------- MEMORY AND SCRATCH DISK ESTIMATES PER PROCESS --------------+
|                                                     Memory          Disk    |
| Model and support data                               21.6 MB         0.0 MB |
| Electronic energy minimisation requirements           5.2 MB         0.0 MB |
| Geometry minimisation requirements                    6.3 MB         0.0 MB |
|                                               ----------------------------- |
| Approx. total storage required per process           33.1 MB         0.0 MB |
|                                                                             |
| Requirements will fluctuate during execution and may exceed these estimates |
+-----------------------------------------------------------------------------+
 

                           -------------------------------
                                      Unit Cell
                           -------------------------------
        Real Lattice(A)              Reciprocal Lattice(1/A)
     1.6360864     0.0000000     0.0000000        3.840375096  -0.000000000   0.000000000
     0.0000000     2.8246157     0.0000000       -0.000000000   2.224438998   0.000000000
     0.0000000     0.0000000     2.5622948        0.000000000   0.000000000   2.452171152

                       Lattice parameters(A)       Cell Angles
                    a =      1.636086          alpha =   90.000000
                    b =      2.824616          beta  =   90.000000
                    c =      2.562295          gamma =   90.000000

                Current cell volume =            11.841172 A**3

                           -------------------------------
                                     Cell Contents
                           -------------------------------

            xxxxxxxxxxxxxxxxxxxxxxxxxxxxxxxxxxxxxxxxxxxxxxxxxxxxxxxxxxxxxxxxx
            x  Element         Atom        Fractional coordinates of atoms  x
            x                 Number           u          v          w      x
            x---------------------------------------------------------------x
            x  H                 1         0.000000   0.373052   0.439542   x
            x  H                 2         0.000000   0.126948   0.939542   x
            x  H                 3         0.000000   0.873052   0.060458   x
            x  H                 4        -0.000000   0.626948   0.560458   x
            x  H                 5         0.500000   0.873052   0.439542   x
            x  H                 6         0.500000   0.626948   0.939542   x
            x  H                 7         0.500000   0.373052   0.060458   x
            x  H                 8         0.500000   0.126948   0.560458   x
            xxxxxxxxxxxxxxxxxxxxxxxxxxxxxxxxxxxxxxxxxxxxxxxxxxxxxxxxxxxxxxxxx


------------------------------------------------------------------------ <-- SCF
SCF loop      Energy                           Energy gain       Timer   <-- SCF
                                               per atom          (sec)   <-- SCF
------------------------------------------------------------------------ <-- SCF
Initial  -1.13896563E+002                                         10.85  <-- SCF
      1  -1.13900701E+002                    5.17183273E-004      11.07  <-- SCF
      2  -1.13900712E+002                    1.42296611E-006      11.42  <-- SCF
      3  -1.13900727E+002                    1.83545897E-006      11.77  <-- SCF
      4  -1.13900728E+002                    1.91117560E-007      12.12  <-- SCF
      5  -1.13900728E+002                    1.99597007E-009      12.47  <-- SCF
      6  -1.13900728E+002                    1.75886738E-010      12.74  <-- SCF
      7  -1.13900728E+002                    1.00601655E-012      13.01  <-- SCF
      8  -1.13900728E+002                   -2.29601375E-013      13.28  <-- SCF
------------------------------------------------------------------------ <-- SCF
 
Final energy =  -113.9007282486     eV
(energy not corrected for finite basis set)
 

 ******************************** Symmetrised Forces ********************************
 *                                                                                  *
 *                           Cartesian components (eV/A)                            *
 * -------------------------------------------------------------------------------- *
 *                         x                    y                    z              *
 *                                                                                  *
 * H               1     -0.00000              0.07478              0.03857         *
 * H               2      0.00000             -0.07478              0.03857         *
 * H               3      0.00000              0.07478             -0.03857         *
 * H               4      0.00000             -0.07478             -0.03857         *
 * H               5     -0.00000              0.07478              0.03857         *
 * H               6      0.00000             -0.07478              0.03857         *
 * H               7     -0.00000              0.07478             -0.03857         *
 * H               8      0.00000             -0.07478             -0.03857         *
 *                                                                                  *
 ************************************************************************************

 *********** Symmetrised Stress Tensor ***********
 *                                               *
 *          Cartesian components (GPa)           *
 * --------------------------------------------- *
 *             x             y             z     *
 *                                               *
 *  x   -285.343054      0.000000      0.000000  *
 *  y      0.000000   -282.197737      0.000000  *
 *  z      0.000000      0.000000   -285.337030  *
 *                                               *
 *  Pressure:  284.2926                          *
 *                                               *
 *************************************************
  
 +------------+-------------+-------------+-----------------+ <-- min LBFGS
 |    Step    |   lambda    |   F.delta'  |    enthalpy     | <-- min LBFGS
 +------------+-------------+-------------+-----------------+ <-- min LBFGS
 |  previous  |    0.000000 |    0.046045 |      -92.464892 | <-- min LBFGS
 | trial step |    1.000000 |   -0.026672 |      -92.467757 | <-- min LBFGS
 +------------+-------------+-------------+-----------------+ <-- min LBFGS
  
 LBFGS: finished iteration     1 with enthalpy= -9.24677568E+001 eV
  
 +-----------+-----------------+-----------------+------------+-----+ <-- LBFGS
 | Parameter |      value      |    tolerance    |    units   | OK? | <-- LBFGS
 +-----------+-----------------+-----------------+------------+-----+ <-- LBFGS
 |  dE/ion   |   3.580866E-004 |   1.000000E-009 |         eV | No  | <-- LBFGS
 |  |F|max   |   8.413937E-002 |   1.000000E-005 |       eV/A | No  | <-- LBFGS
 |  |dR|max  |   1.383021E-008 |   1.000000E-005 |          A | Yes | <-- LBFGS
 |   Smax    |   7.802263E+000 |   1.000000E-005 |        GPa | No  | <-- LBFGS
 +-----------+-----------------+-----------------+------------+-----+ <-- LBFGS
  

================================================================================
 Starting LBFGS iteration          2 ...
================================================================================
  
 +------------+-------------+-------------+-----------------+ <-- min LBFGS
 |    Step    |   lambda    |   F.delta'  |    enthalpy     | <-- min LBFGS
 +------------+-------------+-------------+-----------------+ <-- min LBFGS
 |  previous  |    0.000000 |    0.033536 |      -92.467757 | <-- min LBFGS
 +------------+-------------+-------------+-----------------+ <-- min LBFGS
  

--------------------------------------------------------------------------------
 LBFGS: starting iteration         2 with trial guess (lambda=  1.000000)
--------------------------------------------------------------------------------

                           -------------------------------
                                      Unit Cell
                           -------------------------------
        Real Lattice(A)              Reciprocal Lattice(1/A)
     1.6346181     0.0000000     0.0000000        3.843824543  -0.000000000   0.000000000
     0.0000000     2.8183055     0.0000000       -0.000000000   2.229419535   0.000000000
     0.0000000     0.0000000     2.5599888        0.000000000   0.000000000   2.454380000

                       Lattice parameters(A)       Cell Angles
                    a =      1.634618          alpha =   90.000000
                    b =      2.818305          beta  =   90.000000
                    c =      2.559989          gamma =   90.000000

                Current cell volume =            11.793493 A**3

                           -------------------------------
                                     Cell Contents
                           -------------------------------

            xxxxxxxxxxxxxxxxxxxxxxxxxxxxxxxxxxxxxxxxxxxxxxxxxxxxxxxxxxxxxxxxx
            x  Element         Atom        Fractional coordinates of atoms  x
            x                 Number           u          v          w      x
            x---------------------------------------------------------------x
            x  H                 1         0.000000   0.374700   0.440479   x
            x  H                 2         0.000000   0.125300   0.940479   x
            x  H                 3         0.000000   0.874700   0.059521   x
            x  H                 4        -0.000000   0.625300   0.559521   x
            x  H                 5         0.500000   0.874700   0.440479   x
            x  H                 6         0.500000   0.625300   0.940479   x
            x  H                 7         0.500000   0.374700   0.059521   x
            x  H                 8         0.500000   0.125300   0.559521   x
            xxxxxxxxxxxxxxxxxxxxxxxxxxxxxxxxxxxxxxxxxxxxxxxxxxxxxxxxxxxxxxxxx


------------------------------------------------------------------------ <-- SCF
SCF loop      Energy                           Energy gain       Timer   <-- SCF
                                               per atom          (sec)   <-- SCF
------------------------------------------------------------------------ <-- SCF
Initial  -1.13794042E+002                                         13.92  <-- SCF
      1  -1.13815387E+002                    2.66805246E-003      14.15  <-- SCF
      2  -1.13815445E+002                    7.35557889E-006      14.49  <-- SCF
      3  -1.13814491E+002                   -1.19355392E-004      14.83  <-- SCF
      4  -1.13814442E+002                   -6.07159639E-006      15.17  <-- SCF
      5  -1.13814442E+002                    7.65948678E-009      15.75  <-- SCF
      6  -1.13814442E+002                    4.52278457E-010      16.07  <-- SCF
      7  -1.13814442E+002                    1.59512535E-012      16.33  <-- SCF
      8  -1.13814442E+002                    3.62528488E-014      16.59  <-- SCF
------------------------------------------------------------------------ <-- SCF
 
Final energy =  -113.8144420968     eV
(energy not corrected for finite basis set)
 

 ******************************** Symmetrised Forces ********************************
 *                                                                                  *
 *                           Cartesian components (eV/A)                            *
 * -------------------------------------------------------------------------------- *
 *                         x                    y                    z              *
 *                                                                                  *
 * H               1      0.00000             -0.11662             -0.05008         *
 * H               2     -0.00000              0.11662             -0.05008         *
 * H               3     -0.00000             -0.11662              0.05008         *
 * H               4     -0.00000              0.11662              0.05008         *
 * H               5      0.00000             -0.11662             -0.05008         *
 * H               6     -0.00000              0.11662             -0.05008         *
 * H               7     -0.00000             -0.11662              0.05008         *
 * H               8     -0.00000              0.11662              0.05008         *
 *                                                                                  *
 ************************************************************************************

 *********** Symmetrised Stress Tensor ***********
 *                                               *
 *          Cartesian components (GPa)           *
 * --------------------------------------------- *
 *             x             y             z     *
 *                                               *
 *  x   -288.582505      0.000000      0.000000  *
 *  y      0.000000   -292.637625      0.000000  *
 *  z      0.000000      0.000000   -288.947651  *
 *                                               *
 *  Pressure:  290.0559                          *
 *                                               *
 *************************************************
  
 +------------+-------------+-------------+-----------------+ <-- min LBFGS
 |    Step    |   lambda    |   F.delta'  |    enthalpy     | <-- min LBFGS
 +------------+-------------+-------------+-----------------+ <-- min LBFGS
 |  previous  |    0.000000 |    0.033536 |      -92.467757 | <-- min LBFGS
 | trial step |    1.000000 |   -0.034352 |      -92.467781 | <-- min LBFGS
 +------------+-------------+-------------+-----------------+ <-- min LBFGS
  

--------------------------------------------------------------------------------
 LBFGS: improving iteration         2 with line minimization (lambda=  0.493989)
--------------------------------------------------------------------------------

                           -------------------------------
                                      Unit Cell
                           -------------------------------
        Real Lattice(A)              Reciprocal Lattice(1/A)
     1.6353611     0.0000000     0.0000000        3.842078310  -0.000000000   0.000000000
     0.0000000     2.8214985     0.0000000       -0.000000000   2.226896544   0.000000000
     0.0000000     0.0000000     2.5611556        0.000000000   0.000000000   2.453261801

                       Lattice parameters(A)       Cell Angles
                    a =      1.635361          alpha =   90.000000
                    b =      2.821499          beta  =   90.000000
                    c =      2.561156          gamma =   90.000000

                Current cell volume =            11.817605 A**3

                           -------------------------------
                                     Cell Contents
                           -------------------------------

            xxxxxxxxxxxxxxxxxxxxxxxxxxxxxxxxxxxxxxxxxxxxxxxxxxxxxxxxxxxxxxxxx
            x  Element         Atom        Fractional coordinates of atoms  x
            x                 Number           u          v          w      x
            x---------------------------------------------------------------x
            x  H                 1         0.000000   0.373866   0.440005   x
            x  H                 2         0.000000   0.126134   0.940005   x
            x  H                 3         0.000000   0.873866   0.059995   x
            x  H                 4        -0.000000   0.626134   0.559995   x
            x  H                 5         0.500000   0.873866   0.440005   x
            x  H                 6         0.500000   0.626134   0.940005   x
            x  H                 7         0.500000   0.373866   0.059995   x
            x  H                 8         0.500000   0.126134   0.559995   x
            xxxxxxxxxxxxxxxxxxxxxxxxxxxxxxxxxxxxxxxxxxxxxxxxxxxxxxxxxxxxxxxxx


------------------------------------------------------------------------ <-- SCF
SCF loop      Energy                           Energy gain       Timer   <-- SCF
                                               per atom          (sec)   <-- SCF
------------------------------------------------------------------------ <-- SCF
Initial  -1.13853989E+002                                         17.22  <-- SCF
      1  -1.13859706E+002                    7.14621854E-004      17.45  <-- SCF
      2  -1.13859723E+002                    2.15581066E-006      17.80  <-- SCF
      3  -1.13859476E+002                   -3.08938795E-005      18.15  <-- SCF
      4  -1.13859463E+002                   -1.56504291E-006      18.50  <-- SCF
      5  -1.13859463E+002                    1.92614407E-009      18.85  <-- SCF
      6  -1.13859463E+002                    1.11353646E-010      19.13  <-- SCF
      7  -1.13859463E+002                    5.61919156E-013      19.40  <-- SCF
      8  -1.13859463E+002                    1.60116749E-013      19.67  <-- SCF
------------------------------------------------------------------------ <-- SCF
 
Final energy =  -113.8594633643     eV
(energy not corrected for finite basis set)
 

 ******************************** Symmetrised Forces ********************************
 *                                                                                  *
 *                           Cartesian components (eV/A)                            *
 * -------------------------------------------------------------------------------- *
 *                         x                    y                    z              *
 *                                                                                  *
 * H               1      0.00000             -0.01725             -0.00415         *
 * H               2      0.00000              0.01725             -0.00415         *
 * H               3      0.00000             -0.01725              0.00415         *
 * H               4      0.00000              0.01725              0.00415         *
 * H               5      0.00000             -0.01725             -0.00415         *
 * H               6      0.00000              0.01725             -0.00415         *
 * H               7      0.00000             -0.01725              0.00415         *
 * H               8      0.00000              0.01725              0.00415         *
 *                                                                                  *
 ************************************************************************************

 *********** Symmetrised Stress Tensor ***********
 *                                               *
 *          Cartesian components (GPa)           *
 * --------------------------------------------- *
 *             x             y             z     *
 *                                               *
 *  x   -286.929245      0.000000      0.000000  *
 *  y      0.000000   -287.292347      0.000000  *
 *  z      0.000000      0.000000   -287.100599  *
 *                                               *
 *  Pressure:  287.1074                          *
 *                                               *
 *************************************************
  
 +------------+-------------+-------------+-----------------+ <-- min LBFGS
 |    Step    |   lambda    |   F.delta'  |    enthalpy     | <-- min LBFGS
 +------------+-------------+-------------+-----------------+ <-- min LBFGS
 |  previous  |    0.000000 |    0.033536 |      -92.467757 | <-- min LBFGS
 | trial step |    1.000000 |   -0.034352 |      -92.467781 | <-- min LBFGS
 |  line step |    0.493989 |    0.000749 |      -92.469158 | <-- min LBFGS
 +------------+-------------+-------------+-----------------+ <-- min LBFGS
  
 LBFGS: finished iteration     2 with enthalpy= -9.24691576E+001 eV
  
 +-----------+-----------------+-----------------+------------+-----+ <-- LBFGS
 | Parameter |      value      |    tolerance    |    units   | OK? | <-- LBFGS
 +-----------+-----------------+-----------------+------------+-----+ <-- LBFGS
 |  dE/ion   |   1.751033E-004 |   1.000000E-009 |         eV | No  | <-- LBFGS
 |  |F|max   |   1.774116E-002 |   1.000000E-005 |       eV/A | No  | <-- LBFGS
 |  |dR|max  |   2.584254E-003 |   1.000000E-005 |          A | No  | <-- LBFGS
 |   Smax    |   3.070755E+000 |   1.000000E-005 |        GPa | No  | <-- LBFGS
 +-----------+-----------------+-----------------+------------+-----+ <-- LBFGS
  

================================================================================
 Starting LBFGS iteration          3 ...
================================================================================
  
 +------------+-------------+-------------+-----------------+ <-- min LBFGS
 |    Step    |   lambda    |   F.delta'  |    enthalpy     | <-- min LBFGS
 +------------+-------------+-------------+-----------------+ <-- min LBFGS
 |  previous  |    0.000000 |    0.014463 |      -92.469158 | <-- min LBFGS
 +------------+-------------+-------------+-----------------+ <-- min LBFGS
  

--------------------------------------------------------------------------------
 LBFGS: starting iteration         3 with trial guess (lambda=  1.000000)
--------------------------------------------------------------------------------

                           -------------------------------
                                      Unit Cell
                           -------------------------------
        Real Lattice(A)              Reciprocal Lattice(1/A)
     1.6313363     0.0000000     0.0000000        3.851557325  -0.000000000   0.000000000
     0.0000000     2.8152107     0.0000000       -0.000000000   2.231870353   0.000000000
     0.0000000     0.0000000     2.5551533        0.000000000   0.000000000   2.459024829

                       Lattice parameters(A)       Cell Angles
                    a =      1.631336          alpha =   90.000000
                    b =      2.815211          beta  =   90.000000
                    c =      2.555153          gamma =   90.000000

                Current cell volume =            11.734683 A**3

                           -------------------------------
                                     Cell Contents
                           -------------------------------

            xxxxxxxxxxxxxxxxxxxxxxxxxxxxxxxxxxxxxxxxxxxxxxxxxxxxxxxxxxxxxxxxx
            x  Element         Atom        Fractional coordinates of atoms  x
            x                 Number           u          v          w      x
            x---------------------------------------------------------------x
            x  H                 1         0.000000   0.373270   0.439852   x
            x  H                 2         0.000000   0.126730   0.939852   x
            x  H                 3         0.000000   0.873270   0.060148   x
            x  H                 4        -0.000000   0.626730   0.560148   x
            x  H                 5         0.500000   0.873270   0.439852   x
            x  H                 6         0.500000   0.626730   0.939852   x
            x  H                 7         0.500000   0.373270   0.060148   x
            x  H                 8         0.500000   0.126730   0.560148   x
            xxxxxxxxxxxxxxxxxxxxxxxxxxxxxxxxxxxxxxxxxxxxxxxxxxxxxxxxxxxxxxxxx


------------------------------------------------------------------------ <-- SCF
SCF loop      Energy                           Energy gain       Timer   <-- SCF
                                               per atom          (sec)   <-- SCF
------------------------------------------------------------------------ <-- SCF
Initial  -1.13706791E+002                                         20.32  <-- SCF
      1  -1.13709887E+002                    3.86972157E-004      20.55  <-- SCF
      2  -1.13709895E+002                    1.08189994E-006      20.91  <-- SCF
      3  -1.13709742E+002                   -1.91682223E-005      21.26  <-- SCF
      4  -1.13709734E+002                   -9.87454572E-007      21.61  <-- SCF
      5  -1.13709734E+002                    1.43965198E-009      21.96  <-- SCF
      6  -1.13709734E+002                    9.13148839E-011      22.23  <-- SCF
      7  -1.13709734E+002                    9.42574068E-013      22.50  <-- SCF
      8  -1.13709734E+002                    4.35034185E-013      22.77  <-- SCF
------------------------------------------------------------------------ <-- SCF
 
Final energy =  -113.7097339910     eV
(energy not corrected for finite basis set)
 

 ******************************** Symmetrised Forces ********************************
 *                                                                                  *
 *                           Cartesian components (eV/A)                            *
 * -------------------------------------------------------------------------------- *
 *                         x                    y                    z              *
 *                                                                                  *
 * H               1      0.00000              0.01129              0.00608         *
 * H               2      0.00000             -0.01129              0.00608         *
 * H               3      0.00000              0.01129             -0.00608         *
 * H               4      0.00000             -0.01129             -0.00608         *
 * H               5      0.00000              0.01129              0.00608         *
 * H               6      0.00000             -0.01129              0.00608         *
 * H               7      0.00000              0.01129             -0.00608         *
 * H               8      0.00000             -0.01129             -0.00608         *
 *                                                                                  *
 ************************************************************************************

 *********** Symmetrised Stress Tensor ***********
 *                                               *
 *          Cartesian components (GPa)           *
 * --------------------------------------------- *
 *             x             y             z     *
 *                                               *
 *  x   -291.942671      0.000000      0.000000  *
 *  y      0.000000   -291.599227      0.000000  *
 *  z      0.000000      0.000000   -291.869545  *
 *                                               *
 *  Pressure:  291.8038                          *
 *                                               *
 *************************************************
  
 +------------+-------------+-------------+-----------------+ <-- min LBFGS
 |    Step    |   lambda    |   F.delta'  |    enthalpy     | <-- min LBFGS
 +------------+-------------+-------------+-----------------+ <-- min LBFGS
 |  previous  |    0.000000 |    0.014463 |      -92.469158 | <-- min LBFGS
 | trial step |    1.000000 |   -0.009138 |      -92.469501 | <-- min LBFGS
 +------------+-------------+-------------+-----------------+ <-- min LBFGS
  
 LBFGS: finished iteration     3 with enthalpy= -9.24695010E+001 eV
  
 +-----------+-----------------+-----------------+------------+-----+ <-- LBFGS
 | Parameter |      value      |    tolerance    |    units   | OK? | <-- LBFGS
 +-----------+-----------------+-----------------+------------+-----+ <-- LBFGS
 |  dE/ion   |   4.292188E-005 |   1.000000E-009 |         eV | No  | <-- LBFGS
 |  |F|max   |   1.282032E-002 |   1.000000E-005 |       eV/A | No  | <-- LBFGS
 |  |dR|max  |   1.723771E-003 |   1.000000E-005 |          A | No  | <-- LBFGS
 |   Smax    |   1.942671E+000 |   1.000000E-005 |        GPa | No  | <-- LBFGS
 +-----------+-----------------+-----------------+------------+-----+ <-- LBFGS
  

================================================================================
 Starting LBFGS iteration          4 ...
================================================================================
  
 +------------+-------------+-------------+-----------------+ <-- min LBFGS
 |    Step    |   lambda    |   F.delta'  |    enthalpy     | <-- min LBFGS
 +------------+-------------+-------------+-----------------+ <-- min LBFGS
 |  previous  |    0.000000 |    0.009167 |      -92.469501 | <-- min LBFGS
 +------------+-------------+-------------+-----------------+ <-- min LBFGS
  

--------------------------------------------------------------------------------
 LBFGS: starting iteration         4 with trial guess (lambda=  1.000000)
--------------------------------------------------------------------------------

                           -------------------------------
                                      Unit Cell
                           -------------------------------
        Real Lattice(A)              Reciprocal Lattice(1/A)
     1.6328960     0.0000000     0.0000000        3.847878378  -0.000000000   0.000000000
     0.0000000     2.8175676     0.0000000       -0.000000000   2.230003392   0.000000000
     0.0000000     0.0000000     2.5575205        0.000000000   0.000000000   2.456748785

                       Lattice parameters(A)       Cell Angles
                    a =      1.632896          alpha =   90.000000
                    b =      2.817568          beta  =   90.000000
                    c =      2.557520          gamma =   90.000000

                Current cell volume =            11.766627 A**3

                           -------------------------------
                                     Cell Contents
                           -------------------------------

            xxxxxxxxxxxxxxxxxxxxxxxxxxxxxxxxxxxxxxxxxxxxxxxxxxxxxxxxxxxxxxxxx
            x  Element         Atom        Fractional coordinates of atoms  x
            x                 Number           u          v          w      x
            x---------------------------------------------------------------x
            x  H                 1         0.000000   0.373482   0.439979   x
            x  H                 2         0.000000   0.126518   0.939979   x
            x  H                 3         0.000000   0.873482   0.060021   x
            x  H                 4        -0.000000   0.626518   0.560021   x
            x  H                 5         0.500000   0.873482   0.439979   x
            x  H                 6         0.500000   0.626518   0.939979   x
            x  H                 7         0.500000   0.373482   0.060021   x
            x  H                 8         0.500000   0.126518   0.560021   x
            xxxxxxxxxxxxxxxxxxxxxxxxxxxxxxxxxxxxxxxxxxxxxxxxxxxxxxxxxxxxxxxxx


------------------------------------------------------------------------ <-- SCF
SCF loop      Energy                           Energy gain       Timer   <-- SCF
                                               per atom          (sec)   <-- SCF
------------------------------------------------------------------------ <-- SCF
Initial  -1.13767019E+002                                         23.43  <-- SCF
      1  -1.13767764E+002                    9.30880490E-005      23.65  <-- SCF
      2  -1.13767766E+002                    2.81126090E-007      23.99  <-- SCF
      3  -1.13767744E+002                   -2.80889739E-006      24.34  <-- SCF
      4  -1.13767742E+002                   -1.44905138E-007      24.68  <-- SCF
      5  -1.13767742E+002                    2.31036384E-010      24.99  <-- SCF
      6  -1.13767742E+002                    1.52987022E-011      25.26  <-- SCF
      7  -1.13767742E+002                    4.56181680E-013      25.52  <-- SCF
      8  -1.13767742E+002                   -1.99390668E-013      25.79  <-- SCF
------------------------------------------------------------------------ <-- SCF
 
Final energy =  -113.7677424024     eV
(energy not corrected for finite basis set)
 

 ******************************** Symmetrised Forces ********************************
 *                                                                                  *
 *                           Cartesian components (eV/A)                            *
 * -------------------------------------------------------------------------------- *
 *                         x                    y                    z              *
 *                                                                                  *
 * H               1      0.00000             -0.00052              0.00118         *
 * H               2     -0.00000              0.00052              0.00118         *
 * H               3     -0.00000             -0.00052             -0.00118         *
 * H               4      0.00000              0.00052             -0.00118         *
 * H               5      0.00000             -0.00052              0.00118         *
 * H               6     -0.00000              0.00052              0.00118         *
 * H               7     -0.00000             -0.00052             -0.00118         *
 * H               8      0.00000              0.00052             -0.00118         *
 *                                                                                  *
 ************************************************************************************

 *********** Symmetrised Stress Tensor ***********
 *                                               *
 *          Cartesian components (GPa)           *
 * --------------------------------------------- *
 *             x             y             z     *
 *                                               *
 *  x   -289.998511      0.000000      0.000000  *
 *  y      0.000000   -289.996884      0.000000  *
 *  z      0.000000      0.000000   -290.004698  *
 *                                               *
 *  Pressure:  290.0000                          *
 *                                               *
 *************************************************
  
 +------------+-------------+-------------+-----------------+ <-- min LBFGS
 |    Step    |   lambda    |   F.delta'  |    enthalpy     | <-- min LBFGS
 +------------+-------------+-------------+-----------------+ <-- min LBFGS
 |  previous  |    0.000000 |    0.009167 |      -92.469501 | <-- min LBFGS
 | trial step |    1.000000 |    0.000012 |      -92.469707 | <-- min LBFGS
 +------------+-------------+-------------+-----------------+ <-- min LBFGS
  
 LBFGS: finished iteration     4 with enthalpy= -9.24697066E+001 eV
  
 +-----------+-----------------+-----------------+------------+-----+ <-- LBFGS
 | Parameter |      value      |    tolerance    |    units   | OK? | <-- LBFGS
 +-----------+-----------------+-----------------+------------+-----+ <-- LBFGS
 |  dE/ion   |   2.570269E-005 |   1.000000E-009 |         eV | No  | <-- LBFGS
 |  |F|max   |   1.289390E-003 |   1.000000E-005 |       eV/A | No  | <-- LBFGS
 |  |dR|max  |   6.819899E-004 |   1.000000E-005 |          A | No  | <-- LBFGS
 |   Smax    |   4.697749E-003 |   1.000000E-005 |        GPa | No  | <-- LBFGS
 +-----------+-----------------+-----------------+------------+-----+ <-- LBFGS
  

================================================================================
 Starting LBFGS iteration          5 ...
================================================================================
  
 +------------+-------------+-------------+-----------------+ <-- min LBFGS
 |    Step    |   lambda    |   F.delta'  |    enthalpy     | <-- min LBFGS
 +------------+-------------+-------------+-----------------+ <-- min LBFGS
 |  previous  |    0.000000 |    0.000348 |      -92.469707 | <-- min LBFGS
 +------------+-------------+-------------+-----------------+ <-- min LBFGS
  

--------------------------------------------------------------------------------
 LBFGS: starting iteration         5 with trial guess (lambda=  1.000000)
--------------------------------------------------------------------------------

                           -------------------------------
                                      Unit Cell
                           -------------------------------
        Real Lattice(A)              Reciprocal Lattice(1/A)
     1.6328977     0.0000000     0.0000000        3.847874394  -0.000000000   0.000000000
     0.0000000     2.8175665     0.0000000       -0.000000000   2.230004229   0.000000000
     0.0000000     0.0000000     2.5575339        0.000000000   0.000000000   2.456735924

                       Lattice parameters(A)       Cell Angles
                    a =      1.632898          alpha =   90.000000
                    b =      2.817567          beta  =   90.000000
                    c =      2.557534          gamma =   90.000000

                Current cell volume =            11.766697 A**3

                           -------------------------------
                                     Cell Contents
                           -------------------------------

            xxxxxxxxxxxxxxxxxxxxxxxxxxxxxxxxxxxxxxxxxxxxxxxxxxxxxxxxxxxxxxxxx
            x  Element         Atom        Fractional coordinates of atoms  x
            x                 Number           u          v          w      x
            x---------------------------------------------------------------x
            x  H                 1        -0.000000   0.373464   0.440025   x
            x  H                 2         0.000000   0.126536   0.940025   x
            x  H                 3         0.000000   0.873464   0.059975   x
            x  H                 4        -0.000000   0.626536   0.559975   x
            x  H                 5         0.500000   0.873464   0.440025   x
            x  H                 6         0.500000   0.626536   0.940025   x
            x  H                 7         0.500000   0.373464   0.059975   x
            x  H                 8         0.500000   0.126536   0.559975   x
            xxxxxxxxxxxxxxxxxxxxxxxxxxxxxxxxxxxxxxxxxxxxxxxxxxxxxxxxxxxxxxxxx


------------------------------------------------------------------------ <-- SCF
SCF loop      Energy                           Energy gain       Timer   <-- SCF
                                               per atom          (sec)   <-- SCF
------------------------------------------------------------------------ <-- SCF
Initial  -1.13767862E+002                                         26.44  <-- SCF
      1  -1.13767869E+002                    8.62600909E-007      26.66  <-- SCF
      2  -1.13767869E+002                    2.59808155E-009      27.01  <-- SCF
      3  -1.13767869E+002                    6.01873420E-009      27.35  <-- SCF
      4  -1.13767869E+002                    3.95288979E-010      27.70  <-- SCF
      5  -1.13767869E+002                    3.36245172E-012      27.96  <-- SCF
      6  -1.13767869E+002                    1.20842829E-013      28.23  <-- SCF
------------------------------------------------------------------------ <-- SCF
 
Final energy =  -113.7678686000     eV
(energy not corrected for finite basis set)
 

 ******************************** Symmetrised Forces ********************************
 *                                                                                  *
 *                           Cartesian components (eV/A)                            *
 * -------------------------------------------------------------------------------- *
 *                         x                    y                    z              *
 *                                                                                  *
 * H               1     -0.00000             -0.00041              0.00080         *
 * H               2     -0.00000              0.00041              0.00080         *
 * H               3      0.00000             -0.00041             -0.00080         *
 * H               4      0.00000              0.00041             -0.00080         *
 * H               5      0.00000             -0.00041              0.00080         *
 * H               6      0.00000              0.00041              0.00080         *
 * H               7     -0.00000             -0.00041             -0.00080         *
 * H               8      0.00000              0.00041             -0.00080         *
 *                                                                                  *
 ************************************************************************************

 *********** Symmetrised Stress Tensor ***********
 *                                               *
 *          Cartesian components (GPa)           *
 * --------------------------------------------- *
 *             x             y             z     *
 *                                               *
 *  x   -289.998480      0.000000      0.000000  *
 *  y      0.000000   -290.000561      0.000000  *
 *  z      0.000000      0.000000   -289.999571  *
 *                                               *
 *  Pressure:  289.9995                          *
 *                                               *
 *************************************************
  
 +------------+-------------+-------------+-----------------+ <-- min LBFGS
 |    Step    |   lambda    |   F.delta'  |    enthalpy     | <-- min LBFGS
 +------------+-------------+-------------+-----------------+ <-- min LBFGS
 |  previous  |    0.000000 |    0.000348 |      -92.469707 | <-- min LBFGS
 | trial step |    1.000000 |    0.000243 |      -92.469707 | <-- min LBFGS
 +------------+-------------+-------------+-----------------+ <-- min LBFGS
  

--------------------------------------------------------------------------------
 LBFGS: improving iteration         5 with line minimization (lambda=  3.315247)
--------------------------------------------------------------------------------

                           -------------------------------
                                      Unit Cell
                           -------------------------------
        Real Lattice(A)              Reciprocal Lattice(1/A)
     1.6329016     0.0000000     0.0000000        3.847865171  -0.000000000   0.000000000
     0.0000000     2.8175641     0.0000000       -0.000000000   2.230006165   0.000000000
     0.0000000     0.0000000     2.5575649        0.000000000   0.000000000   2.456706149

                       Lattice parameters(A)       Cell Angles
                    a =      1.632902          alpha =   90.000000
                    b =      2.817564          beta  =   90.000000
                    c =      2.557565          gamma =   90.000000

                Current cell volume =            11.766857 A**3

                           -------------------------------
                                     Cell Contents
                           -------------------------------

            xxxxxxxxxxxxxxxxxxxxxxxxxxxxxxxxxxxxxxxxxxxxxxxxxxxxxxxxxxxxxxxxx
            x  Element         Atom        Fractional coordinates of atoms  x
            x                 Number           u          v          w      x
            x---------------------------------------------------------------x
            x  H                 1        -0.000000   0.373422   0.440130   x
            x  H                 2         0.000000   0.126578   0.940130   x
            x  H                 3         0.000000   0.873422   0.059870   x
            x  H                 4        -0.000000   0.626578   0.559870   x
            x  H                 5         0.500000   0.873422   0.440130   x
            x  H                 6         0.500000   0.626578   0.940130   x
            x  H                 7         0.500000   0.373422   0.059870   x
            x  H                 8         0.500000   0.126578   0.559870   x
            xxxxxxxxxxxxxxxxxxxxxxxxxxxxxxxxxxxxxxxxxxxxxxxxxxxxxxxxxxxxxxxxx


------------------------------------------------------------------------ <-- SCF
SCF loop      Energy                           Energy gain       Timer   <-- SCF
                                               per atom          (sec)   <-- SCF
------------------------------------------------------------------------ <-- SCF
Initial  -1.13768122E+002                                         28.85  <-- SCF
      1  -1.13768161E+002                    4.81558885E-006      29.08  <-- SCF
      2  -1.13768161E+002                    1.37547991E-008      29.43  <-- SCF
      3  -1.13768161E+002                    3.22778538E-008      29.77  <-- SCF
      4  -1.13768161E+002                    2.12186413E-009      30.12  <-- SCF
      5  -1.13768161E+002                    1.79934973E-011      30.38  <-- SCF
      6  -1.13768161E+002                    1.16311223E-012      30.65  <-- SCF
      7  -1.13768161E+002                   -7.55267682E-014      30.92  <-- SCF
------------------------------------------------------------------------ <-- SCF
 
Final energy =  -113.7681613089     eV
(energy not corrected for finite basis set)
 

 ******************************** Symmetrised Forces ********************************
 *                                                                                  *
 *                           Cartesian components (eV/A)                            *
 * -------------------------------------------------------------------------------- *
 *                         x                    y                    z              *
 *                                                                                  *
 * H               1     -0.00000             -0.00016             -0.00006         *
 * H               2     -0.00000              0.00016             -0.00006         *
 * H               3      0.00000             -0.00016              0.00006         *
 * H               4     -0.00000              0.00016              0.00006         *
 * H               5     -0.00000             -0.00016             -0.00006         *
 * H               6     -0.00000              0.00016             -0.00006         *
 * H               7      0.00000             -0.00016              0.00006         *
 * H               8     -0.00000              0.00016              0.00006         *
 *                                                                                  *
 ************************************************************************************

 *********** Symmetrised Stress Tensor ***********
 *                                               *
 *          Cartesian components (GPa)           *
 * --------------------------------------------- *
 *             x             y             z     *
 *                                               *
 *  x   -289.998447      0.000000      0.000000  *
 *  y      0.000000   -290.008994      0.000000  *
 *  z      0.000000      0.000000   -289.987897  *
 *                                               *
 *  Pressure:  289.9984                          *
 *                                               *
 *************************************************
  
 +------------+-------------+-------------+-----------------+ <-- min LBFGS
 |    Step    |   lambda    |   F.delta'  |    enthalpy     | <-- min LBFGS
 +------------+-------------+-------------+-----------------+ <-- min LBFGS
 |  previous  |    0.000000 |    0.000348 |      -92.469707 | <-- min LBFGS
 | trial step |    1.000000 |    0.000243 |      -92.469707 | <-- min LBFGS
 |  line step |    3.315247 |  7.891E-007 |      -92.469708 | <-- min LBFGS
 +------------+-------------+-------------+-----------------+ <-- min LBFGS
  
 LBFGS: finished iteration     5 with enthalpy= -9.24697084E+001 eV
  
 +-----------+-----------------+-----------------+------------+-----+ <-- LBFGS
 | Parameter |      value      |    tolerance    |    units   | OK? | <-- LBFGS
 +-----------+-----------------+-----------------+------------+-----+ <-- LBFGS
 |  dE/ion   |   2.278871E-007 |   1.000000E-009 |         eV | No  | <-- LBFGS
 |  |F|max   |   1.665992E-004 |   1.000000E-005 |       eV/A | No  | <-- LBFGS
 |  |dR|max  |   4.218882E-004 |   1.000000E-005 |          A | No  | <-- LBFGS
 |   Smax    |   1.210347E-002 |   1.000000E-005 |        GPa | No  | <-- LBFGS
 +-----------+-----------------+-----------------+------------+-----+ <-- LBFGS
  

================================================================================
 Starting LBFGS iteration          6 ...
================================================================================
  
 +------------+-------------+-------------+-----------------+ <-- min LBFGS
 |    Step    |   lambda    |   F.delta'  |    enthalpy     | <-- min LBFGS
 +------------+-------------+-------------+-----------------+ <-- min LBFGS
 |  previous  |    0.000000 |    0.000056 |      -92.469708 | <-- min LBFGS
 +------------+-------------+-------------+-----------------+ <-- min LBFGS
  

--------------------------------------------------------------------------------
 LBFGS: starting iteration         6 with trial guess (lambda=  1.000000)
--------------------------------------------------------------------------------

                           -------------------------------
                                      Unit Cell
                           -------------------------------
        Real Lattice(A)              Reciprocal Lattice(1/A)
     1.6329002     0.0000000     0.0000000        3.847868510  -0.000000000   0.000000000
     0.0000000     2.8175740     0.0000000       -0.000000000   2.229998321   0.000000000
     0.0000000     0.0000000     2.5575441        0.000000000   0.000000000   2.456726074

                       Lattice parameters(A)       Cell Angles
                    a =      1.632900          alpha =   90.000000
                    b =      2.817574          beta  =   90.000000
                    c =      2.557544          gamma =   90.000000

                Current cell volume =            11.766793 A**3

                           -------------------------------
                                     Cell Contents
                           -------------------------------

            xxxxxxxxxxxxxxxxxxxxxxxxxxxxxxxxxxxxxxxxxxxxxxxxxxxxxxxxxxxxxxxxx
            x  Element         Atom        Fractional coordinates of atoms  x
            x                 Number           u          v          w      x
            x---------------------------------------------------------------x
            x  H                 1        -0.000000   0.373421   0.440131   x
            x  H                 2        -0.000000   0.126579   0.940131   x
            x  H                 3         0.000000   0.873421   0.059869   x
            x  H                 4         0.000000   0.626579   0.559869   x
            x  H                 5         0.500000   0.873421   0.440131   x
            x  H                 6         0.500000   0.626579   0.940131   x
            x  H                 7         0.500000   0.373421   0.059869   x
            x  H                 8         0.500000   0.126579   0.559869   x
            xxxxxxxxxxxxxxxxxxxxxxxxxxxxxxxxxxxxxxxxxxxxxxxxxxxxxxxxxxxxxxxxx


------------------------------------------------------------------------ <-- SCF
SCF loop      Energy                           Energy gain       Timer   <-- SCF
                                               per atom          (sec)   <-- SCF
------------------------------------------------------------------------ <-- SCF
Initial  -1.13768045E+002                                         31.56  <-- SCF
      1  -1.13768045E+002                    3.54986687E-009      31.79  <-- SCF
      2  -1.13768045E+002                    1.10510767E-011      32.07  <-- SCF
      3  -1.13768045E+002                   -1.43020509E-010      32.35  <-- SCF
      4  -1.13768045E+002                   -7.17504298E-012      32.62  <-- SCF
      5  -1.13768045E+002                    2.83980649E-013      32.89  <-- SCF
------------------------------------------------------------------------ <-- SCF
 
Final energy =  -113.7680450182     eV
(energy not corrected for finite basis set)
 

 ******************************** Symmetrised Forces ********************************
 *                                                                                  *
 *                           Cartesian components (eV/A)                            *
 * -------------------------------------------------------------------------------- *
 *                         x                    y                    z              *
 *                                                                                  *
 * H               1     -0.00000              0.00000              0.00000         *
 * H               2      0.00000             -0.00000              0.00000         *
 * H               3     -0.00000              0.00000             -0.00000         *
 * H               4     -0.00000             -0.00000             -0.00000         *
 * H               5     -0.00000              0.00000              0.00000         *
 * H               6      0.00000             -0.00000              0.00000         *
 * H               7     -0.00000              0.00000             -0.00000         *
 * H               8      0.00000             -0.00000             -0.00000         *
 *                                                                                  *
 ************************************************************************************

 *********** Symmetrised Stress Tensor ***********
 *                                               *
 *          Cartesian components (GPa)           *
 * --------------------------------------------- *
 *             x             y             z     *
 *                                               *
 *  x   -290.000806      0.000000      0.000000  *
 *  y      0.000000   -290.001333      0.000000  *
 *  z      0.000000      0.000000   -289.997464  *
 *                                               *
 *  Pressure:  289.9999                          *
 *                                               *
 *************************************************
  
 +------------+-------------+-------------+-----------------+ <-- min LBFGS
 |    Step    |   lambda    |   F.delta'  |    enthalpy     | <-- min LBFGS
 +------------+-------------+-------------+-----------------+ <-- min LBFGS
 |  previous  |    0.000000 |    0.000056 |      -92.469708 | <-- min LBFGS
 | trial step |    1.000000 |  6.095E-006 |      -92.469709 | <-- min LBFGS
 +------------+-------------+-------------+-----------------+ <-- min LBFGS
  
 LBFGS: finished iteration     6 with enthalpy= -9.24697090E+001 eV
  
 +-----------+-----------------+-----------------+------------+-----+ <-- LBFGS
 | Parameter |      value      |    tolerance    |    units   | OK? | <-- LBFGS
 +-----------+-----------------+-----------------+------------+-----+ <-- LBFGS
 |  dE/ion   |   7.503792E-008 |   1.000000E-009 |         eV | No  | <-- LBFGS
 |  |F|max   |   3.918344E-006 |   1.000000E-005 |       eV/A | Yes | <-- LBFGS
 |  |dR|max  |   5.191699E-006 |   1.000000E-005 |          A | Yes | <-- LBFGS
 |   Smax    |   2.535580E-003 |   1.000000E-005 |        GPa | No  | <-- LBFGS
[...]
            x  H                 1        -0.000000   0.373421   0.440131   x
            x  H                 2        -0.000000   0.126579   0.940131   x
            x  H                 3         0.000000   0.873421   0.059869   x
            x  H                 4        -0.000000   0.626579   0.559869   x
            x  H                 5         0.500000   0.873421   0.440131   x
            x  H                 6         0.500000   0.626579   0.940131   x
            x  H                 7         0.500000   0.373421   0.059869   x
            x  H                 8         0.500000   0.126579   0.559869   x
            xxxxxxxxxxxxxxxxxxxxxxxxxxxxxxxxxxxxxxxxxxxxxxxxxxxxxxxxxxxxxxxxx


------------------------------------------------------------------------ <-- SCF
SCF loop      Energy                           Energy gain       Timer   <-- SCF
                                               per atom          (sec)   <-- SCF
------------------------------------------------------------------------ <-- SCF
Initial  -1.13768041E+002                                         37.01  <-- SCF
      1  -1.13768041E+002                    7.25056975E-014      37.16  <-- SCF
      2  -1.13768041E+002                   -6.04214146E-015      37.43  <-- SCF
      3  -1.13768041E+002                    1.41990324E-013      37.70  <-- SCF
      4  -1.13768041E+002                    3.26275639E-013      37.97  <-- SCF
------------------------------------------------------------------------ <-- SCF
 
Final energy =  -113.7680412016     eV
(energy not corrected for finite basis set)
 

 ******************************** Symmetrised Forces ********************************
 *                                                                                  *
 *                           Cartesian components (eV/A)                            *
 * -------------------------------------------------------------------------------- *
 *                         x                    y                    z              *
 *                                                                                  *
 * H               1      0.00000              0.00000             -0.00000         *
 * H               2      0.00000             -0.00000             -0.00000         *
 * H               3      0.00000              0.00000              0.00000         *
 * H               4      0.00000             -0.00000              0.00000         *
 * H               5      0.00000              0.00000             -0.00000         *
 * H               6      0.00000             -0.00000             -0.00000         *
 * H               7      0.00000              0.00000              0.00000         *
 * H               8      0.00000             -0.00000              0.00000         *
 *                                                                                  *
 ************************************************************************************

 *********** Symmetrised Stress Tensor ***********
 *                                               *
 *          Cartesian components (GPa)           *
 * --------------------------------------------- *
 *             x             y             z     *
 *                                               *
 *  x   -290.000026      0.000000      0.000000  *
 *  y      0.000000   -289.999988      0.000000  *
 *  z      0.000000      0.000000   -289.999989  *
 *                                               *
 *  Pressure:  290.0000                          *
 *                                               *
 *************************************************
  
 +------------+-------------+-------------+-----------------+ <-- min LBFGS
 |    Step    |   lambda    |   F.delta'  |    enthalpy     | <-- min LBFGS
 +------------+-------------+-------------+-----------------+ <-- min LBFGS
 |  previous  |    0.000000 |  1.942E-007 |      -92.469709 | <-- min LBFGS
 | trial step |    1.000000 |  2.685E-009 |      -92.469709 | <-- min LBFGS
 +------------+-------------+-------------+-----------------+ <-- min LBFGS
  
 LBFGS: finished iteration     9 with enthalpy= -9.24697090E+001 eV
  
 +-----------+-----------------+-----------------+------------+-----+ <-- LBFGS
 | Parameter |      value      |    tolerance    |    units   | OK? | <-- LBFGS
 +-----------+-----------------+-----------------+------------+-----+ <-- LBFGS
 |  dE/ion   |   5.483243E-013 |   1.000000E-009 |         eV | Yes | <-- LBFGS
 |  |F|max   |   2.186958E-007 |   1.000000E-005 |       eV/A | Yes | <-- LBFGS
 |  |dR|max  |   3.560612E-008 |   1.000000E-005 |          A | Yes | <-- LBFGS
 |   Smax    |   2.569773E-005 |   1.000000E-005 |        GPa | No  | <-- LBFGS
 +-----------+-----------------+-----------------+------------+-----+ <-- LBFGS
  

================================================================================
 Starting LBFGS iteration         10 ...
================================================================================
  
 +------------+-------------+-------------+-----------------+ <-- min LBFGS
 |    Step    |   lambda    |   F.delta'  |    enthalpy     | <-- min LBFGS
 +------------+-------------+-------------+-----------------+ <-- min LBFGS
 |  previous  |    0.000000 |  7.514E-008 |      -92.469709 | <-- min LBFGS
 +------------+-------------+-------------+-----------------+ <-- min LBFGS
  

--------------------------------------------------------------------------------
 LBFGS: starting iteration        10 with trial guess (lambda=  1.000000)
--------------------------------------------------------------------------------

                           -------------------------------
                                      Unit Cell
                           -------------------------------
        Real Lattice(A)              Reciprocal Lattice(1/A)
     1.6329018    -0.0000000     0.0000000        3.847864709   0.000000000   0.000000000
    -0.0000000     2.8175772     0.0000000        0.000000000   2.229995789   0.000000000
     0.0000000     0.0000000     2.5575382        0.000000000   0.000000000   2.456731731

                       Lattice parameters(A)       Cell Angles
                    a =      1.632902          alpha =   90.000000
                    b =      2.817577          beta  =   90.000000
                    c =      2.557538          gamma =   90.000000

                Current cell volume =            11.766791 A**3

                           -------------------------------
                                     Cell Contents
                           -------------------------------

            xxxxxxxxxxxxxxxxxxxxxxxxxxxxxxxxxxxxxxxxxxxxxxxxxxxxxxxxxxxxxxxxx
            x  Element         Atom        Fractional coordinates of atoms  x
            x                 Number           u          v          w      x
            x---------------------------------------------------------------x
            x  H                 1        -0.000000   0.373421   0.440131   x
            x  H                 2        -0.000000   0.126579   0.940131   x
            x  H                 3         0.000000   0.873421   0.059869   x
            x  H                 4        -0.000000   0.626579   0.559869   x
            x  H                 5         0.500000   0.873421   0.440131   x
            x  H                 6         0.500000   0.626579   0.940131   x
            x  H                 7         0.500000   0.373421   0.059869   x
            x  H                 8         0.500000   0.126579   0.559869   x
            xxxxxxxxxxxxxxxxxxxxxxxxxxxxxxxxxxxxxxxxxxxxxxxxxxxxxxxxxxxxxxxxx


------------------------------------------------------------------------ <-- SCF
SCF loop      Energy                           Energy gain       Timer   <-- SCF
                                               per atom          (sec)   <-- SCF
------------------------------------------------------------------------ <-- SCF
Initial  -1.13768041E+002                                         38.61  <-- SCF
      1  -1.13768041E+002                    9.66742633E-014      38.75  <-- SCF
      2  -1.13768041E+002                    0.00000000E+000      39.02  <-- SCF
      3  -1.13768041E+002                   -1.51053536E-014      39.29  <-- SCF
      4  -1.13768041E+002                   -2.14496022E-013      39.55  <-- SCF
------------------------------------------------------------------------ <-- SCF
 
Final energy =  -113.7680412275     eV
(energy not corrected for finite basis set)
 

 ******************************** Symmetrised Forces ********************************
 *                                                                                  *
 *                           Cartesian components (eV/A)                            *
 * -------------------------------------------------------------------------------- *
 *                         x                    y                    z              *
 *                                                                                  *
 * H               1     -0.00000              0.00000              0.00000         *
 * H               2      0.00000             -0.00000              0.00000         *
 * H               3      0.00000              0.00000             -0.00000         *
 * H               4      0.00000             -0.00000             -0.00000         *
 * H               5     -0.00000              0.00000              0.00000         *
 * H               6      0.00000             -0.00000              0.00000         *
 * H               7      0.00000              0.00000             -0.00000         *
 * H               8      0.00000             -0.00000             -0.00000         *
 *                                                                                  *
 ************************************************************************************

 *********** Symmetrised Stress Tensor ***********
 *                                               *
 *          Cartesian components (GPa)           *
 * --------------------------------------------- *
 *             x             y             z     *
 *                                               *
 *  x   -289.999997      0.000000      0.000000  *
 *  y      0.000000   -290.000001      0.000000  *
 *  z      0.000000      0.000000   -289.999998  *
 *                                               *
 *  Pressure:  290.0000                          *
 *                                               *
 *************************************************
  
 +------------+-------------+-------------+-----------------+ <-- min LBFGS
 |    Step    |   lambda    |   F.delta'  |    enthalpy     | <-- min LBFGS
 +------------+-------------+-------------+-----------------+ <-- min LBFGS
 |  previous  |    0.000000 |  7.514E-008 |      -92.469709 | <-- min LBFGS
 | trial step |    1.000000 | -1.191E-008 |      -92.469709 | <-- min LBFGS
 +------------+-------------+-------------+-----------------+ <-- min LBFGS
  
 LBFGS: finished iteration    10 with enthalpy= -9.24697090E+001 eV
  
 +-----------+-----------------+-----------------+------------+-----+ <-- LBFGS
 | Parameter |      value      |    tolerance    |    units   | OK? | <-- LBFGS
 +-----------+-----------------+-----------------+------------+-----+ <-- LBFGS
 |  dE/ion   |   3.927392E-013 |   1.000000E-009 |         eV | Yes | <-- LBFGS
 |  |F|max   |   2.464074E-007 |   1.000000E-005 |       eV/A | Yes | <-- LBFGS
 |  |dR|max  |   3.260531E-008 |   1.000000E-005 |          A | Yes | <-- LBFGS
 |   Smax    |   2.977771E-006 |   1.000000E-005 |        GPa | Yes | <-- LBFGS
 +-----------+-----------------+-----------------+------------+-----+ <-- LBFGS
  
 LBFGS: Geometry optimization completed successfully.

================================================================================
 LBFGS: Final Configuration:
================================================================================

                           -------------------------------
                                      Unit Cell
                           -------------------------------
        Real Lattice(A)              Reciprocal Lattice(1/A)
     1.6329018    -0.0000000     0.0000000        3.847864709   0.000000000   0.000000000
    -0.0000000     2.8175772     0.0000000        0.000000000   2.229995789   0.000000000
     0.0000000     0.0000000     2.5575382        0.000000000   0.000000000   2.456731731

                       Lattice parameters(A)       Cell Angles
                    a =      1.632902          alpha =   90.000000
                    b =      2.817577          beta  =   90.000000
                    c =      2.557538          gamma =   90.000000

                Current cell volume =            11.766791 A**3

                           -------------------------------
                                     Cell Contents
                           -------------------------------

            xxxxxxxxxxxxxxxxxxxxxxxxxxxxxxxxxxxxxxxxxxxxxxxxxxxxxxxxxxxxxxxxx
            x  Element         Atom        Fractional coordinates of atoms  x
            x                 Number           u          v          w      x
            x---------------------------------------------------------------x
            x  H                 1        -0.000000   0.373421   0.440131   x
            x  H                 2        -0.000000   0.126579   0.940131   x
            x  H                 3         0.000000   0.873421   0.059869   x
            x  H                 4        -0.000000   0.626579   0.559869   x
            x  H                 5         0.500000   0.873421   0.440131   x
            x  H                 6         0.500000   0.626579   0.940131   x
            x  H                 7         0.500000   0.373421   0.059869   x
            x  H                 8         0.500000   0.126579   0.559869   x
            xxxxxxxxxxxxxxxxxxxxxxxxxxxxxxxxxxxxxxxxxxxxxxxxxxxxxxxxxxxxxxxxx


 LBFGS: Final Enthalpy     = -9.24697090E+001 eV
 LBFGS: Final <frequency>  =    1016.68175 cm-1
 LBFGS: Final bulk modulus =     735.90908 GPa

 ******************************** Symmetrised Forces ********************************
 *                                                                                  *
 *                           Cartesian components (eV/A)                            *
 * -------------------------------------------------------------------------------- *
 *                         x                    y                    z              *
 *                                                                                  *
 * H               1     -0.00000              0.00000              0.00000         *
 * H               2      0.00000             -0.00000              0.00000         *
 * H               3      0.00000              0.00000             -0.00000         *
 * H               4      0.00000             -0.00000             -0.00000         *
 * H               5     -0.00000              0.00000              0.00000         *
 * H               6      0.00000             -0.00000              0.00000         *
 * H               7      0.00000              0.00000             -0.00000         *
 * H               8      0.00000             -0.00000             -0.00000         *
 *                                                                                  *
 ************************************************************************************

 *********** Symmetrised Stress Tensor ***********
 *                                               *
 *          Cartesian components (GPa)           *
 * --------------------------------------------- *
 *             x             y             z     *
 *                                               *
 *  x   -289.999997      0.000000      0.000000  *
 *  y      0.000000   -290.000001      0.000000  *
 *  z      0.000000      0.000000   -289.999998  *
 *                                               *
 *  Pressure:  290.0000                          *
 *                                               *
 *************************************************

 Pseudo atomic calculation performed for H 1s1

 Converged in 24 iterations to a total energy of -12.4843 eV

Charge spilling parameter for spin component 1 = 0.65%

            Orbital Populations       
     Ion    Atom   Orbital             Charge
  -------------------------------------------
      H     1      S                    0.999
      H     2      S                    1.001
      H     3      S                    1.001
      H     4      S                    0.999
      H     5      S                    0.999
      H     6      S                    1.001
      H     7      S                    1.001
      H     8      S                    0.999
  -------------------------------------------
                           Total:       8.000
  -------------------------------------------

     Atomic Populations (Mulliken)
     -----------------------------
Species          Ion     s      p      d      f     Total  Charge (e)
=====================================================================
  H               1     1.00   0.00   0.00   0.00   1.00     0.00
  H               2     1.00   0.00   0.00   0.00   1.00     0.00
  H               3     1.00   0.00   0.00   0.00   1.00     0.00
  H               4     1.00   0.00   0.00   0.00   1.00     0.00
  H               5     1.00   0.00   0.00   0.00   1.00     0.00
  H               6     1.00   0.00   0.00   0.00   1.00     0.00
  H               7     1.00   0.00   0.00   0.00   1.00     0.00
  H               8     1.00   0.00   0.00   0.00   1.00     0.00
=====================================================================

                 Bond                   Population      Length (A)
======================================================================
               H 6 -- H 7                    0.99        0.77625
               H 1 -- H 4                    0.99        0.77625
               H 5 -- H 8                    0.99        0.77625
               H 2 -- H 3                    0.99        0.77625
               H 4 -- H 5                    0.42        1.11539
               H 3 -- H 6                    0.42        1.11539
               H 2 -- H 7                    0.42        1.11539
               H 1 -- H 8                    0.42        1.11539
               H 3 -- H 5                   -0.00        1.26981
               H 1 -- H 7                   -0.00        1.26981
               H 2 -- H 8                   -0.00        1.26981
               H 4 -- H 6                   -0.00        1.26981
               H 5 -- H 6                   -0.35        1.45567
               H 3 -- H 4                   -0.35        1.45567
               H 7 -- H 8                   -0.35        1.45567
               H 1 -- H 2                   -0.35        1.45567
               H 3 -- H 7                   -0.75        1.62827
               H 1 -- H 5                   -0.75        1.62827
               H 4 -- H 8                   -0.75        1.62827
               H 2 -- H 6                   -0.75        1.62827
======================================================================


Writing analysis data to Cmca4.castep_bin

Writing model to Cmca4.check
 
 A BibTeX formatted list of references used in this run has been written to 
 Cmca4.bib
 
Initialisation time =      2.81 s
Calculation time    =     39.63 s
Finalisation time   =      0.87 s
Total time          =     43.30 s
Peak Memory Use     = 512764 kB
  
Overall parallel efficiency rating: Very good (83%)                             
  
Data was distributed by:-
k-point (32-way); efficiency rating: Very good (84%)                            
  
Parallel notes:
1) Calculation only took 42.5 s, so efficiency estimates may be inaccurate.     
