 +-------------------------------------------------+
 |                                                 |
 |      CCC   AA    SSS  TTTTT  EEEEE  PPPP        |
 |     C     A  A  S       T    E      P   P       |
 |     C     AAAA   SS     T    EEE    PPPP        |
 |     C     A  A     S    T    E      P           |
 |      CCC  A  A  SSS     T    EEEEE  P           |
 |                                                 |
 +-------------------------------------------------+
 |                                                 |
 | Welcome to Academic Release CASTEP version 18.1 |          
 | Ab Initio Total Energy Program                  |
 |                                                 |
 | Authors:                                        |
 | M. Segall, M. Probert, C. Pickard, P. Hasnip,   |
 | S. Clark, K. Refson, J. R. Yates, M. Payne      |
 |                                                 |
 | Contributors:                                   |
 | P. Lindan, P. Haynes, J. White, V. Milman,      |
 | N. Govind, M. Gibson, P. Tulip, V. Cocula,      |
 | B. Montanari, D. Quigley, M. Glover,            |
 | L. Bernasconi, A. Perlov, M. Plummer,           |
 | E. McNellis, J. Meyer, J. Gale, D. Jochym       |
 | J. Aarons, B. Walker, R. Gillen, D. Jones       |
 | T. Green, I. J. Bush, C. J. Armstrong,          |
 | E. J. Higgins, E. L. Brown, M. S. McFly,        |
 | J. Wilkins, B-C. Shih, P. J. P. Byrne           |
 |                                                 |
 | Copyright (c) 2000 - 2017                       |
 |                                                 |
 |     Distributed under the terms of an           |
 |     Agreement between the United Kingdom        |
 |     Car-Parrinello (UKCP) Consortium,           |
 |     Daresbury Laboratory and Accelrys, Inc.     |
 |                                                 |
 | Please cite                                     |
 |                                                 |
 |     "First principles methods using CASTEP"     |
 |                                                 |
 |         Zeitschrift fuer Kristallographie       |
 |           220(5-6) pp. 567-570 (2005)           |
 |                                                 |
 | S. J. Clark, M. D. Segall, C. J. Pickard,       |
 | P. J. Hasnip, M. J. Probert, K. Refson,         |
 | M. C. Payne                                     |
 |                                                 |
 |       in all publications arising from          |
 |              your use of CASTEP                 |
 |                                                 |
 +-------------------------------------------------+


 Compiled for linux_x86_64_gfortran4.8 on Thu, 19 Jul 2018 15:42:32 +0100
 from code version 70483bd0ad64+  Sun, 10 Dec 2017 12:18:29 +0000
 Compiler: GNU Fortran 4.8.5; Optimisation: fast
 MATHLIBS: Intel MKL(2018.0.0) (LAPACK version 3.7.0)
 FFT Lib : mkl
 Fundamental constants values: CODATA 2014

 Run started: Wed, 26 Aug 2020 15:01:03 +0100

 Atomic calculation performed for H: 1s1

 Converged in 41 iterations to an ae energy of -12.488 eV

   ============================================================                
   | Pseudopotential Report - Date of generation 26-08-2020   |                
   ------------------------------------------------------------                
   | Element: H Ionic charge:  1.00 Level of theory: PBE      |                
   | Atomic Solver: Koelling-Harmon                           |                
   |                                                          |                
   |               Reference Electronic Structure             |                
   |         Orbital         Occupation         Energy        |                
   |            1s              1.000           -0.239        |                
   |                                                          |                
   |                 Pseudopotential Definition               |                
   |        Beta     l      e      Rc     scheme   norm       |                
   |         loc     0   -0.239   0.702     qc      1         |                
   |                                                          |                
   | No charge augmentation                                   |                
   | No partial core correction                               |                
   ------------------------------------------------------------                
   | "0|0.7|2|6|8|10L(qc=10)"                                 |                
   ------------------------------------------------------------                
   |      Author: Chris J. Pickard, Cambridge University      |                
   ============================================================                

 Pseudo atomic calculation performed for H 1s1

 Converged in 24 iterations to a total energy of -12.4843 eV

 Calculation parallelised over 32 processes.
 Data is distributed by k-point(32-way)

 ************************************ Title ************************************
 

 ***************************** General Parameters ******************************
  
 output verbosity                               : normal  (1)
 write checkpoint data to                       : Cmca4.check
 type of calculation                            : geometry optimization
 stress calculation                             : on
 density difference calculation                 : off
 electron localisation func (ELF) calculation   : off
 Hirshfeld analysis                             : off
 unlimited duration calculation
 timing information                             : on
 memory usage estimate                          : on
 write extra output files                       : on
 write final potential to formatted file        : off
 write final density to formatted file          : off
 write structure in CELL formatted file         : on
 write BibTeX reference list                    : on
 write OTFG pseudopotential files               : on
 write electrostatic potential file             : on
 write bands file                               : on
 checkpoint writing                             : both castep_bin and check files
  
 output         length unit                     : A
 output           mass unit                     : amu
 output           time unit                     : ps
 output         charge unit                     : e
 output           spin unit                     : hbar/2
 output         energy unit                     : eV
 output          force unit                     : eV/A
 output       velocity unit                     : A/ps
 output       pressure unit                     : GPa
 output     inv_length unit                     : 1/A
 output      frequency unit                     : cm-1
 output force constant unit                     : eV/A**2
 output         volume unit                     : A**3
 output   IR intensity unit                     : (D/A)**2/amu
 output         dipole unit                     : D
 output         efield unit                     : eV/A/e
 output        entropy unit                     : J/mol/K
  
 wavefunctions paging                           : none
 random number generator seed                   : randomised (150103762)
 data distribution                              : optimal for this architecture
 optimization strategy                          : maximize speed(+++)

 *********************** Exchange-Correlation Parameters ***********************
  
 using functional                               : Perdew Burke Ernzerhof
 relativistic treatment                         : Koelling-Harmon
 DFT+D: Semi-empirical dispersion correction    : off

 ************************* Pseudopotential Parameters **************************
  
 pseudopotential representation                 : reciprocal space
 <beta|phi> representation                      : reciprocal space
 spin-orbit coupling                            : off

 **************************** Basis Set Parameters *****************************
  
 plane wave basis set cut-off                   :  1200.0000   eV
 size of standard grid                          :     2.0000
 size of   fine   gmax                          :    35.4943   1/A
 finite basis set correction                    : automatic
 number of sample energies                      :          3
           sample  spacing                      :     5.0000   eV

 **************************** Electronic Parameters ****************************
  
 number of  electrons                           :  8.000    
 net charge of system                           :  0.000    
 treating system as non-spin-polarized
 number of bands                                :          4

 ********************* Electronic Minimization Parameters **********************
  
 Method: Treating system as non-metallic,
         and number of  SD  steps               :          1
         and number of  CG  steps               :          4
  
 total energy / atom convergence tol.           : 0.1000E-10   eV
 eigen-energy convergence tolerance             : 0.2000E-10   eV
 max force / atom convergence tol.              : ignored
 convergence tolerance window                   :          3   cycles
 max. number of SCF cycles                      :        100
 periodic dipole correction                     : NONE

 ************************** Density Mixing Parameters **************************
  
 density-mixing scheme                          : Broyden
 max. length of mixing history                  :         20
 charge density mixing amplitude                : 0.8000    
 cut-off energy for mixing                      :  1200.       eV

 *********************** Population Analysis Parameters ************************
  
 Population analysis with cutoff                :  3.000       A
 Population analysis output                     : summary and pdos components

 ********************** Geometry Optimization Parameters ***********************
  
 optimization method                            : LBFGS
 max. no. of LBFGS updates                      : unbounded
 variable cell method                           : fixed basis quality
 max. number of steps                           :         60
 estimated bulk modulus                         :  500.0       GPa
 estimated <frequency>                          :  1668.       cm-1
 geom line minimiser                            : on
 with line minimiser tolerance                  :     0.4000
 total energy convergence tolerance             : 0.1000E-08   eV/atom
        max ionic |force| tolerance             : 0.1000E-04   eV/A
 max ionic |displacement| tolerance             : 0.1000E-04   A
   max |stress component| tolerance             : 0.1000E-04   GPa
 convergence tolerance window                   :          2   steps
 backup results every                           :      14400   seconds
 write geom trajectory file                     : on

 *******************************************************************************
  

                           -------------------------------
                                      Unit Cell
                           -------------------------------
        Real Lattice(A)                      Reciprocal Lattice(1/A)
     1.8460430    -0.0000000     0.0000000        3.403596323   0.000000000   0.000000000
    -0.0000000     3.0197532     0.0000000        0.000000000   2.080694961   0.000000000
     0.0000000     0.0000000     2.8455434        0.000000000   0.000000000   2.208079221

                       Lattice parameters(A)       Cell Angles
                    a =      1.846043          alpha =   90.000000
                    b =      3.019753          beta  =   90.000000
                    c =      2.845543          gamma =   90.000000

                       Current cell volume =            15.862750       A**3
                                   density =             0.508331   AMU/A**3
                                           =             0.844103     g/cm^3

                           -------------------------------
                                     Cell Contents
                           -------------------------------
                         Total number of ions in cell =    8
                      Total number of species in cell =    1
                        Max number of any one species =    8

            xxxxxxxxxxxxxxxxxxxxxxxxxxxxxxxxxxxxxxxxxxxxxxxxxxxxxxxxxxxx
            x  Element    Atom        Fractional coordinates of atoms  x
            x            Number           u          v          w      x
            x----------------------------------------------------------x
            x  H            1        -0.000000   0.384595   0.447468   x 
            x  H            2         0.000000   0.115405   0.947468   x 
            x  H            3        -0.000000   0.884595   0.052532   x 
            x  H            4        -0.000000   0.615405   0.552532   x 
            x  H            5         0.500000   0.884595   0.447468   x 
            x  H            6         0.500000   0.615405   0.947468   x 
            x  H            7         0.500000   0.384595   0.052532   x 
            x  H            8         0.500000   0.115405   0.552532   x 
            xxxxxxxxxxxxxxxxxxxxxxxxxxxxxxxxxxxxxxxxxxxxxxxxxxxxxxxxxxxx


                         No user defined ionic velocities

                           -------------------------------
                                   Details of Species
                           -------------------------------

                               Mass of species in AMU
                                    H    1.0079400

                          Electric Quadrupole Moment (Barn)
                                    H    0.0028600 Isotope  2

                          Files used for pseudopotentials:
                                    H 0|0.7|2|6|8|10L(qc=10)

                           -------------------------------
                              k-Points For BZ Sampling
                           -------------------------------
                       MP grid size for SCF calculation is 11 11 11
                            with an offset of   0.000  0.000  0.000
                       Number of kpoints used =           216

                           -------------------------------
                               Symmetry and Constraints
                           -------------------------------

                      Cell is a supercell containing 2 primitive cells
                      Maximum deviation from symmetry = 0.603468E-14     ANG

                      Number of symmetry operations   =          16
                      Number of ionic constraints     =           3
                      Point group of crystal =     8: D2h, mmm, 2/m 2/m 2/m
                      Space group of crystal =    64: Cmce, -C 2bc 2

             Set iprint > 1 for details on symmetry rotations/translations

                         Centre of mass is constrained
             Set iprint > 1 for details of linear ionic constraints

                         Number of cell constraints= 3
                         Cell constraints are:  1 2 3 0 0 0

                         External pressure/stress (GPa)
                        130.00000   0.00000   0.00000
                                  130.00000   0.00000
                                            130.00000
  
+---------------- MEMORY AND SCRATCH DISK ESTIMATES PER PROCESS --------------+
|                                                     Memory          Disk    |
| Baseline code, static data and system overhead      478.0 MB         0.0 MB |
| BLAS internal memory storage                          0.0 MB         0.0 MB |
| Model and support data                               14.0 MB         0.0 MB |
| Electronic energy minimisation requirements           7.4 MB         0.0 MB |
| Force calculation requirements                        3.6 MB         0.0 MB |
| Stress calculation requirements                       4.5 MB         0.0 MB |
|                                               ----------------------------- |
| Approx. total storage required per process          499.4 MB         0.0 MB |
|                                                                             |
| Requirements will fluctuate during execution and may exceed these estimates |
+-----------------------------------------------------------------------------+
Calculating finite basis set correction with  3 cut-off energies.
Calculating total energy with cut-off of 1190.000 eV.
------------------------------------------------------------------------ <-- SCF
SCF loop      Energy                           Energy gain       Timer   <-- SCF
                                               per atom          (sec)   <-- SCF
------------------------------------------------------------------------ <-- SCF
Initial   1.90337099E+002                                          3.05  <-- SCF
      1  -1.02244818E+002                    3.65727396E+001       3.45  <-- SCF
      2  -1.19190735E+002                    2.11823967E+000       3.73  <-- SCF
      3  -1.18934210E+002                   -3.20657001E-002       4.27  <-- SCF
      4  -1.18923258E+002                   -1.36893447E-003       4.80  <-- SCF
      5  -1.18923536E+002                    3.46680692E-005       5.32  <-- SCF
      6  -1.18923560E+002                    3.06487466E-006       5.86  <-- SCF
      7  -1.18923560E+002                    2.93882510E-009       6.40  <-- SCF
      8  -1.18923560E+002                    2.22622702E-010       6.84  <-- SCF
      9  -1.18923560E+002                    8.46504018E-012       7.27  <-- SCF
     10  -1.18923560E+002                   -1.02716405E-013       7.68  <-- SCF
------------------------------------------------------------------------ <-- SCF
 
Final energy =  -118.9235602408     eV
(energy not corrected for finite basis set)
 
Calculating total energy with cut-off of 1195.000 eV.
------------------------------------------------------------------------ <-- SCF
SCF loop      Energy                           Energy gain       Timer   <-- SCF
                                               per atom          (sec)   <-- SCF
------------------------------------------------------------------------ <-- SCF
Initial  -1.18923560E+002                                          8.07  <-- SCF
      1  -1.18924181E+002                    7.76085507E-005       8.39  <-- SCF
      2  -1.18924181E+002                    1.27546585E-010       8.90  <-- SCF
      3  -1.18924181E+002                    3.05835376E-008       9.43  <-- SCF
      4  -1.18924181E+002                    1.39371056E-009       9.96  <-- SCF
      5  -1.18924181E+002                    1.17247755E-011      10.39  <-- SCF
      6  -1.18924181E+002                    7.46204470E-013      10.81  <-- SCF
      7  -1.18924181E+002                    2.02411739E-013      11.22  <-- SCF
------------------------------------------------------------------------ <-- SCF
 
Final energy =  -118.9241813661     eV
(energy not corrected for finite basis set)
 
Calculating total energy with cut-off of 1200.000 eV.
------------------------------------------------------------------------ <-- SCF
SCF loop      Energy                           Energy gain       Timer   <-- SCF
                                               per atom          (sec)   <-- SCF
------------------------------------------------------------------------ <-- SCF
Initial  -1.18924181E+002                                         11.61  <-- SCF
      1  -1.18924748E+002                    7.07724442E-005      11.94  <-- SCF
      2  -1.18924748E+002                    1.18335340E-010      12.44  <-- SCF
      3  -1.18924748E+002                    2.67841847E-008      12.97  <-- SCF
      4  -1.18924748E+002                    1.19213868E-009      13.61  <-- SCF
      5  -1.18924748E+002                    1.03532094E-011      14.06  <-- SCF
      6  -1.18924748E+002                    1.38969254E-013      14.50  <-- SCF
      7  -1.18924748E+002                    5.34729519E-013      14.91  <-- SCF
------------------------------------------------------------------------ <-- SCF
 
Final energy =  -118.9247477705     eV
(energy not corrected for finite basis set)
 
 For future reference: finite basis dEtot/dlog(Ecut) =      -0.141653eV
 Total energy corrected for finite basis set =    -118.924750 eV
 
+---------------- MEMORY AND SCRATCH DISK ESTIMATES PER PROCESS --------------+
|                                                     Memory          Disk    |
| Model and support data                               23.5 MB         0.0 MB |
| Electronic energy minimisation requirements           7.4 MB         0.0 MB |
| Geometry minimisation requirements                    8.9 MB         0.0 MB |
|                                               ----------------------------- |
| Approx. total storage required per process           39.8 MB         0.0 MB |
|                                                                             |
| Requirements will fluctuate during execution and may exceed these estimates |
+-----------------------------------------------------------------------------+
 

 ******************************** Symmetrised Forces ********************************
 *                                                                                  *
 *                           Cartesian components (eV/A)                            *
 * -------------------------------------------------------------------------------- *
 *                         x                    y                    z              *
 *                                                                                  *
 * H               1      0.00000             -0.00000             -0.00000         *
 * H               2      0.00000              0.00000             -0.00000         *
 * H               3     -0.00000             -0.00000              0.00000         *
 * H               4      0.00000              0.00000              0.00000         *
 * H               5      0.00000             -0.00000             -0.00000         *
 * H               6      0.00000              0.00000             -0.00000         *
 * H               7     -0.00000             -0.00000              0.00000         *
 * H               8      0.00000              0.00000              0.00000         *
 *                                                                                  *
 ************************************************************************************

 *********** Symmetrised Stress Tensor ***********
 *                                               *
 *          Cartesian components (GPa)           *
 * --------------------------------------------- *
 *             x             y             z     *
 *                                               *
 *  x   -139.996556     -0.000000      0.000000  *
 *  y     -0.000000   -139.996578      0.000000  *
 *  z      0.000000      0.000000   -139.996559  *
 *                                               *
 *  Pressure:  139.9966                          *
 *                                               *
 *************************************************
 LBFGS: finished iteration     0 with enthalpy= -1.06053774E+002 eV
  
 +-----------+-----------------+-----------------+------------+-----+ <-- LBFGS
 | Parameter |      value      |    tolerance    |    units   | OK? | <-- LBFGS
 +-----------+-----------------+-----------------+------------+-----+ <-- LBFGS
 |  dE/ion   |   0.000000E+000 |   1.000000E-009 |         eV | No  | <-- LBFGS
 |  |F|max   |   2.390875E-007 |   1.000000E-005 |       eV/A | Yes | <-- LBFGS
 |  |dR|max  |   0.000000E+000 |   1.000000E-005 |          A | No  | <-- LBFGS
 |   Smax    |   9.996578E+000 |   1.000000E-005 |        GPa | No  | <-- LBFGS
 +-----------+-----------------+-----------------+------------+-----+ <-- LBFGS
  

================================================================================
 Starting LBFGS iteration          1 ...
================================================================================
  
 +------------+-------------+-------------+-----------------+ <-- min LBFGS
 |    Step    |   lambda    |   F.delta'  |    enthalpy     | <-- min LBFGS
 +------------+-------------+-------------+-----------------+ <-- min LBFGS
 |  previous  |    0.000000 |    0.062998 |     -106.053774 | <-- min LBFGS
 +------------+-------------+-------------+-----------------+ <-- min LBFGS
  

--------------------------------------------------------------------------------
 LBFGS: starting iteration         1 with trial guess (lambda=  1.000000)
--------------------------------------------------------------------------------
 
+---------------- MEMORY AND SCRATCH DISK ESTIMATES PER PROCESS --------------+
|                                                     Memory          Disk    |
| Model and support data                               23.6 MB         0.0 MB |
| Electronic energy minimisation requirements           7.5 MB         0.0 MB |
| Geometry minimisation requirements                    9.0 MB         0.0 MB |
|                                               ----------------------------- |
| Approx. total storage required per process           40.0 MB         0.0 MB |
|                                                                             |
| Requirements will fluctuate during execution and may exceed these estimates |
+-----------------------------------------------------------------------------+
 

                           -------------------------------
                                      Unit Cell
                           -------------------------------
        Real Lattice(A)              Reciprocal Lattice(1/A)
     1.8583458    -0.0000000     0.0000000        3.381063662   0.000000000   0.000000000
    -0.0000000     3.0398780     0.0000000        0.000000000   2.066920209   0.000000000
     0.0000000     0.0000000     2.8645072        0.000000000   0.000000000   2.193461178

                       Lattice parameters(A)       Cell Angles
                    a =      1.858346          alpha =   90.000000
                    b =      3.039878          beta  =   90.000000
                    c =      2.864507          gamma =   90.000000

                Current cell volume =            16.182015 A**3

                           -------------------------------
                                     Cell Contents
                           -------------------------------

            xxxxxxxxxxxxxxxxxxxxxxxxxxxxxxxxxxxxxxxxxxxxxxxxxxxxxxxxxxxxxxxxx
            x  Element         Atom        Fractional coordinates of atoms  x
            x                 Number           u          v          w      x
            x---------------------------------------------------------------x
            x  H                 1        -0.000000   0.384595   0.447468   x
            x  H                 2        -0.000000   0.115405   0.947468   x
            x  H                 3         0.000000   0.884595   0.052532   x
            x  H                 4         0.000000   0.615405   0.552532   x
            x  H                 5         0.500000   0.884595   0.447468   x
            x  H                 6         0.500000   0.615405   0.947468   x
            x  H                 7         0.500000   0.384595   0.052532   x
            x  H                 8         0.500000   0.115405   0.552532   x
            xxxxxxxxxxxxxxxxxxxxxxxxxxxxxxxxxxxxxxxxxxxxxxxxxxxxxxxxxxxxxxxxx


------------------------------------------------------------------------ <-- SCF
SCF loop      Energy                           Energy gain       Timer   <-- SCF
                                               per atom          (sec)   <-- SCF
------------------------------------------------------------------------ <-- SCF
Initial  -1.19191037E+002                                         15.84  <-- SCF
      1  -1.19195411E+002                    5.46784216E-004      16.15  <-- SCF
      2  -1.19195432E+002                    2.60147789E-006      16.69  <-- SCF
      3  -1.19195381E+002                   -6.31242009E-006      17.23  <-- SCF
      4  -1.19195380E+002                   -1.50601533E-007      17.77  <-- SCF
      5  -1.19195380E+002                    7.06091297E-009      18.30  <-- SCF
      6  -1.19195380E+002                    6.68097708E-010      18.84  <-- SCF
      7  -1.19195380E+002                    1.32322898E-012      19.26  <-- SCF
      8  -1.19195380E+002                    2.74917436E-013      19.67  <-- SCF
------------------------------------------------------------------------ <-- SCF
 
Final energy =  -119.1953799615     eV
(energy not corrected for finite basis set)
 

 ******************************** Symmetrised Forces ********************************
 *                                                                                  *
 *                           Cartesian components (eV/A)                            *
 * -------------------------------------------------------------------------------- *
 *                         x                    y                    z              *
 *                                                                                  *
 * H               1      0.00000              0.11034              0.05046         *
 * H               2      0.00000             -0.11034              0.05046         *
 * H               3      0.00000              0.11034             -0.05046         *
 * H               4     -0.00000             -0.11034             -0.05046         *
 * H               5      0.00000              0.11034              0.05046         *
 * H               6     -0.00000             -0.11034              0.05046         *
 * H               7      0.00000              0.11034             -0.05046         *
 * H               8     -0.00000             -0.11034             -0.05046         *
 *                                                                                  *
 ************************************************************************************

 *********** Symmetrised Stress Tensor ***********
 *                                               *
 *          Cartesian components (GPa)           *
 * --------------------------------------------- *
 *             x             y             z     *
 *                                               *
 *  x   -132.950868      0.000000      0.000000  *
 *  y      0.000000   -129.618738      0.000000  *
 *  z      0.000000      0.000000   -132.712859  *
 *                                               *
 *  Pressure:  131.7608                          *
 *                                               *
 *************************************************
  
 +------------+-------------+-------------+-----------------+ <-- min LBFGS
 |    Step    |   lambda    |   F.delta'  |    enthalpy     | <-- min LBFGS
 +------------+-------------+-------------+-----------------+ <-- min LBFGS
 |  previous  |    0.000000 |    0.062998 |     -106.053774 | <-- min LBFGS
 | trial step |    1.000000 |    0.011245 |     -106.065358 | <-- min LBFGS
 +------------+-------------+-------------+-----------------+ <-- min LBFGS
  
 LBFGS: finished iteration     1 with enthalpy= -1.06065358E+002 eV
  
 +-----------+-----------------+-----------------+------------+-----+ <-- LBFGS
 | Parameter |      value      |    tolerance    |    units   | OK? | <-- LBFGS
 +-----------+-----------------+-----------------+------------+-----+ <-- LBFGS
 |  dE/ion   |   1.447893E-003 |   1.000000E-009 |         eV | No  | <-- LBFGS
 |  |F|max   |   1.213325E-001 |   1.000000E-005 |       eV/A | No  | <-- LBFGS
 |  |dR|max  |   2.334364E-008 |   1.000000E-005 |          A | Yes | <-- LBFGS
 |   Smax    |   2.950868E+000 |   1.000000E-005 |        GPa | No  | <-- LBFGS
 +-----------+-----------------+-----------------+------------+-----+ <-- LBFGS
  

================================================================================
 Starting LBFGS iteration          2 ...
================================================================================
  
 +------------+-------------+-------------+-----------------+ <-- min LBFGS
 |    Step    |   lambda    |   F.delta'  |    enthalpy     | <-- min LBFGS
 +------------+-------------+-------------+-----------------+ <-- min LBFGS
 |  previous  |    0.000000 |    0.036154 |     -106.065358 | <-- min LBFGS
 +------------+-------------+-------------+-----------------+ <-- min LBFGS
  

--------------------------------------------------------------------------------
 LBFGS: starting iteration         2 with trial guess (lambda=  1.000000)
--------------------------------------------------------------------------------
 
+---------------- MEMORY AND SCRATCH DISK ESTIMATES PER PROCESS --------------+
|                                                     Memory          Disk    |
| Model and support data                               23.6 MB         0.0 MB |
| Electronic energy minimisation requirements           7.6 MB         0.0 MB |
| Geometry minimisation requirements                    9.1 MB         0.0 MB |
|                                               ----------------------------- |
| Approx. total storage required per process           40.3 MB         0.0 MB |
|                                                                             |
| Requirements will fluctuate during execution and may exceed these estimates |
+-----------------------------------------------------------------------------+
 

                           -------------------------------
                                      Unit Cell
                           -------------------------------
        Real Lattice(A)              Reciprocal Lattice(1/A)
     1.8739212    -0.0000000     0.0000000        3.352961275   0.000000000   0.000000000
    -0.0000000     3.0570815     0.0000000        0.000000000   2.055288788   0.000000000
     0.0000000     0.0000000     2.8879587        0.000000000   0.000000000   2.175649292

                       Lattice parameters(A)       Cell Angles
                    a =      1.873921          alpha =   90.000000
                    b =      3.057081          beta  =   90.000000
                    c =      2.887959          gamma =   90.000000

                Current cell volume =            16.544335 A**3

                           -------------------------------
                                     Cell Contents
                           -------------------------------

            xxxxxxxxxxxxxxxxxxxxxxxxxxxxxxxxxxxxxxxxxxxxxxxxxxxxxxxxxxxxxxxxx
            x  Element         Atom        Fractional coordinates of atoms  x
            x                 Number           u          v          w      x
            x---------------------------------------------------------------x
            x  H                 1         0.000000   0.388938   0.449575   x
            x  H                 2        -0.000000   0.111062   0.949575   x
            x  H                 3         0.000000   0.888938   0.050425   x
            x  H                 4        -0.000000   0.611062   0.550425   x
            x  H                 5         0.500000   0.888938   0.449575   x
            x  H                 6         0.500000   0.611062   0.949575   x
            x  H                 7         0.500000   0.388938   0.050425   x
            x  H                 8         0.500000   0.111062   0.550425   x
            xxxxxxxxxxxxxxxxxxxxxxxxxxxxxxxxxxxxxxxxxxxxxxxxxxxxxxxxxxxxxxxxx


------------------------------------------------------------------------ <-- SCF
SCF loop      Energy                           Energy gain       Timer   <-- SCF
                                               per atom          (sec)   <-- SCF
------------------------------------------------------------------------ <-- SCF
Initial  -1.19294328E+002                                         20.60  <-- SCF
      1  -1.19486797E+002                    2.40585722E-002      20.93  <-- SCF
      2  -1.19487530E+002                    9.17216620E-005      21.46  <-- SCF
      3  -1.19475281E+002                   -1.53124531E-003      22.00  <-- SCF
      4  -1.19474716E+002                   -7.05701574E-005      22.54  <-- SCF
      5  -1.19474718E+002                    2.80721342E-007      23.08  <-- SCF
      6  -1.19474718E+002                    2.16979493E-008      23.61  <-- SCF
      7  -1.19474718E+002                    8.11942969E-011      24.04  <-- SCF
      8  -1.19474718E+002                    2.66760545E-012      24.45  <-- SCF
      9  -1.19474718E+002                    3.50444205E-013      24.87  <-- SCF
------------------------------------------------------------------------ <-- SCF
 
Final energy =  -119.4747183692     eV
(energy not corrected for finite basis set)
 

 ******************************** Symmetrised Forces ********************************
 *                                                                                  *
 *                           Cartesian components (eV/A)                            *
 * -------------------------------------------------------------------------------- *
 *                         x                    y                    z              *
 *                                                                                  *
 * H               1      0.00000             -0.39226             -0.17967         *
 * H               2      0.00000              0.39226             -0.17967         *
 * H               3      0.00000             -0.39226              0.17967         *
 * H               4      0.00000              0.39226              0.17967         *
 * H               5      0.00000             -0.39226             -0.17967         *
 * H               6      0.00000              0.39226             -0.17967         *
 * H               7      0.00000             -0.39226              0.17967         *
 * H               8      0.00000              0.39226              0.17967         *
 *                                                                                  *
 ************************************************************************************

 *********** Symmetrised Stress Tensor ***********
 *                                               *
 *          Cartesian components (GPa)           *
 * --------------------------------------------- *
 *             x             y             z     *
 *                                               *
 *  x   -127.118809      0.000000      0.000000  *
 *  y      0.000000   -135.879701      0.000000  *
 *  z      0.000000      0.000000   -128.920775  *
 *                                               *
 *  Pressure:  130.6398                          *
 *                                               *
 *************************************************
  
 +------------+-------------+-------------+-----------------+ <-- min LBFGS
 |    Step    |   lambda    |   F.delta'  |    enthalpy     | <-- min LBFGS
 +------------+-------------+-------------+-----------------+ <-- min LBFGS
 |  previous  |    0.000000 |    0.036154 |     -106.065358 | <-- min LBFGS
 | trial step |    1.000000 |   -0.097838 |     -106.050719 | <-- min LBFGS
 +------------+-------------+-------------+-----------------+ <-- min LBFGS
  

--------------------------------------------------------------------------------
 LBFGS: improving iteration         2 with line minimization (lambda=  0.269822)
--------------------------------------------------------------------------------

                           -------------------------------
                                      Unit Cell
                           -------------------------------
        Real Lattice(A)              Reciprocal Lattice(1/A)
     1.8625484    -0.0000000     0.0000000        3.373434712   0.000000000   0.000000000
    -0.0000000     3.0445199     0.0000000        0.000000000   2.063768843   0.000000000
     0.0000000     0.0000000     2.8708349        0.000000000   0.000000000   2.188626467

                       Lattice parameters(A)       Cell Angles
                    a =      1.862548          alpha =   90.000000
                    b =      3.044520          beta  =   90.000000
                    c =      2.870835          gamma =   90.000000

                Current cell volume =            16.279258 A**3

                           -------------------------------
                                     Cell Contents
                           -------------------------------

            xxxxxxxxxxxxxxxxxxxxxxxxxxxxxxxxxxxxxxxxxxxxxxxxxxxxxxxxxxxxxxxxx
            x  Element         Atom        Fractional coordinates of atoms  x
            x                 Number           u          v          w      x
            x---------------------------------------------------------------x
            x  H                 1         0.000000   0.385767   0.448037   x
            x  H                 2        -0.000000   0.114233   0.948037   x
            x  H                 3         0.000000   0.885767   0.051963   x
            x  H                 4         0.000000   0.614233   0.551963   x
            x  H                 5         0.500000   0.885767   0.448037   x
            x  H                 6         0.500000   0.614233   0.948037   x
            x  H                 7         0.500000   0.385767   0.051963   x
            x  H                 8         0.500000   0.114233   0.551963   x
            xxxxxxxxxxxxxxxxxxxxxxxxxxxxxxxxxxxxxxxxxxxxxxxxxxxxxxxxxxxxxxxxx


------------------------------------------------------------------------ <-- SCF
SCF loop      Energy                           Energy gain       Timer   <-- SCF
                                               per atom          (sec)   <-- SCF
------------------------------------------------------------------------ <-- SCF
Initial  -1.19179152E+002                                         25.76  <-- SCF
      1  -1.19283578E+002                    1.30532655E-002      26.09  <-- SCF
      2  -1.19284036E+002                    5.72636762E-005      26.62  <-- SCF
      3  -1.19277299E+002                   -8.42203747E-004      27.16  <-- SCF
      4  -1.19276992E+002                   -3.83021584E-005      27.71  <-- SCF
      5  -1.19276993E+002                    1.24783780E-007      28.24  <-- SCF
      6  -1.19276993E+002                    9.13236450E-009      28.78  <-- SCF
      7  -1.19276993E+002                    2.30054536E-011      29.19  <-- SCF
      8  -1.19276993E+002                    1.55585143E-012      29.60  <-- SCF
      9  -1.19276993E+002                    3.77633841E-013      30.01  <-- SCF
------------------------------------------------------------------------ <-- SCF
 
Final energy =  -119.2769934636     eV
(energy not corrected for finite basis set)
 

 ******************************** Symmetrised Forces ********************************
 *                                                                                  *
 *                           Cartesian components (eV/A)                            *
 * -------------------------------------------------------------------------------- *
 *                         x                    y                    z              *
 *                                                                                  *
 * H               1     -0.00000             -0.01206             -0.00595         *
 * H               2      0.00000              0.01206             -0.00595         *
 * H               3     -0.00000             -0.01206              0.00595         *
 * H               4     -0.00000              0.01206              0.00595         *
 * H               5     -0.00000             -0.01206             -0.00595         *
 * H               6      0.00000              0.01206             -0.00595         *
 * H               7      0.00000             -0.01206              0.00595         *
 * H               8     -0.00000              0.01206              0.00595         *
 *                                                                                  *
 ************************************************************************************

 *********** Symmetrised Stress Tensor ***********
 *                                               *
 *          Cartesian components (GPa)           *
 * --------------------------------------------- *
 *             x             y             z     *
 *                                               *
 *  x   -131.357892     -0.000000      0.000000  *
 *  y     -0.000000   -131.030171      0.000000  *
 *  z      0.000000      0.000000   -131.633453  *
 *                                               *
 *  Pressure:  131.3405                          *
 *                                               *
 *************************************************
  
 +------------+-------------+-------------+-----------------+ <-- min LBFGS
 |    Step    |   lambda    |   F.delta'  |    enthalpy     | <-- min LBFGS
 +------------+-------------+-------------+-----------------+ <-- min LBFGS
 |  previous  |    0.000000 |    0.036154 |     -106.065358 | <-- min LBFGS
 | trial step |    1.000000 |   -0.097838 |     -106.050719 | <-- min LBFGS
 |  line step |    0.269822 |    0.002985 |     -106.068078 | <-- min LBFGS
 +------------+-------------+-------------+-----------------+ <-- min LBFGS
  
 LBFGS: finished iteration     2 with enthalpy= -1.06068078E+002 eV
  
 +-----------+-----------------+-----------------+------------+-----+ <-- LBFGS
 | Parameter |      value      |    tolerance    |    units   | OK? | <-- LBFGS
 +-----------+-----------------+-----------------+------------+-----+ <-- LBFGS
 |  dE/ion   |   3.401076E-004 |   1.000000E-009 |         eV | No  | <-- LBFGS
 |  |F|max   |   1.345272E-002 |   1.000000E-005 |       eV/A | No  | <-- LBFGS
 |  |dR|max  |   3.923333E-003 |   1.000000E-005 |          A | No  | <-- LBFGS
 |   Smax    |   1.633453E+000 |   1.000000E-005 |        GPa | No  | <-- LBFGS
 +-----------+-----------------+-----------------+------------+-----+ <-- LBFGS
  

================================================================================
 Starting LBFGS iteration          3 ...
================================================================================
  
 +------------+-------------+-------------+-----------------+ <-- min LBFGS
 |    Step    |   lambda    |   F.delta'  |    enthalpy     | <-- min LBFGS
 +------------+-------------+-------------+-----------------+ <-- min LBFGS
 |  previous  |    0.000000 |    0.008462 |     -106.068078 | <-- min LBFGS
 +------------+-------------+-------------+-----------------+ <-- min LBFGS
  

--------------------------------------------------------------------------------
 LBFGS: starting iteration         3 with trial guess (lambda=  1.000000)
--------------------------------------------------------------------------------

                           -------------------------------
                                      Unit Cell
                           -------------------------------
        Real Lattice(A)              Reciprocal Lattice(1/A)
     1.8650892    -0.0000000     0.0000000        3.368838997   0.000000000   0.000000000
    -0.0000000     3.0470464     0.0000000        0.000000000   2.062057617   0.000000000
     0.0000000     0.0000000     2.8752707        0.000000000   0.000000000   2.185250040

                       Lattice parameters(A)       Cell Angles
                    a =      1.865089          alpha =   90.000000
                    b =      3.047046          beta  =   90.000000
                    c =      2.875271          gamma =   90.000000

                Current cell volume =            16.340202 A**3

                           -------------------------------
                                     Cell Contents
                           -------------------------------

            xxxxxxxxxxxxxxxxxxxxxxxxxxxxxxxxxxxxxxxxxxxxxxxxxxxxxxxxxxxxxxxxx
            x  Element         Atom        Fractional coordinates of atoms  x
            x                 Number           u          v          w      x
            x---------------------------------------------------------------x
            x  H                 1         0.000000   0.385814   0.448043   x
            x  H                 2        -0.000000   0.114186   0.948043   x
            x  H                 3        -0.000000   0.885814   0.051957   x
            x  H                 4         0.000000   0.614186   0.551957   x
            x  H                 5         0.500000   0.885814   0.448043   x
            x  H                 6         0.500000   0.614186   0.948043   x
            x  H                 7         0.500000   0.385814   0.051957   x
            x  H                 8         0.500000   0.114186   0.551957   x
            xxxxxxxxxxxxxxxxxxxxxxxxxxxxxxxxxxxxxxxxxxxxxxxxxxxxxxxxxxxxxxxxx


------------------------------------------------------------------------ <-- SCF
SCF loop      Energy                           Energy gain       Timer   <-- SCF
                                               per atom          (sec)   <-- SCF
------------------------------------------------------------------------ <-- SCF
Initial  -1.19326162E+002                                         30.93  <-- SCF
      1  -1.19326703E+002                    6.76340265E-005      31.26  <-- SCF
      2  -1.19326705E+002                    2.01908347E-007      31.79  <-- SCF
      3  -1.19326695E+002                   -1.18600771E-006      32.32  <-- SCF
      4  -1.19326695E+002                   -4.85758506E-008      32.86  <-- SCF
      5  -1.19326695E+002                    5.69867593E-010      33.38  <-- SCF
      6  -1.19326695E+002                    5.28173796E-011      33.80  <-- SCF
      7  -1.19326695E+002                    1.87306385E-013      34.22  <-- SCF
      8  -1.19326695E+002                    6.04214146E-014      34.63  <-- SCF
------------------------------------------------------------------------ <-- SCF
 
Final energy =  -119.3266946509     eV
(energy not corrected for finite basis set)
 

 ******************************** Symmetrised Forces ********************************
 *                                                                                  *
 *                           Cartesian components (eV/A)                            *
 * -------------------------------------------------------------------------------- *
 *                         x                    y                    z              *
 *                                                                                  *
 * H               1      0.00000             -0.00003             -0.00039         *
 * H               2     -0.00000              0.00003             -0.00039         *
 * H               3     -0.00000             -0.00003              0.00039         *
 * H               4      0.00000              0.00003              0.00039         *
 * H               5     -0.00000             -0.00003             -0.00039         *
 * H               6     -0.00000              0.00003             -0.00039         *
 * H               7      0.00000             -0.00003              0.00039         *
 * H               8      0.00000              0.00003              0.00039         *
 *                                                                                  *
 ************************************************************************************

 *********** Symmetrised Stress Tensor ***********
 *                                               *
 *          Cartesian components (GPa)           *
 * --------------------------------------------- *
 *             x             y             z     *
 *                                               *
 *  x   -130.089269     -0.000000      0.000000  *
 *  y     -0.000000   -129.636538      0.000000  *
 *  z      0.000000      0.000000   -130.219836  *
 *                                               *
 *  Pressure:  129.9819                          *
 *                                               *
 *************************************************
  
 +------------+-------------+-------------+-----------------+ <-- min LBFGS
 |    Step    |   lambda    |   F.delta'  |    enthalpy     | <-- min LBFGS
 +------------+-------------+-------------+-----------------+ <-- min LBFGS
 |  previous  |    0.000000 |    0.008462 |     -106.068078 | <-- min LBFGS
 | trial step |    1.000000 |    0.000265 |     -106.068326 | <-- min LBFGS
 +------------+-------------+-------------+-----------------+ <-- min LBFGS
  
 LBFGS: finished iteration     3 with enthalpy= -1.06068326E+002 eV
  
 +-----------+-----------------+-----------------+------------+-----+ <-- LBFGS
 | Parameter |      value      |    tolerance    |    units   | OK? | <-- LBFGS
 +-----------+-----------------+-----------------+------------+-----+ <-- LBFGS
 |  dE/ion   |   3.097242E-005 |   1.000000E-009 |         eV | No  | <-- LBFGS
 |  |F|max   |   3.927523E-004 |   1.000000E-005 |       eV/A | No  | <-- LBFGS
 |  |dR|max  |   1.428151E-004 |   1.000000E-005 |          A | No  | <-- LBFGS
 |   Smax    |   3.634623E-001 |   1.000000E-005 |        GPa | No  | <-- LBFGS
 +-----------+-----------------+-----------------+------------+-----+ <-- LBFGS
  

================================================================================
 Starting LBFGS iteration          4 ...
================================================================================
  
 +------------+-------------+-------------+-----------------+ <-- min LBFGS
 |    Step    |   lambda    |   F.delta'  |    enthalpy     | <-- min LBFGS
 +------------+-------------+-------------+-----------------+ <-- min LBFGS
 |  previous  |    0.000000 |    0.001563 |     -106.068326 | <-- min LBFGS
 +------------+-------------+-------------+-----------------+ <-- min LBFGS
  

--------------------------------------------------------------------------------
 LBFGS: starting iteration         4 with trial guess (lambda=  1.000000)
--------------------------------------------------------------------------------

                           -------------------------------
                                      Unit Cell
                           -------------------------------
        Real Lattice(A)              Reciprocal Lattice(1/A)
     1.8652833    -0.0000000     0.0000000        3.368488527   0.000000000   0.000000000
    -0.0000000     3.0463778     0.0000000        0.000000000   2.062510200   0.000000000
     0.0000000     0.0000000     2.8758457        0.000000000   0.000000000   2.184813085

                       Lattice parameters(A)       Cell Angles
                    a =      1.865283          alpha =   90.000000
                    b =      3.046378          beta  =   90.000000
                    c =      2.875846          gamma =   90.000000

                Current cell volume =            16.341584 A**3

                           -------------------------------
                                     Cell Contents
                           -------------------------------

            xxxxxxxxxxxxxxxxxxxxxxxxxxxxxxxxxxxxxxxxxxxxxxxxxxxxxxxxxxxxxxxxx
            x  Element         Atom        Fractional coordinates of atoms  x
            x                 Number           u          v          w      x
            x---------------------------------------------------------------x
            x  H                 1        -0.000000   0.385804   0.448024   x
            x  H                 2        -0.000000   0.114196   0.948024   x
            x  H                 3         0.000000   0.885804   0.051976   x
            x  H                 4         0.000000   0.614196   0.551976   x
            x  H                 5         0.500000   0.885804   0.448024   x
            x  H                 6         0.500000   0.614196   0.948024   x
            x  H                 7         0.500000   0.385804   0.051976   x
            x  H                 8         0.500000   0.114196   0.551976   x
            xxxxxxxxxxxxxxxxxxxxxxxxxxxxxxxxxxxxxxxxxxxxxxxxxxxxxxxxxxxxxxxxx


------------------------------------------------------------------------ <-- SCF
SCF loop      Energy                           Energy gain       Timer   <-- SCF
                                               per atom          (sec)   <-- SCF
------------------------------------------------------------------------ <-- SCF
Initial  -1.19327800E+002                                         35.54  <-- SCF
      1  -1.19327828E+002                    3.54201611E-006      35.89  <-- SCF
      2  -1.19327828E+002                    5.65486134E-009      36.43  <-- SCF
      3  -1.19327828E+002                    1.79273237E-008      36.97  <-- SCF
      4  -1.19327828E+002                    1.67388466E-009      37.50  <-- SCF
      5  -1.19327828E+002                    8.26262845E-012      37.91  <-- SCF
      6  -1.19327828E+002                    4.80350246E-013      38.33  <-- SCF
------------------------------------------------------------------------ <-- SCF
 
Final energy =  -119.3278284315     eV
(energy not corrected for finite basis set)
 

 ******************************** Symmetrised Forces ********************************
 *                                                                                  *
 *                           Cartesian components (eV/A)                            *
 * -------------------------------------------------------------------------------- *
 *                         x                    y                    z              *
 *                                                                                  *
 * H               1      0.00000              0.00000             -0.00028         *
 * H               2      0.00000             -0.00000             -0.00028         *
 * H               3      0.00000              0.00000              0.00028         *
 * H               4      0.00000             -0.00000              0.00028         *
 * H               5      0.00000              0.00000             -0.00028         *
 * H               6      0.00000             -0.00000             -0.00028         *
 * H               7      0.00000              0.00000              0.00028         *
 * H               8      0.00000             -0.00000              0.00028         *
 *                                                                                  *
 ************************************************************************************

 *********** Symmetrised Stress Tensor ***********
 *                                               *
 *          Cartesian components (GPa)           *
 * --------------------------------------------- *
 *             x             y             z     *
 *                                               *
 *  x   -130.040367     -0.000000      0.000000  *
 *  y     -0.000000   -129.754960      0.000000  *
 *  z      0.000000      0.000000   -130.097033  *
 *                                               *
 *  Pressure:  129.9641                          *
 *                                               *
 *************************************************
  
 +------------+-------------+-------------+-----------------+ <-- min LBFGS
 |    Step    |   lambda    |   F.delta'  |    enthalpy     | <-- min LBFGS
 +------------+-------------+-------------+-----------------+ <-- min LBFGS
 |  previous  |    0.000000 |    0.001563 |     -106.068326 | <-- min LBFGS
 | trial step |    1.000000 |    0.000911 |     -106.068336 | <-- min LBFGS
 +------------+-------------+-------------+-----------------+ <-- min LBFGS
  

--------------------------------------------------------------------------------
 LBFGS: improving iteration         4 with line minimization (lambda=  2.398759)
--------------------------------------------------------------------------------

                           -------------------------------
                                      Unit Cell
                           -------------------------------
        Real Lattice(A)              Reciprocal Lattice(1/A)
     1.8655547    -0.0000000     0.0000000        3.367998427   0.000000000   0.000000000
    -0.0000000     3.0454426     0.0000000        0.000000000   2.063143587   0.000000000
     0.0000000     0.0000000     2.8766500        0.000000000   0.000000000   2.184202183

                       Lattice parameters(A)       Cell Angles
                    a =      1.865555          alpha =   90.000000
                    b =      3.045443          beta  =   90.000000
                    c =      2.876650          gamma =   90.000000

                Current cell volume =            16.343514 A**3

                           -------------------------------
                                     Cell Contents
                           -------------------------------

            xxxxxxxxxxxxxxxxxxxxxxxxxxxxxxxxxxxxxxxxxxxxxxxxxxxxxxxxxxxxxxxxx
            x  Element         Atom        Fractional coordinates of atoms  x
            x                 Number           u          v          w      x
            x---------------------------------------------------------------x
            x  H                 1        -0.000000   0.385791   0.447999   x
            x  H                 2         0.000000   0.114209   0.947999   x
            x  H                 3         0.000000   0.885791   0.052001   x
            x  H                 4        -0.000000   0.614209   0.552001   x
            x  H                 5         0.500000   0.885791   0.447999   x
            x  H                 6         0.500000   0.614209   0.947999   x
            x  H                 7         0.500000   0.385791   0.052001   x
            x  H                 8         0.500000   0.114209   0.552001   x
            xxxxxxxxxxxxxxxxxxxxxxxxxxxxxxxxxxxxxxxxxxxxxxxxxxxxxxxxxxxxxxxxx


------------------------------------------------------------------------ <-- SCF
SCF loop      Energy                           Energy gain       Timer   <-- SCF
                                               per atom          (sec)   <-- SCF
------------------------------------------------------------------------ <-- SCF
Initial  -1.19329364E+002                                         39.22  <-- SCF
      1  -1.19329400E+002                    4.55191696E-006      39.55  <-- SCF
      2  -1.19329400E+002                    9.99586204E-009      40.07  <-- SCF
      3  -1.19329400E+002                    3.53216823E-008      40.60  <-- SCF
      4  -1.19329400E+002                    3.27157791E-009      41.12  <-- SCF
      5  -1.19329400E+002                    1.63016977E-011      41.53  <-- SCF
      6  -1.19329400E+002                    1.27187078E-012      41.94  <-- SCF
      7  -1.19329400E+002                    3.56486346E-013      42.35  <-- SCF
------------------------------------------------------------------------ <-- SCF
 
Final energy =  -119.3294003925     eV
(energy not corrected for finite basis set)
 

 ******************************** Symmetrised Forces ********************************
 *                                                                                  *
 *                           Cartesian components (eV/A)                            *
 * -------------------------------------------------------------------------------- *
 *                         x                    y                    z              *
 *                                                                                  *
 * H               1      0.00000              0.00004             -0.00014         *
 * H               2      0.00000             -0.00004             -0.00014         *
 * H               3      0.00000              0.00004              0.00014         *
 * H               4     -0.00000             -0.00004              0.00014         *
 * H               5      0.00000              0.00004             -0.00014         *
 * H               6      0.00000             -0.00004             -0.00014         *
 * H               7      0.00000              0.00004              0.00014         *
 * H               8     -0.00000             -0.00004              0.00014         *
 *                                                                                  *
 ************************************************************************************

 *********** Symmetrised Stress Tensor ***********
 *                                               *
 *          Cartesian components (GPa)           *
 * --------------------------------------------- *
 *             x             y             z     *
 *                                               *
 *  x   -129.971836     -0.000000      0.000000  *
 *  y     -0.000000   -129.921456      0.000000  *
 *  z      0.000000      0.000000   -129.924594  *
 *                                               *
 *  Pressure:  129.9393                          *
 *                                               *
 *************************************************
  
 +------------+-------------+-------------+-----------------+ <-- min LBFGS
 |    Step    |   lambda    |   F.delta'  |    enthalpy     | <-- min LBFGS
 +------------+-------------+-------------+-----------------+ <-- min LBFGS
 |  previous  |    0.000000 |    0.001563 |     -106.068326 | <-- min LBFGS
 | trial step |    1.000000 |    0.000911 |     -106.068336 | <-- min LBFGS
 |  line step |    2.398759 | -3.022E-006 |     -106.068341 | <-- min LBFGS
 +------------+-------------+-------------+-----------------+ <-- min LBFGS
  
 LBFGS: finished iteration     4 with enthalpy= -1.06068341E+002 eV
  
 +-----------+-----------------+-----------------+------------+-----+ <-- LBFGS
 | Parameter |      value      |    tolerance    |    units   | OK? | <-- LBFGS
 +-----------+-----------------+-----------------+------------+-----+ <-- LBFGS
 |  dE/ion   |   1.843529E-006 |   1.000000E-009 |         eV | No  | <-- LBFGS
 |  |F|max   |   1.493790E-004 |   1.000000E-005 |       eV/A | No  | <-- LBFGS
 |  |dR|max  |   1.443966E-004 |   1.000000E-005 |          A | No  | <-- LBFGS
 |   Smax    |   7.854362E-002 |   1.000000E-005 |        GPa | No  | <-- LBFGS
 +-----------+-----------------+-----------------+------------+-----+ <-- LBFGS
  

================================================================================
 Starting LBFGS iteration          5 ...
================================================================================
  
 +------------+-------------+-------------+-----------------+ <-- min LBFGS
 |    Step    |   lambda    |   F.delta'  |    enthalpy     | <-- min LBFGS
 +------------+-------------+-------------+-----------------+ <-- min LBFGS
 |  previous  |    0.000000 |    0.000404 |     -106.068341 | <-- min LBFGS
 +------------+-------------+-------------+-----------------+ <-- min LBFGS
  

--------------------------------------------------------------------------------
 LBFGS: starting iteration         5 with trial guess (lambda=  1.000000)
--------------------------------------------------------------------------------

                           -------------------------------
                                      Unit Cell
                           -------------------------------
        Real Lattice(A)              Reciprocal Lattice(1/A)
     1.8654898    -0.0000000     0.0000000        3.368115552   0.000000000   0.000000000
    -0.0000000     3.0452137     0.0000000        0.000000000   2.063298638   0.000000000
     0.0000000     0.0000000     2.8764690        0.000000000   0.000000000   2.184339624

                       Lattice parameters(A)       Cell Angles
                    a =      1.865490          alpha =   90.000000
                    b =      3.045214          beta  =   90.000000
                    c =      2.876469          gamma =   90.000000

                Current cell volume =            16.340689 A**3

                           -------------------------------
                                     Cell Contents
                           -------------------------------

            xxxxxxxxxxxxxxxxxxxxxxxxxxxxxxxxxxxxxxxxxxxxxxxxxxxxxxxxxxxxxxxxx
            x  Element         Atom        Fractional coordinates of atoms  x
            x                 Number           u          v          w      x
            x---------------------------------------------------------------x
            x  H                 1        -0.000000   0.385784   0.447989   x
            x  H                 2         0.000000   0.114216   0.947989   x
            x  H                 3         0.000000   0.885784   0.052011   x
            x  H                 4         0.000000   0.614216   0.552011   x
            x  H                 5         0.500000   0.885784   0.447989   x
            x  H                 6         0.500000   0.614216   0.947989   x
            x  H                 7         0.500000   0.385784   0.052011   x
            x  H                 8         0.500000   0.114216   0.552011   x
            xxxxxxxxxxxxxxxxxxxxxxxxxxxxxxxxxxxxxxxxxxxxxxxxxxxxxxxxxxxxxxxxx


------------------------------------------------------------------------ <-- SCF
SCF loop      Energy                           Energy gain       Timer   <-- SCF
                                               per atom          (sec)   <-- SCF
------------------------------------------------------------------------ <-- SCF
Initial  -1.19327109E+002                                         43.25  <-- SCF
      1  -1.19327110E+002                    1.41767067E-007      43.59  <-- SCF
      2  -1.19327110E+002                    6.08552403E-010      44.11  <-- SCF
      3  -1.19327110E+002                   -7.15915215E-009      44.64  <-- SCF
      4  -1.19327110E+002                   -3.07765538E-010      45.17  <-- SCF
      5  -1.19327110E+002                    1.89723242E-012      45.59  <-- SCF
      6  -1.19327110E+002                    2.56791012E-013      46.00  <-- SCF
------------------------------------------------------------------------ <-- SCF
 
Final energy =  -119.3271104327     eV
(energy not corrected for finite basis set)
 

 ******************************** Symmetrised Forces ********************************
 *                                                                                  *
 *                           Cartesian components (eV/A)                            *
 * -------------------------------------------------------------------------------- *
 *                         x                    y                    z              *
 *                                                                                  *
 * H               1     -0.00000              0.00006             -0.00010         *
 * H               2      0.00000             -0.00006             -0.00010         *
 * H               3     -0.00000              0.00006              0.00010         *
 * H               4      0.00000             -0.00006              0.00010         *
 * H               5     -0.00000              0.00006             -0.00010         *
 * H               6      0.00000             -0.00006             -0.00010         *
 * H               7     -0.00000              0.00006              0.00010         *
 * H               8      0.00000             -0.00006              0.00010         *
 *                                                                                  *
 ************************************************************************************

 *********** Symmetrised Stress Tensor ***********
 *                                               *
 *          Cartesian components (GPa)           *
 * --------------------------------------------- *
 *             x             y             z     *
 *                                               *
 *  x   -130.019142     -0.000000      0.000000  *
 *  y     -0.000000   -129.990915      0.000000  *
 *  z      0.000000      0.000000   -129.978256  *
 *                                               *
 *  Pressure:  129.9961                          *
 *                                               *
 *************************************************
  
 +------------+-------------+-------------+-----------------+ <-- min LBFGS
 |    Step    |   lambda    |   F.delta'  |    enthalpy     | <-- min LBFGS
 +------------+-------------+-------------+-----------------+ <-- min LBFGS
 |  previous  |    0.000000 |    0.000404 |     -106.068341 | <-- min LBFGS
 | trial step |    1.000000 |    0.000051 |     -106.068341 | <-- min LBFGS
 +------------+-------------+-------------+-----------------+ <-- min LBFGS
  
 LBFGS: finished iteration     5 with enthalpy= -1.06068341E+002 eV
  
 +-----------+-----------------+-----------------+------------+-----+ <-- LBFGS
 | Parameter |      value      |    tolerance    |    units   | OK? | <-- LBFGS
 +-----------+-----------------+-----------------+------------+-----+ <-- LBFGS
 |  dE/ion   |   4.887821E-008 |   1.000000E-009 |         eV | No  | <-- LBFGS
 |  |F|max   |   1.132742E-004 |   1.000000E-005 |       eV/A | No  | <-- LBFGS
 |  |dR|max  |   3.431937E-005 |   1.000000E-005 |          A | No  | <-- LBFGS
 |   Smax    |   2.174420E-002 |   1.000000E-005 |        GPa | No  | <-- LBFGS
 +-----------+-----------------+-----------------+------------+-----+ <-- LBFGS
  

================================================================================
 Starting LBFGS iteration          6 ...
================================================================================
  
 +------------+-------------+-------------+-----------------+ <-- min LBFGS
 |    Step    |   lambda    |   F.delta'  |    enthalpy     | <-- min LBFGS
 +------------+-------------+-------------+-----------------+ <-- min LBFGS
 |  previous  |    0.000000 |    0.000110 |     -106.068341 | <-- min LBFGS
 +------------+-------------+-------------+-----------------+ <-- min LBFGS
  

--------------------------------------------------------------------------------
 LBFGS: starting iteration         6 with trial guess (lambda=  1.000000)
--------------------------------------------------------------------------------

                           -------------------------------
                                      Unit Cell
                           -------------------------------
        Real Lattice(A)              Reciprocal Lattice(1/A)
     1.8655127    -0.0000000     0.0000000        3.368074221   0.000000000   0.000000000
    -0.0000000     3.0451716     0.0000000        0.000000000   2.063327153   0.000000000
     0.0000000     0.0000000     2.8764115        0.000000000   0.000000000   2.184383298

                       Lattice parameters(A)       Cell Angles
                    a =      1.865513          alpha =   90.000000
                    b =      3.045172          beta  =   90.000000
                    c =      2.876412          gamma =   90.000000

                Current cell volume =            16.340337 A**3

                           -------------------------------
                                     Cell Contents
                           -------------------------------

            xxxxxxxxxxxxxxxxxxxxxxxxxxxxxxxxxxxxxxxxxxxxxxxxxxxxxxxxxxxxxxxxx
            x  Element         Atom        Fractional coordinates of atoms  x
            x                 Number           u          v          w      x
            x---------------------------------------------------------------x
            x  H                 1         0.000000   0.385785   0.447984   x
            x  H                 2         0.000000   0.114215   0.947984   x
            x  H                 3         0.000000   0.885785   0.052016   x
            x  H                 4         0.000000   0.614215   0.552016   x
            x  H                 5         0.500000   0.885785   0.447984   x
            x  H                 6         0.500000   0.614215   0.947984   x
            x  H                 7         0.500000   0.385785   0.052016   x
            x  H                 8         0.500000   0.114215   0.552016   x
            xxxxxxxxxxxxxxxxxxxxxxxxxxxxxxxxxxxxxxxxxxxxxxxxxxxxxxxxxxxxxxxxx


------------------------------------------------------------------------ <-- SCF
SCF loop      Energy                           Energy gain       Timer   <-- SCF
                                               per atom          (sec)   <-- SCF
------------------------------------------------------------------------ <-- SCF
Initial  -1.19326826E+002                                         46.91  <-- SCF
      1  -1.19326826E+002                    1.96089544E-008      47.25  <-- SCF
      2  -1.19326826E+002                    9.25867547E-011      47.74  <-- SCF
      3  -1.19326826E+002                    2.79998877E-010      48.15  <-- SCF
      4  -1.19326826E+002                    2.84433809E-011      48.57  <-- SCF
      5  -1.19326826E+002                    1.69179961E-013      48.99  <-- SCF
      6  -1.19326826E+002                    1.29906041E-013      49.40  <-- SCF
------------------------------------------------------------------------ <-- SCF
 
Final energy =  -119.3268256881     eV
(energy not corrected for finite basis set)
 

 ******************************** Symmetrised Forces ********************************
 *                                                                                  *
 *                           Cartesian components (eV/A)                            *
 * -------------------------------------------------------------------------------- *
 *                         x                    y                    z              *
 *                                                                                  *
 * H               1      0.00000              0.00003             -0.00009         *
 * H               2     -0.00000             -0.00003             -0.00009         *
 * H               3      0.00000              0.00003              0.00009         *
 * H               4      0.00000             -0.00003              0.00009         *
 * H               5      0.00000              0.00003             -0.00009         *
 * H               6     -0.00000             -0.00003             -0.00009         *
 * H               7      0.00000              0.00003              0.00009         *
 * H               8      0.00000             -0.00003              0.00009         *
 *                                                                                  *
 ************************************************************************************

 *********** Symmetrised Stress Tensor ***********
 *                                               *
 *          Cartesian components (GPa)           *
 * --------------------------------------------- *
 *             x             y             z     *
 *                                               *
 *  x   -130.019392     -0.000000      0.000000  *
 *  y     -0.000000   -130.001342      0.000000  *
 *  z      0.000000      0.000000   -129.989955  *
 *                                               *
 *  Pressure:  130.0036                          *
 *                                               *
 *************************************************
  
[...]
            x  H                 4        -0.000000   0.614207   0.552039   x
            x  H                 5         0.500000   0.885793   0.447961   x
            x  H                 6         0.500000   0.614207   0.947961   x
            x  H                 7         0.500000   0.385793   0.052039   x
            x  H                 8         0.500000   0.114207   0.552039   x
            xxxxxxxxxxxxxxxxxxxxxxxxxxxxxxxxxxxxxxxxxxxxxxxxxxxxxxxxxxxxxxxxx


------------------------------------------------------------------------ <-- SCF
SCF loop      Energy                           Energy gain       Timer   <-- SCF
                                               per atom          (sec)   <-- SCF
------------------------------------------------------------------------ <-- SCF
Initial  -1.19326976E+002                                         68.74  <-- SCF
      1  -1.19326976E+002                    3.32317780E-014      68.95  <-- SCF
      2  -1.19326976E+002                    1.20842829E-014      69.36  <-- SCF
      3  -1.19326976E+002                    1.63137819E-013      69.77  <-- SCF
      4  -1.19326976E+002                    2.41685658E-013      70.18  <-- SCF
------------------------------------------------------------------------ <-- SCF
 
Final energy =  -119.3269764358     eV
(energy not corrected for finite basis set)
 

 ******************************** Symmetrised Forces ********************************
 *                                                                                  *
 *                           Cartesian components (eV/A)                            *
 * -------------------------------------------------------------------------------- *
 *                         x                    y                    z              *
 *                                                                                  *
 * H               1      0.00000              0.00000              0.00000         *
 * H               2     -0.00000             -0.00000              0.00000         *
 * H               3      0.00000              0.00000             -0.00000         *
 * H               4      0.00000             -0.00000             -0.00000         *
 * H               5      0.00000              0.00000              0.00000         *
 * H               6     -0.00000             -0.00000              0.00000         *
 * H               7      0.00000              0.00000             -0.00000         *
 * H               8      0.00000             -0.00000             -0.00000         *
 *                                                                                  *
 ************************************************************************************

 *********** Symmetrised Stress Tensor ***********
 *                                               *
 *          Cartesian components (GPa)           *
 * --------------------------------------------- *
 *             x             y             z     *
 *                                               *
 *  x   -129.999990      0.000000      0.000000  *
 *  y      0.000000   -130.000008      0.000000  *
 *  z      0.000000      0.000000   -129.999995  *
 *                                               *
 *  Pressure:  130.0000                          *
 *                                               *
 *************************************************
  
 +------------+-------------+-------------+-----------------+ <-- min LBFGS
 |    Step    |   lambda    |   F.delta'  |    enthalpy     | <-- min LBFGS
 +------------+-------------+-------------+-----------------+ <-- min LBFGS
 |  previous  |    0.000000 |  9.659E-008 |     -106.068342 | <-- min LBFGS
 | trial step |    1.000000 | -2.385E-008 |     -106.068342 | <-- min LBFGS
 +------------+-------------+-------------+-----------------+ <-- min LBFGS
  
 LBFGS: finished iteration    10 with enthalpy= -1.06068342E+002 eV
  
 +-----------+-----------------+-----------------+------------+-----+ <-- LBFGS
 | Parameter |      value      |    tolerance    |    units   | OK? | <-- LBFGS
 +-----------+-----------------+-----------------+------------+-----+ <-- LBFGS
 |  dE/ion   |   1.661589E-014 |   1.000000E-009 |         eV | Yes | <-- LBFGS
 |  |F|max   |   2.373871E-007 |   1.000000E-005 |       eV/A | Yes | <-- LBFGS
 |  |dR|max  |   3.489791E-008 |   1.000000E-005 |          A | Yes | <-- LBFGS
 |   Smax    |   1.039785E-005 |   1.000000E-005 |        GPa | No  | <-- LBFGS
 +-----------+-----------------+-----------------+------------+-----+ <-- LBFGS
  

================================================================================
 Starting LBFGS iteration         11 ...
================================================================================
  
 +------------+-------------+-------------+-----------------+ <-- min LBFGS
 |    Step    |   lambda    |   F.delta'  |    enthalpy     | <-- min LBFGS
 +------------+-------------+-------------+-----------------+ <-- min LBFGS
 |  previous  |    0.000000 |  4.298E-008 |     -106.068342 | <-- min LBFGS
 +------------+-------------+-------------+-----------------+ <-- min LBFGS
  

--------------------------------------------------------------------------------
 LBFGS: starting iteration        11 with trial guess (lambda=  1.000000)
--------------------------------------------------------------------------------

                           -------------------------------
                                      Unit Cell
                           -------------------------------
        Real Lattice(A)              Reciprocal Lattice(1/A)
     1.8656053    -0.0000000     0.0000000        3.367907076   0.000000000   0.000000000
    -0.0000000     3.0451481     0.0000000        0.000000000   2.063343109   0.000000000
     0.0000000     0.0000000     2.8763237        0.000000000   0.000000000   2.184449975

                       Lattice parameters(A)       Cell Angles
                    a =      1.865605          alpha =   90.000000
                    b =      3.045148          beta  =   90.000000
                    c =      2.876324          gamma =   90.000000

                Current cell volume =            16.340523 A**3

                           -------------------------------
                                     Cell Contents
                           -------------------------------

            xxxxxxxxxxxxxxxxxxxxxxxxxxxxxxxxxxxxxxxxxxxxxxxxxxxxxxxxxxxxxxxxx
            x  Element         Atom        Fractional coordinates of atoms  x
            x                 Number           u          v          w      x
            x---------------------------------------------------------------x
            x  H                 1         0.000000   0.385793   0.447961   x
            x  H                 2         0.000000   0.114207   0.947961   x
            x  H                 3         0.000000   0.885793   0.052039   x
            x  H                 4        -0.000000   0.614207   0.552039   x
            x  H                 5         0.500000   0.885793   0.447961   x
            x  H                 6         0.500000   0.614207   0.947961   x
            x  H                 7         0.500000   0.385793   0.052039   x
            x  H                 8         0.500000   0.114207   0.552039   x
            xxxxxxxxxxxxxxxxxxxxxxxxxxxxxxxxxxxxxxxxxxxxxxxxxxxxxxxxxxxxxxxxx


------------------------------------------------------------------------ <-- SCF
SCF loop      Energy                           Energy gain       Timer   <-- SCF
                                               per atom          (sec)   <-- SCF
------------------------------------------------------------------------ <-- SCF
Initial  -1.19326976E+002                                         71.09  <-- SCF
      1  -1.19326976E+002                    7.25056975E-014      71.31  <-- SCF
      2  -1.19326976E+002                   -2.11474951E-014      71.71  <-- SCF
      3  -1.19326976E+002                   -5.43792731E-014      72.12  <-- SCF
      4  -1.19326976E+002                   -3.47423134E-013      72.53  <-- SCF
------------------------------------------------------------------------ <-- SCF
 
Final energy =  -119.3269762202     eV
(energy not corrected for finite basis set)
 

 ******************************** Symmetrised Forces ********************************
 *                                                                                  *
 *                           Cartesian components (eV/A)                            *
 * -------------------------------------------------------------------------------- *
 *                         x                    y                    z              *
 *                                                                                  *
 * H               1      0.00000              0.00000              0.00000         *
 * H               2      0.00000             -0.00000              0.00000         *
 * H               3      0.00000              0.00000             -0.00000         *
 * H               4     -0.00000             -0.00000             -0.00000         *
 * H               5     -0.00000              0.00000              0.00000         *
 * H               6      0.00000             -0.00000              0.00000         *
 * H               7      0.00000              0.00000             -0.00000         *
 * H               8     -0.00000             -0.00000             -0.00000         *
 *                                                                                  *
 ************************************************************************************

 *********** Symmetrised Stress Tensor ***********
 *                                               *
 *          Cartesian components (GPa)           *
 * --------------------------------------------- *
 *             x             y             z     *
 *                                               *
 *  x   -129.999997     -0.000000      0.000000  *
 *  y     -0.000000   -130.000005      0.000000  *
 *  z      0.000000      0.000000   -130.000005  *
 *                                               *
 *  Pressure:  130.0000                          *
 *                                               *
 *************************************************
  
 +------------+-------------+-------------+-----------------+ <-- min LBFGS
 |    Step    |   lambda    |   F.delta'  |    enthalpy     | <-- min LBFGS
 +------------+-------------+-------------+-----------------+ <-- min LBFGS
 |  previous  |    0.000000 |  4.298E-008 |     -106.068342 | <-- min LBFGS
 | trial step |    1.000000 | -5.028E-011 |     -106.068342 | <-- min LBFGS
 +------------+-------------+-------------+-----------------+ <-- min LBFGS
  
 LBFGS: finished iteration    11 with enthalpy= -1.06068342E+002 eV
  
 +-----------+-----------------+-----------------+------------+-----+ <-- LBFGS
 | Parameter |      value      |    tolerance    |    units   | OK? | <-- LBFGS
 +-----------+-----------------+-----------------+------------+-----+ <-- LBFGS
 |  dE/ion   |   4.440974E-013 |   1.000000E-009 |         eV | Yes | <-- LBFGS
 |  |F|max   |   1.494400E-007 |   1.000000E-005 |       eV/A | Yes | <-- LBFGS
 |  |dR|max  |   4.777398E-008 |   1.000000E-005 |          A | Yes | <-- LBFGS
 |   Smax    |   5.012896E-006 |   1.000000E-005 |        GPa | Yes | <-- LBFGS
 +-----------+-----------------+-----------------+------------+-----+ <-- LBFGS
  
 LBFGS: Geometry optimization completed successfully.

================================================================================
 LBFGS: Final Configuration:
================================================================================

                           -------------------------------
                                      Unit Cell
                           -------------------------------
        Real Lattice(A)              Reciprocal Lattice(1/A)
     1.8656053    -0.0000000     0.0000000        3.367907076   0.000000000   0.000000000
    -0.0000000     3.0451481     0.0000000        0.000000000   2.063343109   0.000000000
     0.0000000     0.0000000     2.8763237        0.000000000   0.000000000   2.184449975

                       Lattice parameters(A)       Cell Angles
                    a =      1.865605          alpha =   90.000000
                    b =      3.045148          beta  =   90.000000
                    c =      2.876324          gamma =   90.000000

                Current cell volume =            16.340523 A**3

                           -------------------------------
                                     Cell Contents
                           -------------------------------

            xxxxxxxxxxxxxxxxxxxxxxxxxxxxxxxxxxxxxxxxxxxxxxxxxxxxxxxxxxxxxxxxx
            x  Element         Atom        Fractional coordinates of atoms  x
            x                 Number           u          v          w      x
            x---------------------------------------------------------------x
            x  H                 1         0.000000   0.385793   0.447961   x
            x  H                 2         0.000000   0.114207   0.947961   x
            x  H                 3         0.000000   0.885793   0.052039   x
            x  H                 4        -0.000000   0.614207   0.552039   x
            x  H                 5         0.500000   0.885793   0.447961   x
            x  H                 6         0.500000   0.614207   0.947961   x
            x  H                 7         0.500000   0.385793   0.052039   x
            x  H                 8         0.500000   0.114207   0.552039   x
            xxxxxxxxxxxxxxxxxxxxxxxxxxxxxxxxxxxxxxxxxxxxxxxxxxxxxxxxxxxxxxxxx


 LBFGS: Final Enthalpy     = -1.06068342E+002 eV
 LBFGS: Final <frequency>  =     560.96927 cm-1
 LBFGS: Final bulk modulus =     264.95280 GPa

 ******************************** Symmetrised Forces ********************************
 *                                                                                  *
 *                           Cartesian components (eV/A)                            *
 * -------------------------------------------------------------------------------- *
 *                         x                    y                    z              *
 *                                                                                  *
 * H               1      0.00000              0.00000              0.00000         *
 * H               2      0.00000             -0.00000              0.00000         *
 * H               3      0.00000              0.00000             -0.00000         *
 * H               4     -0.00000             -0.00000             -0.00000         *
 * H               5     -0.00000              0.00000              0.00000         *
 * H               6      0.00000             -0.00000              0.00000         *
 * H               7      0.00000              0.00000             -0.00000         *
 * H               8     -0.00000             -0.00000             -0.00000         *
 *                                                                                  *
 ************************************************************************************

 *********** Symmetrised Stress Tensor ***********
 *                                               *
 *          Cartesian components (GPa)           *
 * --------------------------------------------- *
 *             x             y             z     *
 *                                               *
 *  x   -129.999997     -0.000000      0.000000  *
 *  y     -0.000000   -130.000005      0.000000  *
 *  z      0.000000      0.000000   -130.000005  *
 *                                               *
 *  Pressure:  130.0000                          *
 *                                               *
 *************************************************

 Pseudo atomic calculation performed for H 1s1

 Converged in 24 iterations to a total energy of -12.4843 eV

Charge spilling parameter for spin component 1 = 0.54%

            Orbital Populations       
     Ion    Atom   Orbital             Charge
  -------------------------------------------
      H     1      S                    0.996
      H     2      S                    1.004
      H     3      S                    1.004
      H     4      S                    0.996
      H     5      S                    0.996
      H     6      S                    1.004
      H     7      S                    1.004
      H     8      S                    0.996
  -------------------------------------------
                           Total:       8.000
  -------------------------------------------

     Atomic Populations (Mulliken)
     -----------------------------
Species          Ion     s      p      d      f     Total  Charge (e)
=====================================================================
  H               1     1.00   0.00   0.00   0.00   1.00     0.00
  H               2     1.00   0.00   0.00   0.00   1.00     0.00
  H               3     1.00   0.00   0.00   0.00   1.00     0.00
  H               4     1.00   0.00   0.00   0.00   1.00     0.00
  H               5     1.00   0.00   0.00   0.00   1.00     0.00
  H               6     1.00   0.00   0.00   0.00   1.00     0.00
  H               7     1.00   0.00   0.00   0.00   1.00     0.00
  H               8     1.00   0.00   0.00   0.00   1.00     0.00
=====================================================================

                 Bond                   Population      Length (A)
======================================================================
               H 6 -- H 7                    1.16        0.75724
               H 1 -- H 4                    1.16        0.75724
               H 2 -- H 3                    1.16        0.75724
               H 5 -- H 8                    1.16        0.75724
               H 4 -- H 5                    0.09        1.28207
               H 3 -- H 6                    0.09        1.28207
               H 2 -- H 7                    0.09        1.28207
               H 1 -- H 8                    0.09        1.28207
               H 3 -- H 5                   -0.17        1.47207
               H 1 -- H 7                   -0.17        1.47207
               H 4 -- H 6                   -0.17        1.47207
               H 2 -- H 8                   -0.17        1.47207
               H 5 -- H 6                   -0.10        1.65900
               H 3 -- H 4                   -0.10        1.65900
               H 1 -- H 2                   -0.10        1.65900
               H 7 -- H 8                   -0.10        1.65900
               H 3 -- H 7                   -0.57        1.78560
               H 1 -- H 5                   -0.57        1.78560
               H 4 -- H 8                   -0.57        1.78560
               H 2 -- H 6                   -0.57        1.78560
               H 1 -- H 6                   -0.45        1.84993
               H 4 -- H 7                   -0.45        1.84993
               H 2 -- H 5                   -0.45        1.84993
               H 3 -- H 8                   -0.45        1.84993
======================================================================


Writing analysis data to Cmca4.castep_bin

Writing model to Cmca4.check
 
 A BibTeX formatted list of references used in this run has been written to 
 Cmca4.bib
 
Initialisation time =      2.71 s
Calculation time    =     71.92 s
Finalisation time   =      0.72 s
Total time          =     75.36 s
Peak Memory Use     = 517252 kB
  
Overall parallel efficiency rating: Very good (84%)                             
  
Data was distributed by:-
k-point (32-way); efficiency rating: Very good (85%)                            
  
Parallel notes:
1) Calculation only took 74.7 s, so efficiency estimates may be inaccurate.     
