 +-------------------------------------------------+
 |                                                 |
 |      CCC   AA    SSS  TTTTT  EEEEE  PPPP        |
 |     C     A  A  S       T    E      P   P       |
 |     C     AAAA   SS     T    EEE    PPPP        |
 |     C     A  A     S    T    E      P           |
 |      CCC  A  A  SSS     T    EEEEE  P           |
 |                                                 |
 +-------------------------------------------------+
 |                                                 |
 | Welcome to Academic Release CASTEP version 18.1 |          
 | Ab Initio Total Energy Program                  |
 |                                                 |
 | Authors:                                        |
 | M. Segall, M. Probert, C. Pickard, P. Hasnip,   |
 | S. Clark, K. Refson, J. R. Yates, M. Payne      |
 |                                                 |
 | Contributors:                                   |
 | P. Lindan, P. Haynes, J. White, V. Milman,      |
 | N. Govind, M. Gibson, P. Tulip, V. Cocula,      |
 | B. Montanari, D. Quigley, M. Glover,            |
 | L. Bernasconi, A. Perlov, M. Plummer,           |
 | E. McNellis, J. Meyer, J. Gale, D. Jochym       |
 | J. Aarons, B. Walker, R. Gillen, D. Jones       |
 | T. Green, I. J. Bush, C. J. Armstrong,          |
 | E. J. Higgins, E. L. Brown, M. S. McFly,        |
 | J. Wilkins, B-C. Shih, P. J. P. Byrne           |
 |                                                 |
 | Copyright (c) 2000 - 2017                       |
 |                                                 |
 |     Distributed under the terms of an           |
 |     Agreement between the United Kingdom        |
 |     Car-Parrinello (UKCP) Consortium,           |
 |     Daresbury Laboratory and Accelrys, Inc.     |
 |                                                 |
 | Please cite                                     |
 |                                                 |
 |     "First principles methods using CASTEP"     |
 |                                                 |
 |         Zeitschrift fuer Kristallographie       |
 |           220(5-6) pp. 567-570 (2005)           |
 |                                                 |
 | S. J. Clark, M. D. Segall, C. J. Pickard,       |
 | P. J. Hasnip, M. J. Probert, K. Refson,         |
 | M. C. Payne                                     |
 |                                                 |
 |       in all publications arising from          |
 |              your use of CASTEP                 |
 |                                                 |
 +-------------------------------------------------+


 Compiled for linux_x86_64_gfortran4.8 on Thu, 19 Jul 2018 15:42:32 +0100
 from code version 70483bd0ad64+  Sun, 10 Dec 2017 12:18:29 +0000
 Compiler: GNU Fortran 4.8.5; Optimisation: fast
 MATHLIBS: Intel MKL(2018.0.0) (LAPACK version 3.7.0)
 FFT Lib : mkl
 Fundamental constants values: CODATA 2014

 Run started: Wed, 26 Aug 2020 15:19:12 +0100

 Atomic calculation performed for H: 1s1

 Converged in 41 iterations to an ae energy of -12.488 eV

   ============================================================                
   | Pseudopotential Report - Date of generation 26-08-2020   |                
   ------------------------------------------------------------                
   | Element: H Ionic charge:  1.00 Level of theory: PBE      |                
   | Atomic Solver: Koelling-Harmon                           |                
   |                                                          |                
   |               Reference Electronic Structure             |                
   |         Orbital         Occupation         Energy        |                
   |            1s              1.000           -0.239        |                
   |                                                          |                
   |                 Pseudopotential Definition               |                
   |        Beta     l      e      Rc     scheme   norm       |                
   |         loc     0   -0.239   0.702     qc      1         |                
   |                                                          |                
   | No charge augmentation                                   |                
   | No partial core correction                               |                
   ------------------------------------------------------------                
   | "0|0.7|2|6|8|10L(qc=10)"                                 |                
   ------------------------------------------------------------                
   |      Author: Chris J. Pickard, Cambridge University      |                
   ============================================================                

 Pseudo atomic calculation performed for H 1s1

 Converged in 24 iterations to a total energy of -12.4843 eV

 Calculation parallelised over 32 processes.
 Data is distributed by k-point(32-way)

 ************************************ Title ************************************
 

 ***************************** General Parameters ******************************
  
 output verbosity                               : normal  (1)
 write checkpoint data to                       : Cmca4.check
 type of calculation                            : geometry optimization
 stress calculation                             : on
 density difference calculation                 : off
 electron localisation func (ELF) calculation   : off
 Hirshfeld analysis                             : off
 unlimited duration calculation
 timing information                             : on
 memory usage estimate                          : on
 write extra output files                       : on
 write final potential to formatted file        : off
 write final density to formatted file          : off
 write structure in CELL formatted file         : on
 write BibTeX reference list                    : on
 write OTFG pseudopotential files               : on
 write electrostatic potential file             : on
 write bands file                               : on
 checkpoint writing                             : both castep_bin and check files
  
 output         length unit                     : A
 output           mass unit                     : amu
 output           time unit                     : ps
 output         charge unit                     : e
 output           spin unit                     : hbar/2
 output         energy unit                     : eV
 output          force unit                     : eV/A
 output       velocity unit                     : A/ps
 output       pressure unit                     : GPa
 output     inv_length unit                     : 1/A
 output      frequency unit                     : cm-1
 output force constant unit                     : eV/A**2
 output         volume unit                     : A**3
 output   IR intensity unit                     : (D/A)**2/amu
 output         dipole unit                     : D
 output         efield unit                     : eV/A/e
 output        entropy unit                     : J/mol/K
  
 wavefunctions paging                           : none
 random number generator seed                   : randomised (151912188)
 data distribution                              : optimal for this architecture
 optimization strategy                          : maximize speed(+++)

 *********************** Exchange-Correlation Parameters ***********************
  
 using functional                               : Perdew Burke Ernzerhof
 relativistic treatment                         : Koelling-Harmon
 DFT+D: Semi-empirical dispersion correction    : off

 ************************* Pseudopotential Parameters **************************
  
 pseudopotential representation                 : reciprocal space
 <beta|phi> representation                      : reciprocal space
 spin-orbit coupling                            : off

 **************************** Basis Set Parameters *****************************
  
 plane wave basis set cut-off                   :  1200.0000   eV
 size of standard grid                          :     2.0000
 size of   fine   gmax                          :    35.4943   1/A
 finite basis set correction                    : automatic
 number of sample energies                      :          3
           sample  spacing                      :     5.0000   eV

 **************************** Electronic Parameters ****************************
  
 number of  electrons                           :  8.000    
 net charge of system                           :  0.000    
 treating system as non-spin-polarized
 number of bands                                :          4

 ********************* Electronic Minimization Parameters **********************
  
 Method: Treating system as non-metallic,
         and number of  SD  steps               :          1
         and number of  CG  steps               :          4
  
 total energy / atom convergence tol.           : 0.1000E-10   eV
 eigen-energy convergence tolerance             : 0.2000E-10   eV
 max force / atom convergence tol.              : ignored
 convergence tolerance window                   :          3   cycles
 max. number of SCF cycles                      :        100
 periodic dipole correction                     : NONE

 ************************** Density Mixing Parameters **************************
  
 density-mixing scheme                          : Broyden
 max. length of mixing history                  :         20
 charge density mixing amplitude                : 0.8000    
 cut-off energy for mixing                      :  1200.       eV

 *********************** Population Analysis Parameters ************************
  
 Population analysis with cutoff                :  3.000       A
 Population analysis output                     : summary and pdos components

 ********************** Geometry Optimization Parameters ***********************
  
 optimization method                            : LBFGS
 max. no. of LBFGS updates                      : unbounded
 variable cell method                           : fixed basis quality
 max. number of steps                           :         60
 estimated bulk modulus                         :  500.0       GPa
 estimated <frequency>                          :  1668.       cm-1
 geom line minimiser                            : on
 with line minimiser tolerance                  :     0.4000
 total energy convergence tolerance             : 0.1000E-08   eV/atom
        max ionic |force| tolerance             : 0.1000E-04   eV/A
 max ionic |displacement| tolerance             : 0.1000E-04   A
   max |stress component| tolerance             : 0.1000E-04   GPa
 convergence tolerance window                   :          2   steps
 backup results every                           :      14400   seconds
 write geom trajectory file                     : on

 *******************************************************************************
  

                           -------------------------------
                                      Unit Cell
                           -------------------------------
        Real Lattice(A)                      Reciprocal Lattice(1/A)
     2.8451638    -0.0000000     0.0000000        2.208373866   0.000000000   0.000000000
    -0.0000000     2.8149864     0.0000000        0.000000000   2.232048187   0.000000000
     0.0000000     0.0000000     2.8339126        0.000000000   0.000000000   2.217141499

                       Lattice parameters(A)       Cell Angles
                    a =      2.845164          alpha =   90.000000
                    b =      2.814986          beta  =   90.000000
                    c =      2.833913          gamma =   90.000000

                       Current cell volume =            22.697082       A**3
                                   density =             0.355267   AMU/A**3
                                           =             0.589934     g/cm^3

                           -------------------------------
                                     Cell Contents
                           -------------------------------
                         Total number of ions in cell =    8
                      Total number of species in cell =    1
                        Max number of any one species =    8

            xxxxxxxxxxxxxxxxxxxxxxxxxxxxxxxxxxxxxxxxxxxxxxxxxxxxxxxxxxxx
            x  Element    Atom        Fractional coordinates of atoms  x
            x            Number           u          v          w      x
            x----------------------------------------------------------x
            x  H            1        -0.000000   0.405655   0.410757   x 
            x  H            2         0.000000   0.094345   0.910757   x 
            x  H            3         0.000000   0.905655   0.089243   x 
            x  H            4         0.000000   0.594345   0.589243   x 
            x  H            5         0.500000   0.905655   0.410757   x 
            x  H            6         0.500000   0.594345   0.910757   x 
            x  H            7         0.500000   0.405655   0.089243   x 
            x  H            8         0.500000   0.094345   0.589243   x 
            xxxxxxxxxxxxxxxxxxxxxxxxxxxxxxxxxxxxxxxxxxxxxxxxxxxxxxxxxxxx


                         No user defined ionic velocities

                           -------------------------------
                                   Details of Species
                           -------------------------------

                               Mass of species in AMU
                                    H    1.0079400

                          Electric Quadrupole Moment (Barn)
                                    H    0.0028600 Isotope  2

                          Files used for pseudopotentials:
                                    H 0|0.7|2|6|8|10L(qc=10)

                           -------------------------------
                              k-Points For BZ Sampling
                           -------------------------------
                       MP grid size for SCF calculation is 11 11 11
                            with an offset of   0.000  0.000  0.000
                       Number of kpoints used =           216

                           -------------------------------
                               Symmetry and Constraints
                           -------------------------------

                      Cell is a supercell containing 2 primitive cells
                      Maximum deviation from symmetry = 0.875074E-14     ANG

                      Number of symmetry operations   =          16
                      Number of ionic constraints     =           3
                      Point group of crystal =     8: D2h, mmm, 2/m 2/m 2/m
                      Space group of crystal =    64: Cmce, -C 2bc 2

             Set iprint > 1 for details on symmetry rotations/translations

                         Centre of mass is constrained
             Set iprint > 1 for details of linear ionic constraints

                         Number of cell constraints= 3
                         Cell constraints are:  1 2 3 0 0 0

                         External pressure/stress (GPa)
                         50.00000   0.00000   0.00000
                                   50.00000   0.00000
                                             50.00000
  
+---------------- MEMORY AND SCRATCH DISK ESTIMATES PER PROCESS --------------+
|                                                     Memory          Disk    |
| Baseline code, static data and system overhead      478.0 MB         0.0 MB |
| BLAS internal memory storage                          0.0 MB         0.0 MB |
| Model and support data                               15.0 MB         0.0 MB |
| Electronic energy minimisation requirements          10.3 MB         0.0 MB |
| Force calculation requirements                        4.7 MB         0.0 MB |
| Stress calculation requirements                       6.0 MB         0.0 MB |
|                                               ----------------------------- |
| Approx. total storage required per process          503.3 MB         0.0 MB |
|                                                                             |
| Requirements will fluctuate during execution and may exceed these estimates |
+-----------------------------------------------------------------------------+
Calculating finite basis set correction with  3 cut-off energies.
Calculating total energy with cut-off of 1190.000 eV.
------------------------------------------------------------------------ <-- SCF
SCF loop      Energy                           Energy gain       Timer   <-- SCF
                                               per atom          (sec)   <-- SCF
------------------------------------------------------------------------ <-- SCF
Initial   2.04897142E+002                                          2.95  <-- SCF
      1  -1.00984964E+002                    3.82352633E+001       3.49  <-- SCF
      2  -1.23746845E+002                    2.84523515E+000       3.88  <-- SCF
      3  -1.23841537E+002                    1.18365310E-002       4.19  <-- SCF
      4  -1.23063098E+002                   -9.73048854E-002       4.86  <-- SCF
      5  -1.23037505E+002                   -3.19913059E-003       5.54  <-- SCF
      6  -1.23038602E+002                    1.37133583E-004       6.23  <-- SCF
      7  -1.23038724E+002                    1.52877039E-005       6.89  <-- SCF
      8  -1.23038725E+002                    4.93694346E-008       7.57  <-- SCF
      9  -1.23038725E+002                    3.76147172E-009       8.23  <-- SCF
     10  -1.23038725E+002                    5.10319268E-011       8.77  <-- SCF
     11  -1.23038725E+002                    8.48920875E-013       9.30  <-- SCF
     12  -1.23038725E+002                   -2.05432810E-013       9.83  <-- SCF
------------------------------------------------------------------------ <-- SCF
 
Final energy =  -123.0387248283     eV
(energy not corrected for finite basis set)
 
Calculating total energy with cut-off of 1195.000 eV.
------------------------------------------------------------------------ <-- SCF
SCF loop      Energy                           Energy gain       Timer   <-- SCF
                                               per atom          (sec)   <-- SCF
------------------------------------------------------------------------ <-- SCF
Initial  -1.23038725E+002                                         10.33  <-- SCF
      1  -1.23039327E+002                    7.52478725E-005      10.77  <-- SCF
      2  -1.23039327E+002                    7.44150142E-011      11.42  <-- SCF
      3  -1.23039327E+002                    3.30957875E-008      12.09  <-- SCF
      4  -1.23039327E+002                    1.98260183E-009      12.77  <-- SCF
      5  -1.23039327E+002                    2.31202543E-011      13.35  <-- SCF
      6  -1.23039327E+002                    1.24770221E-012      13.91  <-- SCF
      7  -1.23039327E+002                    1.51053536E-013      14.45  <-- SCF
------------------------------------------------------------------------ <-- SCF
 
Final energy =  -123.0393270927     eV
(energy not corrected for finite basis set)
 
Calculating total energy with cut-off of 1200.000 eV.
------------------------------------------------------------------------ <-- SCF
SCF loop      Energy                           Energy gain       Timer   <-- SCF
                                               per atom          (sec)   <-- SCF
------------------------------------------------------------------------ <-- SCF
Initial  -1.23039327E+002                                         14.96  <-- SCF
      1  -1.23039896E+002                    7.10922509E-005      15.45  <-- SCF
      2  -1.23039896E+002                    7.02127048E-011      16.15  <-- SCF
      3  -1.23039896E+002                    3.09643104E-008      16.90  <-- SCF
      4  -1.23039896E+002                    1.78190909E-009      17.64  <-- SCF
      5  -1.23039896E+002                    2.04949438E-011      18.28  <-- SCF
      6  -1.23039896E+002                    1.20238615E-012      18.90  <-- SCF
      7  -1.23039896E+002                    1.72201032E-013      19.48  <-- SCF
------------------------------------------------------------------------ <-- SCF
 
Final energy =  -123.0398960934     eV
(energy not corrected for finite basis set)
 
 For future reference: finite basis dEtot/dlog(Ecut) =      -0.139547eV
 Total energy corrected for finite basis set =    -123.039894 eV
 
+---------------- MEMORY AND SCRATCH DISK ESTIMATES PER PROCESS --------------+
|                                                     Memory          Disk    |
| Model and support data                               24.1 MB         0.0 MB |
| Electronic energy minimisation requirements          10.3 MB         0.0 MB |
| Geometry minimisation requirements                   12.2 MB         0.0 MB |
|                                               ----------------------------- |
| Approx. total storage required per process           46.6 MB         0.0 MB |
|                                                                             |
| Requirements will fluctuate during execution and may exceed these estimates |
+-----------------------------------------------------------------------------+
 

 ******************************** Symmetrised Forces ********************************
 *                                                                                  *
 *                           Cartesian components (eV/A)                            *
 * -------------------------------------------------------------------------------- *
 *                         x                    y                    z              *
 *                                                                                  *
 * H               1      0.00000             -0.00000             -0.00000         *
 * H               2      0.00000              0.00000             -0.00000         *
 * H               3      0.00000             -0.00000              0.00000         *
 * H               4      0.00000              0.00000              0.00000         *
 * H               5      0.00000             -0.00000             -0.00000         *
 * H               6      0.00000              0.00000             -0.00000         *
 * H               7      0.00000             -0.00000              0.00000         *
 * H               8      0.00000              0.00000              0.00000         *
 *                                                                                  *
 ************************************************************************************

 *********** Symmetrised Stress Tensor ***********
 *                                               *
 *          Cartesian components (GPa)           *
 * --------------------------------------------- *
 *             x             y             z     *
 *                                               *
 *  x    -59.955700      0.000000      0.000000  *
 *  y      0.000000    -59.955715      0.000000  *
 *  z      0.000000      0.000000    -59.955710  *
 *                                               *
 *  Pressure:   59.9557                          *
 *                                               *
 *************************************************
 LBFGS: finished iteration     0 with enthalpy= -1.15956692E+002 eV
  
 +-----------+-----------------+-----------------+------------+-----+ <-- LBFGS
 | Parameter |      value      |    tolerance    |    units   | OK? | <-- LBFGS
 +-----------+-----------------+-----------------+------------+-----+ <-- LBFGS
 |  dE/ion   |   0.000000E+000 |   1.000000E-009 |         eV | No  | <-- LBFGS
 |  |F|max   |   4.499904E-007 |   1.000000E-005 |       eV/A | Yes | <-- LBFGS
 |  |dR|max  |   0.000000E+000 |   1.000000E-005 |          A | No  | <-- LBFGS
 |   Smax    |   9.955715E+000 |   1.000000E-005 |        GPa | No  | <-- LBFGS
 +-----------+-----------------+-----------------+------------+-----+ <-- LBFGS
  

================================================================================
 Starting LBFGS iteration          1 ...
================================================================================
  
 +------------+-------------+-------------+-----------------+ <-- min LBFGS
 |    Step    |   lambda    |   F.delta'  |    enthalpy     | <-- min LBFGS
 +------------+-------------+-------------+-----------------+ <-- min LBFGS
 |  previous  |    0.000000 |    0.089772 |     -115.956692 | <-- min LBFGS
 +------------+-------------+-------------+-----------------+ <-- min LBFGS
  

--------------------------------------------------------------------------------
 LBFGS: starting iteration         1 with trial guess (lambda=  1.000000)
--------------------------------------------------------------------------------
 
+---------------- MEMORY AND SCRATCH DISK ESTIMATES PER PROCESS --------------+
|                                                     Memory          Disk    |
| Model and support data                               25.0 MB         0.0 MB |
| Electronic energy minimisation requirements          10.9 MB         0.0 MB |
| Geometry minimisation requirements                   12.9 MB         0.0 MB |
|                                               ----------------------------- |
| Approx. total storage required per process           48.8 MB         0.0 MB |
|                                                                             |
| Requirements will fluctuate during execution and may exceed these estimates |
+-----------------------------------------------------------------------------+
 

                           -------------------------------
                                      Unit Cell
                           -------------------------------
        Real Lattice(A)              Reciprocal Lattice(1/A)
     2.8640475    -0.0000000     0.0000000        2.193813235   0.000000000   0.000000000
    -0.0000000     2.8336699     0.0000000        0.000000000   2.217331441   0.000000000
     0.0000000     0.0000000     2.8527217        0.000000000   0.000000000   2.202523045

                       Lattice parameters(A)       Cell Angles
                    a =      2.864047          alpha =   90.000000
                    b =      2.833670          beta  =   90.000000
                    c =      2.852722          gamma =   90.000000

                Current cell volume =            23.152019 A**3

                           -------------------------------
                                     Cell Contents
                           -------------------------------

            xxxxxxxxxxxxxxxxxxxxxxxxxxxxxxxxxxxxxxxxxxxxxxxxxxxxxxxxxxxxxxxxx
            x  Element         Atom        Fractional coordinates of atoms  x
            x                 Number           u          v          w      x
            x---------------------------------------------------------------x
            x  H                 1         0.000000   0.405655   0.410757   x
            x  H                 2        -0.000000   0.094345   0.910757   x
            x  H                 3         0.000000   0.905655   0.089243   x
            x  H                 4        -0.000000   0.594345   0.589243   x
            x  H                 5         0.500000   0.905655   0.410757   x
            x  H                 6         0.500000   0.594345   0.910757   x
            x  H                 7         0.500000   0.405655   0.089243   x
            x  H                 8         0.500000   0.094345   0.589243   x
            xxxxxxxxxxxxxxxxxxxxxxxxxxxxxxxxxxxxxxxxxxxxxxxxxxxxxxxxxxxxxxxxx


------------------------------------------------------------------------ <-- SCF
SCF loop      Energy                           Energy gain       Timer   <-- SCF
                                               per atom          (sec)   <-- SCF
------------------------------------------------------------------------ <-- SCF
Initial  -1.23199507E+002                                         20.94  <-- SCF
      1  -1.23204379E+002                    6.08982699E-004      21.45  <-- SCF
      2  -1.23204387E+002                    1.05042924E-006      22.27  <-- SCF
      3  -1.23204211E+002                   -2.19344547E-005      23.10  <-- SCF
      4  -1.23204207E+002                   -5.47769935E-007      23.91  <-- SCF
      5  -1.23204207E+002                    2.82405915E-008      24.71  <-- SCF
      6  -1.23204207E+002                    2.93743239E-009      25.51  <-- SCF
      7  -1.23204207E+002                    1.22957579E-011      26.14  <-- SCF
      8  -1.23204207E+002                    7.19014834E-013      26.77  <-- SCF
      9  -1.23204207E+002                    7.25056975E-014      27.39  <-- SCF
------------------------------------------------------------------------ <-- SCF
 
Final energy =  -123.2042073001     eV
(energy not corrected for finite basis set)
 

 ******************************** Symmetrised Forces ********************************
 *                                                                                  *
 *                           Cartesian components (eV/A)                            *
 * -------------------------------------------------------------------------------- *
 *                         x                    y                    z              *
 *                                                                                  *
 * H               1      0.00000              0.10686              0.10168         *
 * H               2      0.00000             -0.10686              0.10168         *
 * H               3     -0.00000              0.10686             -0.10168         *
 * H               4      0.00000             -0.10686             -0.10168         *
 * H               5      0.00000              0.10686              0.10168         *
 * H               6      0.00000             -0.10686              0.10168         *
 * H               7      0.00000              0.10686             -0.10168         *
 * H               8      0.00000             -0.10686             -0.10168         *
 *                                                                                  *
 ************************************************************************************

 *********** Symmetrised Stress Tensor ***********
 *                                               *
 *          Cartesian components (GPa)           *
 * --------------------------------------------- *
 *             x             y             z     *
 *                                               *
 *  x    -56.923856     -0.000000      0.000000  *
 *  y     -0.000000    -55.288000      0.000000  *
 *  z      0.000000      0.000000    -55.432893  *
 *                                               *
 *  Pressure:   55.8816                          *
 *                                               *
 *************************************************
  
 +------------+-------------+-------------+-----------------+ <-- min LBFGS
 |    Step    |   lambda    |   F.delta'  |    enthalpy     | <-- min LBFGS
 +------------+-------------+-------------+-----------------+ <-- min LBFGS
 |  previous  |    0.000000 |    0.089772 |     -115.956692 | <-- min LBFGS
 | trial step |    1.000000 |    0.053741 |     -115.979040 | <-- min LBFGS
 +------------+-------------+-------------+-----------------+ <-- min LBFGS
  

--------------------------------------------------------------------------------
 LBFGS: improving iteration         1 with line minimization (lambda=  2.491537)
--------------------------------------------------------------------------------
 
+---------------- MEMORY AND SCRATCH DISK ESTIMATES PER PROCESS --------------+
|                                                     Memory          Disk    |
| Model and support data                               25.1 MB         0.0 MB |
| Electronic energy minimisation requirements          11.1 MB         0.0 MB |
| Geometry minimisation requirements                   13.1 MB         0.0 MB |
|                                               ----------------------------- |
| Approx. total storage required per process           49.3 MB         0.0 MB |
|                                                                             |
| Requirements will fluctuate during execution and may exceed these estimates |
+-----------------------------------------------------------------------------+
 

                           -------------------------------
                                      Unit Cell
                           -------------------------------
        Real Lattice(A)              Reciprocal Lattice(1/A)
     2.8922133    -0.0000000     0.0000000        2.172448820   0.000000000   0.000000000
    -0.0000000     2.8615369     0.0000000        0.000000000   2.195737961   0.000000000
     0.0000000     0.0000000     2.8807761        0.000000000   0.000000000   2.181073786

                       Lattice parameters(A)       Cell Angles
                    a =      2.892213          alpha =   90.000000
                    b =      2.861537          beta  =   90.000000
                    c =      2.880776          gamma =   90.000000

                Current cell volume =            23.841808 A**3

                           -------------------------------
                                     Cell Contents
                           -------------------------------

            xxxxxxxxxxxxxxxxxxxxxxxxxxxxxxxxxxxxxxxxxxxxxxxxxxxxxxxxxxxxxxxxx
            x  Element         Atom        Fractional coordinates of atoms  x
            x                 Number           u          v          w      x
            x---------------------------------------------------------------x
            x  H                 1         0.000000   0.405655   0.410757   x
            x  H                 2        -0.000000   0.094345   0.910757   x
            x  H                 3         0.000000   0.905655   0.089243   x
            x  H                 4        -0.000000   0.594345   0.589243   x
            x  H                 5         0.500000   0.905655   0.410757   x
            x  H                 6         0.500000   0.594345   0.910757   x
            x  H                 7         0.500000   0.405655   0.089243   x
            x  H                 8         0.500000   0.094345   0.589243   x
            xxxxxxxxxxxxxxxxxxxxxxxxxxxxxxxxxxxxxxxxxxxxxxxxxxxxxxxxxxxxxxxxx


------------------------------------------------------------------------ <-- SCF
SCF loop      Energy                           Energy gain       Timer   <-- SCF
                                               per atom          (sec)   <-- SCF
------------------------------------------------------------------------ <-- SCF
Initial  -1.23423220E+002                                         28.65  <-- SCF
      1  -1.23432567E+002                    1.16841558E-003      29.16  <-- SCF
      2  -1.23432585E+002                    2.28236060E-006      29.96  <-- SCF
      3  -1.23432196E+002                   -4.86174729E-005      30.77  <-- SCF
      4  -1.23432187E+002                   -1.21929487E-006      31.59  <-- SCF
      5  -1.23432187E+002                    6.59783479E-008      32.38  <-- SCF
      6  -1.23432187E+002                    6.96804828E-009      33.19  <-- SCF
      7  -1.23432187E+002                    2.72742265E-011      33.83  <-- SCF
      8  -1.23432187E+002                    2.77032186E-012      34.47  <-- SCF
      9  -1.23432187E+002                    2.71896366E-013      35.11  <-- SCF
------------------------------------------------------------------------ <-- SCF
 
Final energy =  -123.4321871990     eV
(energy not corrected for finite basis set)
 

 ******************************** Symmetrised Forces ********************************
 *                                                                                  *
 *                           Cartesian components (eV/A)                            *
 * -------------------------------------------------------------------------------- *
 *                         x                    y                    z              *
 *                                                                                  *
 * H               1      0.00000              0.26066              0.24798         *
 * H               2     -0.00000             -0.26066              0.24798         *
 * H               3      0.00000              0.26066             -0.24798         *
 * H               4      0.00000             -0.26066             -0.24798         *
 * H               5      0.00000              0.26066              0.24798         *
 * H               6      0.00000             -0.26066              0.24798         *
 * H               7      0.00000              0.26066             -0.24798         *
 * H               8      0.00000             -0.26066             -0.24798         *
 *                                                                                  *
 ************************************************************************************

 *********** Symmetrised Stress Tensor ***********
 *                                               *
 *          Cartesian components (GPa)           *
 * --------------------------------------------- *
 *             x             y             z     *
 *                                               *
 *  x    -52.694280      0.000000      0.000000  *
 *  y      0.000000    -48.782651      0.000000  *
 *  z      0.000000      0.000000    -49.130251  *
 *                                               *
 *  Pressure:   50.2024                          *
 *                                               *
 *************************************************
  
 +------------+-------------+-------------+-----------------+ <-- min LBFGS
 |    Step    |   lambda    |   F.delta'  |    enthalpy     | <-- min LBFGS
 +------------+-------------+-------------+-----------------+ <-- min LBFGS
 |  previous  |    0.000000 |    0.089772 |     -115.956692 | <-- min LBFGS
 | trial step |    1.000000 |    0.053741 |     -115.979040 | <-- min LBFGS
 |  line step |    2.491537 |    0.001885 |     -115.991746 | <-- min LBFGS
 +------------+-------------+-------------+-----------------+ <-- min LBFGS
  
 LBFGS: finished iteration     1 with enthalpy= -1.15991746E+002 eV
  
 +-----------+-----------------+-----------------+------------+-----+ <-- LBFGS
 | Parameter |      value      |    tolerance    |    units   | OK? | <-- LBFGS
 +-----------+-----------------+-----------------+------------+-----+ <-- LBFGS
 |  dE/ion   |   4.381761E-003 |   1.000000E-009 |         eV | No  | <-- LBFGS
 |  |F|max   |   3.597771E-001 |   1.000000E-005 |       eV/A | No  | <-- LBFGS
 |  |dR|max  |   1.105402E-007 |   1.000000E-005 |          A | Yes | <-- LBFGS
 |   Smax    |   2.694280E+000 |   1.000000E-005 |        GPa | No  | <-- LBFGS
 +-----------+-----------------+-----------------+------------+-----+ <-- LBFGS
  

================================================================================
 Starting LBFGS iteration          2 ...
================================================================================
  
 +------------+-------------+-------------+-----------------+ <-- min LBFGS
 |    Step    |   lambda    |   F.delta'  |    enthalpy     | <-- min LBFGS
 +------------+-------------+-------------+-----------------+ <-- min LBFGS
 |  previous  |    0.000000 |    0.069113 |     -115.991746 | <-- min LBFGS
 +------------+-------------+-------------+-----------------+ <-- min LBFGS
  

--------------------------------------------------------------------------------
 LBFGS: starting iteration         2 with trial guess (lambda=  1.000000)
--------------------------------------------------------------------------------
 
+---------------- MEMORY AND SCRATCH DISK ESTIMATES PER PROCESS --------------+
|                                                     Memory          Disk    |
| Model and support data                               25.3 MB         0.0 MB |
| Electronic energy minimisation requirements          11.7 MB         0.0 MB |
| Geometry minimisation requirements                   13.8 MB         0.0 MB |
|                                               ----------------------------- |
| Approx. total storage required per process           50.8 MB         0.0 MB |
|                                                                             |
| Requirements will fluctuate during execution and may exceed these estimates |
+-----------------------------------------------------------------------------+
 

                           -------------------------------
                                      Unit Cell
                           -------------------------------
        Real Lattice(A)              Reciprocal Lattice(1/A)
     2.9716900    -0.0000000     0.0000000        2.114347477   0.000000000   0.000000000
    -0.0000000     2.9324225     0.0000000        0.000000000   2.142660295   0.000000000
     0.0000000     0.0000000     2.9528314        0.000000000   0.000000000   2.127850995

                       Lattice parameters(A)       Cell Angles
                    a =      2.971690          alpha =   90.000000
                    b =      2.932423          beta  =   90.000000
                    c =      2.952831          gamma =   90.000000

                Current cell volume =            25.731714 A**3

                           -------------------------------
                                     Cell Contents
                           -------------------------------

            xxxxxxxxxxxxxxxxxxxxxxxxxxxxxxxxxxxxxxxxxxxxxxxxxxxxxxxxxxxxxxxxx
            x  Element         Atom        Fractional coordinates of atoms  x
            x                 Number           u          v          w      x
            x---------------------------------------------------------------x
            x  H                 1         0.000000   0.414981   0.419570   x
            x  H                 2         0.000000   0.085019   0.919570   x
            x  H                 3        -0.000000   0.914981   0.080430   x
            x  H                 4        -0.000000   0.585019   0.580430   x
            x  H                 5         0.500000   0.914981   0.419570   x
            x  H                 6         0.500000   0.585019   0.919570   x
            x  H                 7         0.500000   0.414981   0.080430   x
            x  H                 8         0.500000   0.085019   0.580430   x
            xxxxxxxxxxxxxxxxxxxxxxxxxxxxxxxxxxxxxxxxxxxxxxxxxxxxxxxxxxxxxxxxx


------------------------------------------------------------------------ <-- SCF
SCF loop      Energy                           Energy gain       Timer   <-- SCF
                                               per atom          (sec)   <-- SCF
------------------------------------------------------------------------ <-- SCF
Initial  -1.22692490E+002                                         36.60  <-- SCF
      1  -1.23921583E+002                    1.53636577E-001      37.12  <-- SCF
      2  -1.23924697E+002                    3.89296758E-004      37.94  <-- SCF
      3  -1.23822519E+002                   -1.27722508E-002      38.75  <-- SCF
      4  -1.23818962E+002                   -4.44669805E-004      39.62  <-- SCF
      5  -1.23819030E+002                    8.57309627E-006      40.45  <-- SCF
      6  -1.23819038E+002                    9.50909465E-007      41.28  <-- SCF
      7  -1.23819038E+002                    6.13495479E-009      42.11  <-- SCF
      8  -1.23819038E+002                    4.61344690E-010      42.90  <-- SCF
      9  -1.23819038E+002                    1.14589213E-011      43.52  <-- SCF
     10  -1.23819038E+002                    5.43792731E-014      44.15  <-- SCF
     11  -1.23819038E+002                   -2.68875295E-013      44.79  <-- SCF
------------------------------------------------------------------------ <-- SCF
 
Final energy =  -123.8190378749     eV
(energy not corrected for finite basis set)
 

 ******************************** Symmetrised Forces ********************************
 *                                                                                  *
 *                           Cartesian components (eV/A)                            *
 * -------------------------------------------------------------------------------- *
 *                         x                    y                    z              *
 *                                                                                  *
 * H               1      0.00000             -1.41564             -1.34969         *
 * H               2      0.00000              1.41564             -1.34969         *
 * H               3      0.00000             -1.41564              1.34969         *
 * H               4      0.00000              1.41564              1.34969         *
 * H               5      0.00000             -1.41564             -1.34969         *
 * H               6      0.00000              1.41564             -1.34969         *
 * H               7      0.00000             -1.41564              1.34969         *
 * H               8      0.00000              1.41564              1.34969         *
 *                                                                                  *
 ************************************************************************************

 *********** Symmetrised Stress Tensor ***********
 *                                               *
 *          Cartesian components (GPa)           *
 * --------------------------------------------- *
 *             x             y             z     *
 *                                               *
 *  x    -40.958190      0.000000      0.000000  *
 *  y      0.000000    -58.987600      0.000000  *
 *  z      0.000000      0.000000    -57.399080  *
 *                                               *
 *  Pressure:   52.4483                          *
 *                                               *
 *************************************************
  
 +------------+-------------+-------------+-----------------+ <-- min LBFGS
 |    Step    |   lambda    |   F.delta'  |    enthalpy     | <-- min LBFGS
 +------------+-------------+-------------+-----------------+ <-- min LBFGS
 |  previous  |    0.000000 |    0.069113 |     -115.991746 | <-- min LBFGS
 | trial step |    1.000000 |   -0.357643 |     -115.788801 | <-- min LBFGS
 +------------+-------------+-------------+-----------------+ <-- min LBFGS
  

--------------------------------------------------------------------------------
 LBFGS: improving iteration         2 with line minimization (lambda=  0.161949)
--------------------------------------------------------------------------------

                           -------------------------------
                                      Unit Cell
                           -------------------------------
        Real Lattice(A)              Reciprocal Lattice(1/A)
     2.9050845    -0.0000000     0.0000000        2.162823629   0.000000000   0.000000000
    -0.0000000     2.8730168     0.0000000        0.000000000   2.186964345   0.000000000
     0.0000000     0.0000000     2.8924454        0.000000000   0.000000000   2.172274457

                       Lattice parameters(A)       Cell Angles
                    a =      2.905084          alpha =   90.000000
                    b =      2.873017          beta  =   90.000000
                    c =      2.892445          gamma =   90.000000

                Current cell volume =            24.141381 A**3

                           -------------------------------
                                     Cell Contents
                           -------------------------------

            xxxxxxxxxxxxxxxxxxxxxxxxxxxxxxxxxxxxxxxxxxxxxxxxxxxxxxxxxxxxxxxxx
            x  Element         Atom        Fractional coordinates of atoms  x
            x                 Number           u          v          w      x
            x---------------------------------------------------------------x
            x  H                 1         0.000000   0.407166   0.412184   x
            x  H                 2         0.000000   0.092834   0.912184   x
            x  H                 3        -0.000000   0.907166   0.087816   x
            x  H                 4        -0.000000   0.592834   0.587816   x
            x  H                 5         0.500000   0.907166   0.412184   x
            x  H                 6         0.500000   0.592834   0.912184   x
            x  H                 7         0.500000   0.407166   0.087816   x
            x  H                 8         0.500000   0.092834   0.587816   x
            xxxxxxxxxxxxxxxxxxxxxxxxxxxxxxxxxxxxxxxxxxxxxxxxxxxxxxxxxxxxxxxxx


------------------------------------------------------------------------ <-- SCF
SCF loop      Energy                           Energy gain       Timer   <-- SCF
                                               per atom          (sec)   <-- SCF
------------------------------------------------------------------------ <-- SCF
Initial  -1.22677823E+002                                         46.05  <-- SCF
      1  -1.23613165E+002                    1.16917794E-001      46.54  <-- SCF
      2  -1.23615371E+002                    2.75673403E-004      47.36  <-- SCF
      3  -1.23538615E+002                   -9.59444346E-003      48.16  <-- SCF
      4  -1.23536093E+002                   -3.15270683E-004      48.96  <-- SCF
      5  -1.23536124E+002                    3.88889120E-006      49.78  <-- SCF
      6  -1.23536127E+002                    3.69996901E-007      50.60  <-- SCF
      7  -1.23536127E+002                    1.59126442E-009      51.41  <-- SCF
      8  -1.23536127E+002                    2.00191252E-010      52.10  <-- SCF
      9  -1.23536127E+002                    6.74907201E-012      52.71  <-- SCF
     10  -1.23536127E+002                    2.53769941E-013      53.35  <-- SCF
------------------------------------------------------------------------ <-- SCF
 
Final energy =  -123.5361269548     eV
(energy not corrected for finite basis set)
 

 ******************************** Symmetrised Forces ********************************
 *                                                                                  *
 *                           Cartesian components (eV/A)                            *
 * -------------------------------------------------------------------------------- *
 *                         x                    y                    z              *
 *                                                                                  *
 * H               1     -0.00000              0.04121              0.03883         *
 * H               2      0.00000             -0.04121              0.03883         *
 * H               3     -0.00000              0.04121             -0.03883         *
 * H               4      0.00000             -0.04121             -0.03883         *
 * H               5     -0.00000              0.04121              0.03883         *
 * H               6      0.00000             -0.04121              0.03883         *
 * H               7     -0.00000              0.04121             -0.03883         *
 * H               8      0.00000             -0.04121             -0.03883         *
 *                                                                                  *
 ************************************************************************************

 *********** Symmetrised Stress Tensor ***********
 *                                               *
 *          Cartesian components (GPa)           *
 * --------------------------------------------- *
 *             x             y             z     *
 *                                               *
 *  x    -50.639241      0.000000      0.000000  *
 *  y      0.000000    -50.046501      0.000000  *
 *  z      0.000000      0.000000    -50.109752  *
 *                                               *
 *  Pressure:   50.2652                          *
 *                                               *
 *************************************************
  
 +------------+-------------+-------------+-----------------+ <-- min LBFGS
 |    Step    |   lambda    |   F.delta'  |    enthalpy     | <-- min LBFGS
 +------------+-------------+-------------+-----------------+ <-- min LBFGS
 |  previous  |    0.000000 |    0.069113 |     -115.991746 | <-- min LBFGS
 | trial step |    1.000000 |   -0.357643 |     -115.788801 | <-- min LBFGS
 |  line step |    0.161949 |    0.012627 |     -116.002192 | <-- min LBFGS
 +------------+-------------+-------------+-----------------+ <-- min LBFGS
  
 LBFGS: finished iteration     2 with enthalpy= -1.16002192E+002 eV
  
 +-----------+-----------------+-----------------+------------+-----+ <-- LBFGS
 | Parameter |      value      |    tolerance    |    units   | OK? | <-- LBFGS
 +-----------+-----------------+-----------------+------------+-----+ <-- LBFGS
 |  dE/ion   |   1.305761E-003 |   1.000000E-009 |         eV | No  | <-- LBFGS
 |  |F|max   |   5.661743E-002 |   1.000000E-005 |       eV/A | No  | <-- LBFGS
 |  |dR|max  |   5.988919E-003 |   1.000000E-005 |          A | No  | <-- LBFGS
 |   Smax    |   6.392407E-001 |   1.000000E-005 |        GPa | No  | <-- LBFGS
 +-----------+-----------------+-----------------+------------+-----+ <-- LBFGS
  

================================================================================
 Starting LBFGS iteration          3 ...
================================================================================
  
 +------------+-------------+-------------+-----------------+ <-- min LBFGS
 |    Step    |   lambda    |   F.delta'  |    enthalpy     | <-- min LBFGS
 +------------+-------------+-------------+-----------------+ <-- min LBFGS
 |  previous  |    0.000000 |    0.010172 |     -116.002192 | <-- min LBFGS
 +------------+-------------+-------------+-----------------+ <-- min LBFGS
  

--------------------------------------------------------------------------------
 LBFGS: starting iteration         3 with trial guess (lambda=  1.000000)
--------------------------------------------------------------------------------

                           -------------------------------
                                      Unit Cell
                           -------------------------------
        Real Lattice(A)              Reciprocal Lattice(1/A)
     2.9093411    -0.0000000     0.0000000        2.159659209   0.000000000   0.000000000
    -0.0000000     2.8769947     0.0000000        0.000000000   2.183940493   0.000000000
     0.0000000     0.0000000     2.8964965        0.000000000   0.000000000   2.169236261

                       Lattice parameters(A)       Cell Angles
                    a =      2.909341          alpha =   90.000000
                    b =      2.876995          beta  =   90.000000
                    c =      2.896497          gamma =   90.000000

                Current cell volume =            24.244137 A**3

                           -------------------------------
                                     Cell Contents
                           -------------------------------

            xxxxxxxxxxxxxxxxxxxxxxxxxxxxxxxxxxxxxxxxxxxxxxxxxxxxxxxxxxxxxxxxx
            x  Element         Atom        Fractional coordinates of atoms  x
            x                 Number           u          v          w      x
            x---------------------------------------------------------------x
            x  H                 1        -0.000000   0.407513   0.412497   x
            x  H                 2        -0.000000   0.092487   0.912497   x
            x  H                 3         0.000000   0.907513   0.087503   x
            x  H                 4         0.000000   0.592487   0.587503   x
            x  H                 5         0.500000   0.907513   0.412497   x
            x  H                 6         0.500000   0.592487   0.912497   x
            x  H                 7         0.500000   0.407513   0.087503   x
            x  H                 8         0.500000   0.092487   0.587503   x
            xxxxxxxxxxxxxxxxxxxxxxxxxxxxxxxxxxxxxxxxxxxxxxxxxxxxxxxxxxxxxxxxx


------------------------------------------------------------------------ <-- SCF
SCF loop      Energy                           Energy gain       Timer   <-- SCF
                                               per atom          (sec)   <-- SCF
------------------------------------------------------------------------ <-- SCF
Initial  -1.23566495E+002                                         54.63  <-- SCF
      1  -1.23568692E+002                    2.74534371E-004      55.13  <-- SCF
      2  -1.23568697E+002                    6.66692432E-007      55.92  <-- SCF
      3  -1.23568543E+002                   -1.92465362E-005      56.72  <-- SCF
      4  -1.23568537E+002                   -7.05473413E-007      57.54  <-- SCF
      5  -1.23568537E+002                    1.01207833E-008      58.34  <-- SCF
      6  -1.23568537E+002                    1.02617314E-009      59.15  <-- SCF
      7  -1.23568537E+002                    4.10865619E-012      59.78  <-- SCF
      8  -1.23568537E+002                    9.66742633E-014      60.40  <-- SCF
------------------------------------------------------------------------ <-- SCF
 
Final energy =  -123.5685374783     eV
(energy not corrected for finite basis set)
 

 ******************************** Symmetrised Forces ********************************
 *                                                                                  *
 *                           Cartesian components (eV/A)                            *
 * -------------------------------------------------------------------------------- *
 *                         x                    y                    z              *
 *                                                                                  *
 * H               1      0.00000             -0.00254             -0.00287         *
 * H               2      0.00000              0.00254             -0.00287         *
 * H               3      0.00000             -0.00254              0.00287         *
 * H               4      0.00000              0.00254              0.00287         *
 * H               5      0.00000             -0.00254             -0.00287         *
 * H               6     -0.00000              0.00254             -0.00287         *
 * H               7      0.00000             -0.00254              0.00287         *
 * H               8      0.00000              0.00254              0.00287         *
 *                                                                                  *
 ************************************************************************************

 *********** Symmetrised Stress Tensor ***********
 *                                               *
 *          Cartesian components (GPa)           *
 * --------------------------------------------- *
 *             x             y             z     *
 *                                               *
 *  x    -49.995309     -0.000000      0.000000  *
 *  y     -0.000000    -50.041877      0.000000  *
 *  z      0.000000      0.000000    -50.048828  *
 *                                               *
 *  Pressure:   50.0287                          *
 *                                               *
 *************************************************
  
 +------------+-------------+-------------+-----------------+ <-- min LBFGS
 |    Step    |   lambda    |   F.delta'  |    enthalpy     | <-- min LBFGS
 +------------+-------------+-------------+-----------------+ <-- min LBFGS
 |  previous  |    0.000000 |    0.010172 |     -116.002192 | <-- min LBFGS
 | trial step |    1.000000 |   -0.000299 |     -116.002538 | <-- min LBFGS
 +------------+-------------+-------------+-----------------+ <-- min LBFGS
  
 LBFGS: finished iteration     3 with enthalpy= -1.16002538E+002 eV
  
 +-----------+-----------------+-----------------+------------+-----+ <-- LBFGS
 | Parameter |      value      |    tolerance    |    units   | OK? | <-- LBFGS
 +-----------+-----------------+-----------------+------------+-----+ <-- LBFGS
 |  dE/ion   |   4.327634E-005 |   1.000000E-009 |         eV | No  | <-- LBFGS
 |  |F|max   |   3.829812E-003 |   1.000000E-005 |       eV/A | No  | <-- LBFGS
 |  |dR|max  |   1.349524E-003 |   1.000000E-005 |          A | No  | <-- LBFGS
 |   Smax    |   4.882779E-002 |   1.000000E-005 |        GPa | No  | <-- LBFGS
 +-----------+-----------------+-----------------+------------+-----+ <-- LBFGS
  

================================================================================
 Starting LBFGS iteration          4 ...
================================================================================
  
 +------------+-------------+-------------+-----------------+ <-- min LBFGS
 |    Step    |   lambda    |   F.delta'  |    enthalpy     | <-- min LBFGS
 +------------+-------------+-------------+-----------------+ <-- min LBFGS
 |  previous  |    0.000000 |    0.001063 |     -116.002538 | <-- min LBFGS
 +------------+-------------+-------------+-----------------+ <-- min LBFGS
  

--------------------------------------------------------------------------------
 LBFGS: starting iteration         4 with trial guess (lambda=  1.000000)
--------------------------------------------------------------------------------

                           -------------------------------
                                      Unit Cell
                           -------------------------------
        Real Lattice(A)              Reciprocal Lattice(1/A)
     2.9093598    -0.0000000     0.0000000        2.159645312   0.000000000   0.000000000
    -0.0000000     2.8770335     0.0000000        0.000000000   2.183911101   0.000000000
     0.0000000     0.0000000     2.8965548        0.000000000   0.000000000   2.169192605

                       Lattice parameters(A)       Cell Angles
                    a =      2.909360          alpha =   90.000000
                    b =      2.877033          beta  =   90.000000
                    c =      2.896555          gamma =   90.000000

                Current cell volume =            24.245107 A**3

                           -------------------------------
                                     Cell Contents
                           -------------------------------

            xxxxxxxxxxxxxxxxxxxxxxxxxxxxxxxxxxxxxxxxxxxxxxxxxxxxxxxxxxxxxxxxx
            x  Element         Atom        Fractional coordinates of atoms  x
            x                 Number           u          v          w      x
            x---------------------------------------------------------------x
            x  H                 1        -0.000000   0.407508   0.412477   x
            x  H                 2        -0.000000   0.092492   0.912477   x
            x  H                 3         0.000000   0.907508   0.087523   x
            x  H                 4         0.000000   0.592492   0.587523   x
            x  H                 5         0.500000   0.907508   0.412477   x
            x  H                 6         0.500000   0.592492   0.912477   x
            x  H                 7         0.500000   0.407508   0.087523   x
            x  H                 8         0.500000   0.092492   0.587523   x
            xxxxxxxxxxxxxxxxxxxxxxxxxxxxxxxxxxxxxxxxxxxxxxxxxxxxxxxxxxxxxxxxx


------------------------------------------------------------------------ <-- SCF
SCF loop      Energy                           Energy gain       Timer   <-- SCF
                                               per atom          (sec)   <-- SCF
------------------------------------------------------------------------ <-- SCF
Initial  -1.23568836E+002                                         61.68  <-- SCF
      1  -1.23568840E+002                    5.56257089E-007      62.20  <-- SCF
      2  -1.23568840E+002                    4.70214554E-010      63.02  <-- SCF
      3  -1.23568840E+002                   -9.92090625E-009      63.81  <-- SCF
      4  -1.23568840E+002                   -2.58195810E-010      64.63  <-- SCF
      5  -1.23568840E+002                    6.20527928E-012      65.26  <-- SCF
      6  -1.23568840E+002                    4.92434529E-013      65.90  <-- SCF
------------------------------------------------------------------------ <-- SCF
 
Final energy =  -123.5688400247     eV
(energy not corrected for finite basis set)
 

 ******************************** Symmetrised Forces ********************************
 *                                                                                  *
 *                           Cartesian components (eV/A)                            *
 * -------------------------------------------------------------------------------- *
 *                         x                    y                    z              *
 *                                                                                  *
 * H               1      0.00000              0.00018             -0.00025         *
 * H               2      0.00000             -0.00018             -0.00025         *
 * H               3      0.00000              0.00018              0.00025         *
 * H               4      0.00000             -0.00018              0.00025         *
 * H               5      0.00000              0.00018             -0.00025         *
 * H               6      0.00000             -0.00018             -0.00025         *
 * H               7     -0.00000              0.00018              0.00025         *
 * H               8      0.00000             -0.00018              0.00025         *
 *                                                                                  *
 ************************************************************************************

 *********** Symmetrised Stress Tensor ***********
 *                                               *
 *          Cartesian components (GPa)           *
 * --------------------------------------------- *
 *             x             y             z     *
 *                                               *
 *  x    -49.993393     -0.000000      0.000000  *
 *  y     -0.000000    -49.999886      0.000000  *
 *  z      0.000000      0.000000    -50.009586  *
 *                                               *
 *  Pressure:   50.0010                          *
 *                                               *
 *************************************************
  
 +------------+-------------+-------------+-----------------+ <-- min LBFGS
 |    Step    |   lambda    |   F.delta'  |    enthalpy     | <-- min LBFGS
 +------------+-------------+-------------+-----------------+ <-- min LBFGS
 |  previous  |    0.000000 |    0.001063 |     -116.002538 | <-- min LBFGS
 | trial step |    1.000000 |    0.000068 |     -116.002538 | <-- min LBFGS
 +------------+-------------+-------------+-----------------+ <-- min LBFGS
  
 LBFGS: finished iteration     4 with enthalpy= -1.16002538E+002 eV
  
 +-----------+-----------------+-----------------+------------+-----+ <-- LBFGS
 | Parameter |      value      |    tolerance    |    units   | OK? | <-- LBFGS
 +-----------+-----------------+-----------------+------------+-----+ <-- LBFGS
 |  dE/ion   |   8.146360E-009 |   1.000000E-009 |         eV | No  | <-- LBFGS
 |  |F|max   |   3.095648E-004 |   1.000000E-005 |       eV/A | No  | <-- LBFGS
 |  |dR|max  |   5.885123E-005 |   1.000000E-005 |          A | No  | <-- LBFGS
 |   Smax    |   9.586239E-003 |   1.000000E-005 |        GPa | No  | <-- LBFGS
 +-----------+-----------------+-----------------+------------+-----+ <-- LBFGS
  

================================================================================
 Starting LBFGS iteration          5 ...
================================================================================
  
 +------------+-------------+-------------+-----------------+ <-- min LBFGS
 |    Step    |   lambda    |   F.delta'  |    enthalpy     | <-- min LBFGS
 +------------+-------------+-------------+-----------------+ <-- min LBFGS
 |  previous  |    0.000000 |    0.000106 |     -116.002538 | <-- min LBFGS
 +------------+-------------+-------------+-----------------+ <-- min LBFGS
  

--------------------------------------------------------------------------------
 LBFGS: starting iteration         5 with trial guess (lambda=  1.000000)
--------------------------------------------------------------------------------

                           -------------------------------
                                      Unit Cell
                           -------------------------------
        Real Lattice(A)              Reciprocal Lattice(1/A)
     2.9093510    -0.0000000     0.0000000        2.159651864   0.000000000   0.000000000
    -0.0000000     2.8770383     0.0000000        0.000000000   2.183907426   0.000000000
     0.0000000     0.0000000     2.8965813        0.000000000   0.000000000   2.169172803

                       Lattice parameters(A)       Cell Angles
                    a =      2.909351          alpha =   90.000000
                    b =      2.877038          beta  =   90.000000
                    c =      2.896581          gamma =   90.000000

                Current cell volume =            24.245295 A**3

                           -------------------------------
                                     Cell Contents
                           -------------------------------

            xxxxxxxxxxxxxxxxxxxxxxxxxxxxxxxxxxxxxxxxxxxxxxxxxxxxxxxxxxxxxxxxx
            x  Element         Atom        Fractional coordinates of atoms  x
            x                 Number           u          v          w      x
            x---------------------------------------------------------------x
            x  H                 1        -0.000000   0.407516   0.412468   x
            x  H                 2        -0.000000   0.092484   0.912468   x
            x  H                 3         0.000000   0.907516   0.087532   x
            x  H                 4         0.000000   0.592484   0.587532   x
            x  H                 5         0.500000   0.907516   0.412468   x
            x  H                 6         0.500000   0.592484   0.912468   x
            x  H                 7         0.500000   0.407516   0.087532   x
            x  H                 8         0.500000   0.092484   0.587532   x
            xxxxxxxxxxxxxxxxxxxxxxxxxxxxxxxxxxxxxxxxxxxxxxxxxxxxxxxxxxxxxxxxx


------------------------------------------------------------------------ <-- SCF
SCF loop      Energy                           Energy gain       Timer   <-- SCF
                                               per atom          (sec)   <-- SCF
------------------------------------------------------------------------ <-- SCF
Initial  -1.23568898E+002                                         67.17  <-- SCF
      1  -1.23568899E+002                    1.70105257E-007      67.70  <-- SCF
      2  -1.23568899E+002                    2.91472904E-011      68.43  <-- SCF
      3  -1.23568899E+002                    1.23649404E-009      69.22  <-- SCF
      4  -1.23568899E+002                    1.01000437E-010      69.86  <-- SCF
      5  -1.23568899E+002                    1.20540722E-012      70.51  <-- SCF
      6  -1.23568899E+002                   -3.26275639E-013      71.15  <-- SCF
------------------------------------------------------------------------ <-- SCF
 
Final energy =  -123.5688992290     eV
(energy not corrected for finite basis set)
 

 ******************************** Symmetrised Forces ********************************
 *                                                                                  *
 *                           Cartesian components (eV/A)                            *
 * -------------------------------------------------------------------------------- *
 *                         x                    y                    z              *
 *                                                                                  *
 * H               1      0.00000              0.00034             -0.00007         *
 * H               2      0.00000             -0.00034             -0.00007         *
 * H               3      0.00000              0.00034              0.00007         *
 * H               4      0.00000             -0.00034              0.00007         *
 * H               5      0.00000              0.00034             -0.00007         *
 * H               6      0.00000             -0.00034             -0.00007         *
 * H               7      0.00000              0.00034              0.00007         *
 * H               8      0.00000             -0.00034              0.00007         *
 *                                                                                  *
 ************************************************************************************

 *********** Symmetrised Stress Tensor ***********
 *                                               *
 *          Cartesian components (GPa)           *
 * --------------------------------------------- *
 *             x             y             z     *
 *                                               *
 *  x    -49.993040      0.000000      0.000000  *
 *  y      0.000000    -49.996718      0.000000  *
 *  z      0.000000      0.000000    -50.005759  *
 *                                               *
 *  Pressure:   49.9985                          *
 *                                               *
 *************************************************
  
 +------------+-------------+-------------+-----------------+ <-- min LBFGS
 |    Step    |   lambda    |   F.delta'  |    enthalpy     | <-- min LBFGS
 +------------+-------------+-------------+-----------------+ <-- min LBFGS
 |  previous  |    0.000000 |    0.000106 |     -116.002538 | <-- min LBFGS
 | trial step |    1.000000 |    0.000090 |     -116.002538 | <-- min LBFGS
 +------------+-------------+-------------+-----------------+ <-- min LBFGS
  

--------------------------------------------------------------------------------
 LBFGS: improving iteration         5 with line minimization (lambda=  6.958838)
--------------------------------------------------------------------------------

                           -------------------------------
                                      Unit Cell
                           -------------------------------
        Real Lattice(A)              Reciprocal Lattice(1/A)
     2.9092984    -0.0000000     0.0000000        2.159690904   0.000000000   0.000000000
    -0.0000000     2.8770671     0.0000000        0.000000000   2.183885533   0.000000000
     0.0000000     0.0000000     2.8967388        0.000000000   0.000000000   2.169054811

                       Lattice parameters(A)       Cell Angles
                    a =      2.909298          alpha =   90.000000
                    b =      2.877067          beta  =   90.000000
                    c =      2.896739          gamma =   90.000000

                Current cell volume =            24.246419 A**3

                           -------------------------------
                                     Cell Contents
                           -------------------------------

            xxxxxxxxxxxxxxxxxxxxxxxxxxxxxxxxxxxxxxxxxxxxxxxxxxxxxxxxxxxxxxxxx
            x  Element         Atom        Fractional coordinates of atoms  x
            x                 Number           u          v          w      x
            x---------------------------------------------------------------x
            x  H                 1         0.000000   0.407564   0.412414   x
            x  H                 2        -0.000000   0.092436   0.912414   x
            x  H                 3         0.000000   0.907564   0.087586   x
            x  H                 4         0.000000   0.592436   0.587586   x
            x  H                 5         0.500000   0.907564   0.412414   x
            x  H                 6         0.500000   0.592436   0.912414   x
            x  H                 7         0.500000   0.407564   0.087586   x
            x  H                 8         0.500000   0.092436   0.587586   x
            xxxxxxxxxxxxxxxxxxxxxxxxxxxxxxxxxxxxxxxxxxxxxxxxxxxxxxxxxxxxxxxxx


------------------------------------------------------------------------ <-- SCF
SCF loop      Energy                           Energy gain       Timer   <-- SCF
                                               per atom          (sec)   <-- SCF
------------------------------------------------------------------------ <-- SCF
Initial  -1.23569232E+002                                         72.40  <-- SCF
      1  -1.23569249E+002                    2.21323461E-006      72.90  <-- SCF
      2  -1.23569249E+002                    1.06653162E-009      73.70  <-- SCF
      3  -1.23569250E+002                    4.38005106E-008      74.52  <-- SCF
      4  -1.23569250E+002                    3.59683847E-009      75.33  <-- SCF
      5  -1.23569250E+002                    2.99478741E-011      75.95  <-- SCF
      6  -1.23569250E+002                    3.31109352E-012      76.58  <-- SCF
      7  -1.23569250E+002                   -1.96369597E-013      77.21  <-- SCF
------------------------------------------------------------------------ <-- SCF
 
Final energy =  -123.5692496299     eV
(energy not corrected for finite basis set)
 

 ******************************** Symmetrised Forces ********************************
 *                                                                                  *
 *                           Cartesian components (eV/A)                            *
 * -------------------------------------------------------------------------------- *
 *                         x                    y                    z              *
 *                                                                                  *
 * H               1      0.00000              0.00128              0.00099         *
 * H               2      0.00000             -0.00128              0.00099         *
 * H               3      0.00000              0.00128             -0.00099         *
 * H               4      0.00000             -0.00128             -0.00099         *
 * H               5      0.00000              0.00128              0.00099         *
 * H               6      0.00000             -0.00128              0.00099         *
 * H               7      0.00000              0.00128             -0.00099         *
 * H               8      0.00000             -0.00128             -0.00099         *
 *                                                                                  *
 ************************************************************************************

 *********** Symmetrised Stress Tensor ***********
 *                                               *
 *          Cartesian components (GPa)           *
 * --------------------------------------------- *
 *             x             y             z     *
 *                                               *
 *  x    -49.990922     -0.000000      0.000000  *
 *  y     -0.000000    -49.977701      0.000000  *
 *  z      0.000000      0.000000    -49.982862  *
[...]
            xxxxxxxxxxxxxxxxxxxxxxxxxxxxxxxxxxxxxxxxxxxxxxxxxxxxxxxxxxxxxxxxx


------------------------------------------------------------------------ <-- SCF
SCF loop      Energy                           Energy gain       Timer   <-- SCF
                                               per atom          (sec)   <-- SCF
------------------------------------------------------------------------ <-- SCF
Initial  -1.23568885E+002                                        116.00  <-- SCF
      1  -1.23568885E+002                    4.02406621E-011     116.50  <-- SCF
      2  -1.23568885E+002                    6.64635561E-014     117.13  <-- SCF
      3  -1.23568885E+002                    1.54980928E-012     117.76  <-- SCF
      4  -1.23568885E+002                    1.54074607E-013     118.39  <-- SCF
------------------------------------------------------------------------ <-- SCF
 
Final energy =  -123.5688851059     eV
(energy not corrected for finite basis set)
 

 ******************************** Symmetrised Forces ********************************
 *                                                                                  *
 *                           Cartesian components (eV/A)                            *
 * -------------------------------------------------------------------------------- *
 *                         x                    y                    z              *
 *                                                                                  *
 * H               1      0.00000              0.00000              0.00000         *
 * H               2      0.00000             -0.00000              0.00000         *
 * H               3     -0.00000              0.00000             -0.00000         *
 * H               4     -0.00000             -0.00000             -0.00000         *
 * H               5     -0.00000              0.00000              0.00000         *
 * H               6      0.00000             -0.00000              0.00000         *
 * H               7     -0.00000              0.00000             -0.00000         *
 * H               8     -0.00000             -0.00000             -0.00000         *
 *                                                                                  *
 ************************************************************************************

 *********** Symmetrised Stress Tensor ***********
 *                                               *
 *          Cartesian components (GPa)           *
 * --------------------------------------------- *
 *             x             y             z     *
 *                                               *
 *  x    -49.999966      0.000000      0.000000  *
 *  y      0.000000    -49.999984      0.000000  *
 *  z      0.000000      0.000000    -49.999950  *
 *                                               *
 *  Pressure:   50.0000                          *
 *                                               *
 *************************************************
  
 +------------+-------------+-------------+-----------------+ <-- min LBFGS
 |    Step    |   lambda    |   F.delta'  |    enthalpy     | <-- min LBFGS
 +------------+-------------+-------------+-----------------+ <-- min LBFGS
 |  previous  |    0.000000 |  5.532E-007 |     -116.002540 | <-- min LBFGS
 | trial step |    1.000000 |  5.173E-007 |     -116.002540 | <-- min LBFGS
 |  line step |   15.408999 |  1.667E-009 |     -116.002540 | <-- min LBFGS
 +------------+-------------+-------------+-----------------+ <-- min LBFGS
  
 LBFGS: finished iteration    10 with enthalpy= -1.16002540E+002 eV
  
 +-----------+-----------------+-----------------+------------+-----+ <-- LBFGS
 | Parameter |      value      |    tolerance    |    units   | OK? | <-- LBFGS
 +-----------+-----------------+-----------------+------------+-----+ <-- LBFGS
 |  dE/ion   |   2.012033E-012 |   1.000000E-009 |         eV | Yes | <-- LBFGS
 |  |F|max   |   4.973143E-007 |   1.000000E-005 |       eV/A | Yes | <-- LBFGS
 |  |dR|max  |   7.623154E-007 |   1.000000E-005 |          A | Yes | <-- LBFGS
 |   Smax    |   4.957203E-005 |   1.000000E-005 |        GPa | No  | <-- LBFGS
 +-----------+-----------------+-----------------+------------+-----+ <-- LBFGS
  

================================================================================
 Starting LBFGS iteration         11 ...
================================================================================
  
 +------------+-------------+-------------+-----------------+ <-- min LBFGS
 |    Step    |   lambda    |   F.delta'  |    enthalpy     | <-- min LBFGS
 +------------+-------------+-------------+-----------------+ <-- min LBFGS
 |  previous  |    0.000000 |  2.300E-007 |     -116.002540 | <-- min LBFGS
 +------------+-------------+-------------+-----------------+ <-- min LBFGS
  

--------------------------------------------------------------------------------
 LBFGS: starting iteration        11 with trial guess (lambda=  1.000000)
--------------------------------------------------------------------------------

                           -------------------------------
                                      Unit Cell
                           -------------------------------
        Real Lattice(A)              Reciprocal Lattice(1/A)
     2.9091380    -0.0000000     0.0000000        2.159810015   0.000000000   0.000000000
    -0.0000000     2.8770588     0.0000000        0.000000000   2.183891837   0.000000000
     0.0000000     0.0000000     2.8967666        0.000000000   0.000000000   2.169033995

                       Lattice parameters(A)       Cell Angles
                    a =      2.909138          alpha =   90.000000
                    b =      2.877059          beta  =   90.000000
                    c =      2.896767          gamma =   90.000000

                Current cell volume =            24.245245 A**3

                           -------------------------------
                                     Cell Contents
                           -------------------------------

            xxxxxxxxxxxxxxxxxxxxxxxxxxxxxxxxxxxxxxxxxxxxxxxxxxxxxxxxxxxxxxxxx
            x  Element         Atom        Fractional coordinates of atoms  x
            x                 Number           u          v          w      x
            x---------------------------------------------------------------x
            x  H                 1        -0.000000   0.407641   0.412347   x
            x  H                 2         0.000000   0.092359   0.912347   x
            x  H                 3         0.000000   0.907641   0.087653   x
            x  H                 4         0.000000   0.592359   0.587653   x
            x  H                 5         0.500000   0.907641   0.412347   x
            x  H                 6         0.500000   0.592359   0.912347   x
            x  H                 7         0.500000   0.407641   0.087653   x
            x  H                 8         0.500000   0.092359   0.587653   x
            xxxxxxxxxxxxxxxxxxxxxxxxxxxxxxxxxxxxxxxxxxxxxxxxxxxxxxxxxxxxxxxxx


------------------------------------------------------------------------ <-- SCF
SCF loop      Energy                           Energy gain       Timer   <-- SCF
                                               per atom          (sec)   <-- SCF
------------------------------------------------------------------------ <-- SCF
Initial  -1.23568884E+002                                        119.66  <-- SCF
      1  -1.23568884E+002                    9.81847987E-013     119.97  <-- SCF
      2  -1.23568884E+002                    6.04214146E-014     120.60  <-- SCF
      3  -1.23568884E+002                    1.23863900E-013     121.24  <-- SCF
      4  -1.23568884E+002                    4.22949902E-014     121.88  <-- SCF
------------------------------------------------------------------------ <-- SCF
 
Final energy =  -123.5688836333     eV
(energy not corrected for finite basis set)
 

 ******************************** Symmetrised Forces ********************************
 *                                                                                  *
 *                           Cartesian components (eV/A)                            *
 * -------------------------------------------------------------------------------- *
 *                         x                    y                    z              *
 *                                                                                  *
 * H               1     -0.00000             -0.00000             -0.00000         *
 * H               2     -0.00000              0.00000             -0.00000         *
 * H               3      0.00000             -0.00000              0.00000         *
 * H               4      0.00000              0.00000              0.00000         *
 * H               5     -0.00000             -0.00000             -0.00000         *
 * H               6     -0.00000              0.00000             -0.00000         *
 * H               7      0.00000             -0.00000              0.00000         *
 * H               8      0.00000              0.00000              0.00000         *
 *                                                                                  *
 ************************************************************************************

 *********** Symmetrised Stress Tensor ***********
 *                                               *
 *          Cartesian components (GPa)           *
 * --------------------------------------------- *
 *             x             y             z     *
 *                                               *
 *  x    -49.999998     -0.000000      0.000000  *
 *  y     -0.000000    -49.999998      0.000000  *
 *  z      0.000000      0.000000    -49.999998  *
 *                                               *
 *  Pressure:   50.0000                          *
 *                                               *
 *************************************************
  
 +------------+-------------+-------------+-----------------+ <-- min LBFGS
 |    Step    |   lambda    |   F.delta'  |    enthalpy     | <-- min LBFGS
 +------------+-------------+-------------+-----------------+ <-- min LBFGS
 |  previous  |    0.000000 |  2.300E-007 |     -116.002540 | <-- min LBFGS
 | trial step |    1.000000 |  7.768E-009 |     -116.002540 | <-- min LBFGS
 +------------+-------------+-------------+-----------------+ <-- min LBFGS
  
 LBFGS: finished iteration    11 with enthalpy= -1.16002540E+002 eV
  
 +-----------+-----------------+-----------------+------------+-----+ <-- LBFGS
 | Parameter |      value      |    tolerance    |    units   | OK? | <-- LBFGS
 +-----------+-----------------+-----------------+------------+-----+ <-- LBFGS
 |  dE/ion   |   9.063212E-014 |   1.000000E-009 |         eV | Yes | <-- LBFGS
 |  |F|max   |   1.115383E-007 |   1.000000E-005 |       eV/A | Yes | <-- LBFGS
 |  |dR|max  |   9.267251E-009 |   1.000000E-005 |          A | Yes | <-- LBFGS
 |   Smax    |   2.177396E-006 |   1.000000E-005 |        GPa | Yes | <-- LBFGS
 +-----------+-----------------+-----------------+------------+-----+ <-- LBFGS
  
 LBFGS: Geometry optimization completed successfully.

================================================================================
 LBFGS: Final Configuration:
================================================================================

                           -------------------------------
                                      Unit Cell
                           -------------------------------
        Real Lattice(A)              Reciprocal Lattice(1/A)
     2.9091380    -0.0000000     0.0000000        2.159810015   0.000000000   0.000000000
    -0.0000000     2.8770588     0.0000000        0.000000000   2.183891837   0.000000000
     0.0000000     0.0000000     2.8967666        0.000000000   0.000000000   2.169033995

                       Lattice parameters(A)       Cell Angles
                    a =      2.909138          alpha =   90.000000
                    b =      2.877059          beta  =   90.000000
                    c =      2.896767          gamma =   90.000000

                Current cell volume =            24.245245 A**3

                           -------------------------------
                                     Cell Contents
                           -------------------------------

            xxxxxxxxxxxxxxxxxxxxxxxxxxxxxxxxxxxxxxxxxxxxxxxxxxxxxxxxxxxxxxxxx
            x  Element         Atom        Fractional coordinates of atoms  x
            x                 Number           u          v          w      x
            x---------------------------------------------------------------x
            x  H                 1        -0.000000   0.407641   0.412347   x
            x  H                 2         0.000000   0.092359   0.912347   x
            x  H                 3         0.000000   0.907641   0.087653   x
            x  H                 4         0.000000   0.592359   0.587653   x
            x  H                 5         0.500000   0.907641   0.412347   x
            x  H                 6         0.500000   0.592359   0.912347   x
            x  H                 7         0.500000   0.407641   0.087653   x
            x  H                 8         0.500000   0.092359   0.587653   x
            xxxxxxxxxxxxxxxxxxxxxxxxxxxxxxxxxxxxxxxxxxxxxxxxxxxxxxxxxxxxxxxxx


 LBFGS: Final Enthalpy     = -1.16002540E+002 eV
 LBFGS: Final <frequency>  =     389.94129 cm-1
 LBFGS: Final bulk modulus =     146.77874 GPa

 ******************************** Symmetrised Forces ********************************
 *                                                                                  *
 *                           Cartesian components (eV/A)                            *
 * -------------------------------------------------------------------------------- *
 *                         x                    y                    z              *
 *                                                                                  *
 * H               1     -0.00000             -0.00000             -0.00000         *
 * H               2     -0.00000              0.00000             -0.00000         *
 * H               3      0.00000             -0.00000              0.00000         *
 * H               4      0.00000              0.00000              0.00000         *
 * H               5     -0.00000             -0.00000             -0.00000         *
 * H               6     -0.00000              0.00000             -0.00000         *
 * H               7      0.00000             -0.00000              0.00000         *
 * H               8      0.00000              0.00000              0.00000         *
 *                                                                                  *
 ************************************************************************************

 *********** Symmetrised Stress Tensor ***********
 *                                               *
 *          Cartesian components (GPa)           *
 * --------------------------------------------- *
 *             x             y             z     *
 *                                               *
 *  x    -49.999998     -0.000000      0.000000  *
 *  y     -0.000000    -49.999998      0.000000  *
 *  z      0.000000      0.000000    -49.999998  *
 *                                               *
 *  Pressure:   50.0000                          *
 *                                               *
 *************************************************

 Pseudo atomic calculation performed for H 1s1

 Converged in 24 iterations to a total energy of -12.4843 eV

Charge spilling parameter for spin component 1 = 0.64%

            Orbital Populations       
     Ion    Atom   Orbital             Charge
  -------------------------------------------
      H     1      S                    0.999
      H     2      S                    1.001
      H     3      S                    1.001
      H     4      S                    0.999
      H     5      S                    0.999
      H     6      S                    1.001
      H     7      S                    1.001
      H     8      S                    0.999
  -------------------------------------------
                           Total:       8.000
  -------------------------------------------

     Atomic Populations (Mulliken)
     -----------------------------
Species          Ion     s      p      d      f     Total  Charge (e)
=====================================================================
  H               1     1.00   0.00   0.00   0.00   1.00     0.00
  H               2     1.00   0.00   0.00   0.00   1.00     0.00
  H               3     1.00   0.00   0.00   0.00   1.00     0.00
  H               4     1.00   0.00   0.00   0.00   1.00     0.00
  H               5     1.00   0.00   0.00   0.00   1.00     0.00
  H               6     1.00   0.00   0.00   0.00   1.00     0.00
  H               7     1.00   0.00   0.00   0.00   1.00     0.00
  H               8     1.00   0.00   0.00   0.00   1.00     0.00
=====================================================================

                 Bond                   Population      Length (A)
======================================================================
               H 6 -- H 7                    1.43        0.73506
               H 1 -- H 4                    1.43        0.73506
               H 5 -- H 8                    1.43        0.73506
               H 2 -- H 3                    1.43        0.73506
               H 5 -- H 6                   -0.24        1.70898
               H 3 -- H 4                   -0.24        1.70898
               H 7 -- H 8                   -0.24        1.70898
               H 1 -- H 2                   -0.24        1.70898
               H 5 -- H 7                   -0.24        1.71873
               H 1 -- H 3                   -0.24        1.71873
               H 6 -- H 8                   -0.24        1.71873
               H 2 -- H 4                   -0.24        1.71873
               H 2 -- H 8                   -0.19        1.73217
               H 4 -- H 6                   -0.19        1.73217
               H 3 -- H 5                   -0.19        1.73217
               H 1 -- H 7                   -0.19        1.73217
               H 4 -- H 5                   -0.21        1.78786
               H 3 -- H 6                   -0.21        1.78786
               H 2 -- H 7                   -0.21        1.78786
               H 1 -- H 8                   -0.21        1.78786
               H 3 -- H 7                   -0.24        2.04576
               H 1 -- H 5                   -0.24        2.04576
               H 4 -- H 8                   -0.24        2.04576
               H 2 -- H 6                   -0.24        2.04576
               H 4 -- H 7                   -0.24        2.12038
               H 1 -- H 6                   -0.24        2.12038
               H 3 -- H 8                   -0.24        2.12038
               H 2 -- H 5                   -0.24        2.12038
======================================================================


Writing analysis data to Cmca4.castep_bin

Writing model to Cmca4.check
 
 A BibTeX formatted list of references used in this run has been written to 
 Cmca4.bib
 
Initialisation time =      2.52 s
Calculation time    =    121.43 s
Finalisation time   =      0.98 s
Total time          =    124.93 s
Peak Memory Use     = 527616 kB
  
Overall parallel efficiency rating: Very good (88%)                             
  
Data was distributed by:-
k-point (32-way); efficiency rating: Very good (88%)                            
  
Parallel notes:
1) Calculation only took 124.0 s, so efficiency estimates may be inaccurate.    
