 +-------------------------------------------------+
 |                                                 |
 |      CCC   AA    SSS  TTTTT  EEEEE  PPPP        |
 |     C     A  A  S       T    E      P   P       |
 |     C     AAAA   SS     T    EEE    PPPP        |
 |     C     A  A     S    T    E      P           |
 |      CCC  A  A  SSS     T    EEEEE  P           |
 |                                                 |
 +-------------------------------------------------+
 |                                                 |
 | Welcome to Academic Release CASTEP version 18.1 |          
 | Ab Initio Total Energy Program                  |
 |                                                 |
 | Authors:                                        |
 | M. Segall, M. Probert, C. Pickard, P. Hasnip,   |
 | S. Clark, K. Refson, J. R. Yates, M. Payne      |
 |                                                 |
 | Contributors:                                   |
 | P. Lindan, P. Haynes, J. White, V. Milman,      |
 | N. Govind, M. Gibson, P. Tulip, V. Cocula,      |
 | B. Montanari, D. Quigley, M. Glover,            |
 | L. Bernasconi, A. Perlov, M. Plummer,           |
 | E. McNellis, J. Meyer, J. Gale, D. Jochym       |
 | J. Aarons, B. Walker, R. Gillen, D. Jones       |
 | T. Green, I. J. Bush, C. J. Armstrong,          |
 | E. J. Higgins, E. L. Brown, M. S. McFly,        |
 | J. Wilkins, B-C. Shih, P. J. P. Byrne           |
 |                                                 |
 | Copyright (c) 2000 - 2017                       |
 |                                                 |
 |     Distributed under the terms of an           |
 |     Agreement between the United Kingdom        |
 |     Car-Parrinello (UKCP) Consortium,           |
 |     Daresbury Laboratory and Accelrys, Inc.     |
 |                                                 |
 | Please cite                                     |
 |                                                 |
 |     "First principles methods using CASTEP"     |
 |                                                 |
 |         Zeitschrift fuer Kristallographie       |
 |           220(5-6) pp. 567-570 (2005)           |
 |                                                 |
 | S. J. Clark, M. D. Segall, C. J. Pickard,       |
 | P. J. Hasnip, M. J. Probert, K. Refson,         |
 | M. C. Payne                                     |
 |                                                 |
 |       in all publications arising from          |
 |              your use of CASTEP                 |
 |                                                 |
 +-------------------------------------------------+


 Compiled for linux_x86_64_gfortran4.8 on Thu, 19 Jul 2018 15:42:32 +0100
 from code version 70483bd0ad64+  Sun, 10 Dec 2017 12:18:29 +0000
 Compiler: GNU Fortran 4.8.5; Optimisation: fast
 MATHLIBS: Intel MKL(2018.0.0) (LAPACK version 3.7.0)
 FFT Lib : mkl
 Fundamental constants values: CODATA 2014

 Run started: Sat, 20 Jun 2020 14:41:32 +0100

 Atomic calculation performed for Li: 1s2 2s1

 Converged in 47 iterations to an ae energy of -202.784 eV

   ============================================================                
   | Pseudopotential Report - Date of generation 20-06-2020   |                
   ------------------------------------------------------------                
   | Element: Li Ionic charge:  3.00 Level of theory: PBE     |                
   | Atomic Solver: Koelling-Harmon                           |                
   |                                                          |                
   |               Reference Electronic Structure             |                
   |         Orbital         Occupation         Energy        |                
   |            1s              2.000           -1.906        |                
   |            2s              1.000           -0.106        |                
   |                                                          |                
   |                 Pseudopotential Definition               |                
   |        Beta     l      e      Rc     scheme   norm       |                
   |          1      0   -1.906   1.296     qc      0         |                
   |          2      0   -0.106   1.296     qc      0         |                
   |          3      0    0.250   1.296     qc      0         |                
   |         loc     1    0.000   1.296     pn      0         |                
   |                                                          |                
   | Augmentation charge Rinner = 0.913                       |                
   | No partial core correction                               |                
   ------------------------------------------------------------                
   | "1|1.3|8|9|10|10U:20(qc=5)"                              |                
   ------------------------------------------------------------                
   |      Author: Chris J. Pickard, Cambridge University      |                
   ============================================================                

 Pseudo atomic calculation performed for Li 1s2 2s1

 Converged in 16 iterations to a total energy of -196.2692 eV

 Calculation parallelised over 16 processes.
 Data is distributed by G-vector(4-way) and k-point(4-way)

 ************************************ Title ************************************
 

 ***************************** General Parameters ******************************
  
 output verbosity                               : normal  (1)
 write checkpoint data to                       : li.check
 type of calculation                            : molecular dynamics
 stress calculation                             : on
 density difference calculation                 : off
 electron localisation func (ELF) calculation   : off
 Hirshfeld analysis                             : off
 unlimited duration calculation
 timing information                             : on
 memory usage estimate                          : on
 write extra output files                       : on
 write final potential to formatted file        : off
 write final density to formatted file          : off
 write BibTeX reference list                    : on
 write OTFG pseudopotential files               : on
 write electrostatic potential file             : on
 write bands file                               : on
 checkpoint writing                             : both castep_bin and check files
  
 output         length unit                     : A
 output           mass unit                     : amu
 output           time unit                     : ps
 output         charge unit                     : e
 output           spin unit                     : hbar/2
 output         energy unit                     : eV
 output          force unit                     : eV/A
 output       velocity unit                     : A/ps
 output       pressure unit                     : GPa
 output     inv_length unit                     : 1/A
 output      frequency unit                     : cm-1
 output force constant unit                     : eV/A**2
 output         volume unit                     : A**3
 output   IR intensity unit                     : (D/A)**2/amu
 output         dipole unit                     : D
 output         efield unit                     : eV/A/e
 output        entropy unit                     : J/mol/K
  
 wavefunctions paging                           : none
 random number generator seed                   : randomised (144132853)
 data distribution                              : optimal for this architecture
 optimization strategy                          : maximize speed(+++)

 *********************** Exchange-Correlation Parameters ***********************
  
 using functional                               : Perdew Burke Ernzerhof
 relativistic treatment                         : Koelling-Harmon
 DFT+D: Semi-empirical dispersion correction    : off

 ************************* Pseudopotential Parameters **************************
  
 pseudopotential representation                 : reciprocal space
 <beta|phi> representation                      : reciprocal space
 spin-orbit coupling                            : off

 **************************** Basis Set Parameters *****************************
  
 plane wave basis set cut-off                   :   300.0000   eV
 size of standard grid                          :     2.0000
 size of   fine   grid                          :     3.0000
 size of   fine   gmax                          :    26.6208   1/A
 largest prime factor in FFT                    :          5
 finite basis set correction                    : automatic
 number of sample energies                      :          3
           sample  spacing                      :     5.0000   eV

 **************************** Electronic Parameters ****************************
  
 number of  electrons                           :  384.0    
 net charge of system                           :  0.000    
 treating system as non-spin-polarized
 number of bands                                :        230

 ********************* Electronic Minimization Parameters **********************
  
 Method: Treating system as metallic with density mixing treatment of electrons,
         and number of  SD  steps               :          1
         and number of  CG  steps               :          4
  
 total energy / atom convergence tol.           : 0.5000E-04   eV
 eigen-energy convergence tolerance             : 0.1000E-05   eV
 max force / atom convergence tol.              : ignored
 convergence tolerance window                   :          3   cycles
 max. number of SCF cycles                      :         30
 number of fixed-spin iterations                :         10
 smearing scheme                                : Gaussian
 smearing width                                 : 0.1000       eV
 Fermi energy convergence tolerance             : 0.2721E-13   eV
 periodic dipole correction                     : NONE

 ************************** Density Mixing Parameters **************************
  
 density-mixing scheme                          : Pulay
 max. length of mixing history                  :         20
 charge density mixing amplitude                : 0.5000    
 cut-off energy for mixing                      :  300.0       eV
 charge density mixing g-vector                 :  1.500       1/A

 ************************ Molecular Dynamics Parameters ************************
  
 ensemble                                       : NVT
 temperature                                    :  500.0       K
 using                                          : Nose-Hoover chain thermostat
 with                                           :          5    thermostats
 with characteristic ionic time                 : 0.2500E-02   ps
 path integral MD                               : OFF
 time step                                      : 0.5000E-03   ps
 number of MD steps                             :         50
 ab initio properties sampled every             :         10   MD steps
 enhanced equilibration method                  : BERENDSEN
  ion  equilibration time                       : 0.2500E-02   ps
  cell equilibration time                       : 0.2500E-01   ps
 total equilibration time                       :  1.000       ps
 using best-fit first order extrapolation for wavefunctions and charge density
 backup results every                           :      86400   seconds
  
 MD SCF energy / atom convergence tol.          : 0.1000E-04   eV
 MD SCF eigenenergies tolerance                 : 0.1000E-05   eV
 MD SCF convergence tolerance window            :          2   cycles
 write MD trajectory file                       : on

 *******************************************************************************
  

                           -------------------------------
                                      Unit Cell
                           -------------------------------
        Real Lattice(A)                      Reciprocal Lattice(1/A)
     9.4498000     0.0000000     0.0000000        0.664901406   0.000000000   0.000000000
     0.0000000     9.4498000     0.0000000        0.000000000   0.664901406   0.000000000
     0.0000000     0.0000000     9.4498000        0.000000000   0.000000000   0.664901406

                       Lattice parameters(A)       Cell Angles
                    a =      9.449800          alpha =   90.000000
                    b =      9.449800          beta  =   90.000000
                    c =      9.449800          gamma =   90.000000

                       Current cell volume =           843.855045       A**3
                                   density =             1.052844   AMU/A**3
                                           =             1.748289     g/cm^3

                           -------------------------------
                                     Cell Contents
                           -------------------------------
                         Total number of ions in cell =  128
                      Total number of species in cell =    1
                        Max number of any one species =  128

            xxxxxxxxxxxxxxxxxxxxxxxxxxxxxxxxxxxxxxxxxxxxxxxxxxxxxxxxxxxx
            x  Element    Atom        Fractional coordinates of atoms  x
            x            Number           u          v          w      x
            x----------------------------------------------------------x
            x  Li           1         0.091395   0.091395   0.091395   x 
            x  Li           2         0.341395   0.341395   0.341395   x 
            x  Li           3         0.158605   0.408605   0.341395   x 
            x  Li           4         0.408605   0.158605   0.091395   x 
            x  Li           5         0.408605   0.341395   0.158605   x 
            x  Li           6         0.158605   0.091395   0.408605   x 
            x  Li           7         0.341395   0.158605   0.408605   x 
            x  Li           8         0.091395   0.408605   0.158605   x 
            x  Li           9         0.216395   0.216395   0.216395   x 
            x  Li          10         0.466395   0.466395   0.466395   x 
            x  Li          11         0.033605   0.283605   0.466395   x 
            x  Li          12         0.283605   0.033605   0.216395   x 
            x  Li          13         0.466395   0.033605   0.283605   x 
            x  Li          14         0.216395   0.283605   0.033605   x 
            x  Li          15         0.283605   0.466395   0.033605   x 
            x  Li          16         0.033605   0.216395   0.283605   x 
            x  Li          17         0.591395   0.091395   0.091395   x 
            x  Li          18         0.841395   0.341395   0.341395   x 
            x  Li          19         0.658605   0.408605   0.341395   x 
            x  Li          20         0.908605   0.158605   0.091395   x 
            x  Li          21         0.908605   0.341395   0.158605   x 
            x  Li          22         0.658605   0.091395   0.408605   x 
            x  Li          23         0.841395   0.158605   0.408605   x 
            x  Li          24         0.591395   0.408605   0.158605   x 
            x  Li          25         0.716395   0.216395   0.216395   x 
            x  Li          26         0.966395   0.466395   0.466395   x 
            x  Li          27         0.533605   0.283605   0.466395   x 
            x  Li          28         0.783605   0.033605   0.216395   x 
            x  Li          29         0.966395   0.033605   0.283605   x 
            x  Li          30         0.716395   0.283605   0.033605   x 
            x  Li          31         0.783605   0.466395   0.033605   x 
            x  Li          32         0.533605   0.216395   0.283605   x 
            x  Li          33         0.091395   0.591395   0.091395   x 
            x  Li          34         0.341395   0.841395   0.341395   x 
            x  Li          35         0.158605   0.908605   0.341395   x 
            x  Li          36         0.408605   0.658605   0.091395   x 
            x  Li          37         0.408605   0.841395   0.158605   x 
            x  Li          38         0.158605   0.591395   0.408605   x 
            x  Li          39         0.341395   0.658605   0.408605   x 
            x  Li          40         0.091395   0.908605   0.158605   x 
            x  Li          41         0.216395   0.716395   0.216395   x 
            x  Li          42         0.466395   0.966395   0.466395   x 
            x  Li          43         0.033605   0.783605   0.466395   x 
            x  Li          44         0.283605   0.533605   0.216395   x 
            x  Li          45         0.466395   0.533605   0.283605   x 
            x  Li          46         0.216395   0.783605   0.033605   x 
            x  Li          47         0.283605   0.966395   0.033605   x 
            x  Li          48         0.033605   0.716395   0.283605   x 
            x  Li          49         0.591395   0.591395   0.091395   x 
            x  Li          50         0.841395   0.841395   0.341395   x 
            x  Li          51         0.658605   0.908605   0.341395   x 
            x  Li          52         0.908605   0.658605   0.091395   x 
            x  Li          53         0.908605   0.841395   0.158605   x 
            x  Li          54         0.658605   0.591395   0.408605   x 
            x  Li          55         0.841395   0.658605   0.408605   x 
            x  Li          56         0.591395   0.908605   0.158605   x 
            x  Li          57         0.716395   0.716395   0.216395   x 
            x  Li          58         0.966395   0.966395   0.466395   x 
            x  Li          59         0.533605   0.783605   0.466395   x 
            x  Li          60         0.783605   0.533605   0.216395   x 
            x  Li          61         0.966395   0.533605   0.283605   x 
            x  Li          62         0.716395   0.783605   0.033605   x 
            x  Li          63         0.783605   0.966395   0.033605   x 
            x  Li          64         0.533605   0.716395   0.283605   x 
            x  Li          65         0.091395   0.091395   0.591395   x 
            x  Li          66         0.341395   0.341395   0.841395   x 
            x  Li          67         0.158605   0.408605   0.841395   x 
            x  Li          68         0.408605   0.158605   0.591395   x 
            x  Li          69         0.408605   0.341395   0.658605   x 
            x  Li          70         0.158605   0.091395   0.908605   x 
            x  Li          71         0.341395   0.158605   0.908605   x 
            x  Li          72         0.091395   0.408605   0.658605   x 
            x  Li          73         0.216395   0.216395   0.716395   x 
            x  Li          74         0.466395   0.466395   0.966395   x 
            x  Li          75         0.033605   0.283605   0.966395   x 
            x  Li          76         0.283605   0.033605   0.716395   x 
            x  Li          77         0.466395   0.033605   0.783605   x 
            x  Li          78         0.216395   0.283605   0.533605   x 
            x  Li          79         0.283605   0.466395   0.533605   x 
            x  Li          80         0.033605   0.216395   0.783605   x 
            x  Li          81         0.591395   0.091395   0.591395   x 
            x  Li          82         0.841395   0.341395   0.841395   x 
            x  Li          83         0.658605   0.408605   0.841395   x 
            x  Li          84         0.908605   0.158605   0.591395   x 
            x  Li          85         0.908605   0.341395   0.658605   x 
            x  Li          86         0.658605   0.091395   0.908605   x 
            x  Li          87         0.841395   0.158605   0.908605   x 
            x  Li          88         0.591395   0.408605   0.658605   x 
            x  Li          89         0.716395   0.216395   0.716395   x 
            x  Li          90         0.966395   0.466395   0.966395   x 
            x  Li          91         0.533605   0.283605   0.966395   x 
            x  Li          92         0.783605   0.033605   0.716395   x 
            x  Li          93         0.966395   0.033605   0.783605   x 
            x  Li          94         0.716395   0.283605   0.533605   x 
            x  Li          95         0.783605   0.466395   0.533605   x 
            x  Li          96         0.533605   0.216395   0.783605   x 
            x  Li          97         0.091395   0.591395   0.591395   x 
            x  Li          98         0.341395   0.841395   0.841395   x 
            x  Li          99         0.158605   0.908605   0.841395   x 
            x  Li         100         0.408605   0.658605   0.591395   x 
            x  Li         101         0.408605   0.841395   0.658605   x 
            x  Li         102         0.158605   0.591395   0.908605   x 
            x  Li         103         0.341395   0.658605   0.908605   x 
            x  Li         104         0.091395   0.908605   0.658605   x 
            x  Li         105         0.216395   0.716395   0.716395   x 
            x  Li         106         0.466395   0.966395   0.966395   x 
            x  Li         107         0.033605   0.783605   0.966395   x 
            x  Li         108         0.283605   0.533605   0.716395   x 
            x  Li         109         0.466395   0.533605   0.783605   x 
            x  Li         110         0.216395   0.783605   0.533605   x 
            x  Li         111         0.283605   0.966395   0.533605   x 
            x  Li         112         0.033605   0.716395   0.783605   x 
            x  Li         113         0.591395   0.591395   0.591395   x 
            x  Li         114         0.841395   0.841395   0.841395   x 
            x  Li         115         0.658605   0.908605   0.841395   x 
            x  Li         116         0.908605   0.658605   0.591395   x 
            x  Li         117         0.908605   0.841395   0.658605   x 
            x  Li         118         0.658605   0.591395   0.908605   x 
            x  Li         119         0.841395   0.658605   0.908605   x 
            x  Li         120         0.591395   0.908605   0.658605   x 
            x  Li         121         0.716395   0.716395   0.716395   x 
            x  Li         122         0.966395   0.966395   0.966395   x 
            x  Li         123         0.533605   0.783605   0.966395   x 
            x  Li         124         0.783605   0.533605   0.716395   x 
            x  Li         125         0.966395   0.533605   0.783605   x 
            x  Li         126         0.716395   0.783605   0.533605   x 
            x  Li         127         0.783605   0.966395   0.533605   x 
            x  Li         128         0.533605   0.716395   0.783605   x 
            xxxxxxxxxxxxxxxxxxxxxxxxxxxxxxxxxxxxxxxxxxxxxxxxxxxxxxxxxxxx


                         No user defined ionic velocities

                           -------------------------------
                                   Details of Species
                           -------------------------------

                               Mass of species in AMU
                                    Li    6.9410000

                          Electric Quadrupole Moment (Barn)
                                    Li   -0.0401000 Isotope  7

                          Files used for pseudopotentials:
                                    Li 1|1.3|8|9|10|10U:20(qc=5)

                           -------------------------------
                              k-Points For BZ Sampling
                           -------------------------------
                       MP grid size for SCF calculation is  2  2  2
                            with an offset of   0.000  0.000  0.000
                       Number of kpoints used =             4

                           -------------------------------
                               Symmetry and Constraints
                           -------------------------------

                      Cell is a supercell containing 16 primitive cells
                      Maximum deviation from symmetry =  0.00000         ANG

                      Number of symmetry operations   =           1
                      Number of ionic constraints     =           3
                      Point group of crystal =     1: C1, 1, 1
                      Space group of crystal =   220: I-43d, I -4bd 2c 3

             Set iprint > 1 for details on symmetry rotations/translations

                         Centre of mass is constrained
             Set iprint > 1 for details of linear ionic constraints

                         Number of cell constraints= 0
                         Cell constraints are:  1 2 3 4 5 6

                         External pressure/stress (GPa)
                          0.00000   0.00000   0.00000
                                    0.00000   0.00000
                                              0.00000
  
+---------------- MEMORY AND SCRATCH DISK ESTIMATES PER PROCESS --------------+
|                                                     Memory          Disk    |
| Baseline code, static data and system overhead      417.0 MB         0.0 MB |
| BLAS internal memory storage                          0.0 MB         0.0 MB |
| Model and support data                               64.2 MB         0.0 MB |
| Electronic energy minimisation requirements          59.1 MB         0.0 MB |
| Force calculation requirements                       17.4 MB         0.0 MB |
| Stress calculation requirements                      21.5 MB         0.0 MB |
|                                               ----------------------------- |
| Approx. total storage required per process          540.3 MB         0.0 MB |
|                                                                             |
| Requirements will fluctuate during execution and may exceed these estimates |
+-----------------------------------------------------------------------------+
Calculating finite basis set correction with  3 cut-off energies.
Calculating total energy with cut-off of  290.000 eV.
------------------------------------------------------------------------ <-- SCF
SCF loop      Energy           Fermi           Energy gain       Timer   <-- SCF
                               energy          per atom          (sec)   <-- SCF
------------------------------------------------------------------------ <-- SCF
Initial  -1.03381054E+004  0.00000000E+000                        19.85  <-- SCF
      1  -2.40361333E+004  9.35906153E+000   1.07015843E+002      31.44  <-- SCF
      2  -2.51001553E+004  5.90964199E+000   8.31267183E+000      39.35  <-- SCF
      3  -2.51518148E+004  5.60960713E+000   4.03590136E-001      47.06  <-- SCF
      4  -2.51517677E+004  5.56706601E+000  -3.68331138E-004      61.52  <-- SCF
      5  -2.51514188E+004  5.52611990E+000  -2.72588718E-003      74.46  <-- SCF
      6  -2.51514184E+004  5.52567978E+000  -2.78170789E-006      88.26  <-- SCF
      7  -2.51514193E+004  5.52620435E+000   6.66622132E-006      97.32  <-- SCF
------------------------------------------------------------------------ <-- SCF
 
Final energy, E             =  -25151.28473785     eV
Final free energy (E-TS)    =  -25151.41926693     eV
(energies not corrected for finite basis set)
 
NB est. 0K energy (E-0.5TS)      =  -25151.35200239     eV
 
Calculating total energy with cut-off of  295.000 eV.
------------------------------------------------------------------------ <-- SCF
SCF loop      Energy           Fermi           Energy gain       Timer   <-- SCF
                               energy          per atom          (sec)   <-- SCF
------------------------------------------------------------------------ <-- SCF
Initial  -2.51512847E+004  0.00000000E+000                       105.69  <-- SCF
      1  -2.51526277E+004  5.52505151E+000   1.04918564E-002     115.98  <-- SCF
      2  -2.51526307E+004  5.52505098E+000   2.34643150E-005     128.36  <-- SCF
      3  -2.51526302E+004  5.52486983E+000  -4.02091509E-006     138.52  <-- SCF
      4  -2.51526304E+004  5.52477799E+000   1.90855029E-006     148.83  <-- SCF
------------------------------------------------------------------------ <-- SCF
 
Final energy, E             =  -25152.49633198     eV
Final free energy (E-TS)    =  -25152.63041791     eV
(energies not corrected for finite basis set)
 
NB est. 0K energy (E-0.5TS)      =  -25152.56337495     eV
 
Calculating total energy with cut-off of  300.000 eV.
------------------------------------------------------------------------ <-- SCF
SCF loop      Energy           Fermi           Energy gain       Timer   <-- SCF
                               energy          per atom          (sec)   <-- SCF
------------------------------------------------------------------------ <-- SCF
Initial  -2.51524963E+004  0.00000000E+000                       157.23  <-- SCF
      1  -2.51536523E+004  5.52384241E+000   9.03123346E-003     167.32  <-- SCF
      2  -2.51536549E+004  5.52384209E+000   1.98310675E-005     179.72  <-- SCF
      3  -2.51536545E+004  5.52364536E+000  -2.69520603E-006     190.05  <-- SCF
      4  -2.51536548E+004  5.52352120E+000   1.74524397E-006     200.42  <-- SCF
------------------------------------------------------------------------ <-- SCF
 
Final energy, E             =  -25153.52078833     eV
Final free energy (E-TS)    =  -25153.65476128     eV
(energies not corrected for finite basis set)
 
NB est. 0K energy (E-0.5TS)      =  -25153.58777481     eV
 
 For future reference: finite basis dEtot/dlog(Ecut) =     -64.443529eV
 Total energy corrected for finite basis set =  -25153.692210 eV
  
 WARNING - MD ensemble=NVT so fixing cell parameters
  
 Starting MD

 ************************************** Forces **************************************
 *                                                                                  *
 *                           Cartesian components (eV/A)                            *
 * -------------------------------------------------------------------------------- *
 *                         x                    y                    z              *
 *                                                                                  *
 * Li              1     -0.10679             -0.10695             -0.10686         *
 * Li              2     -0.10764             -0.10776             -0.10789         *
 * Li              3      0.10781              0.10645             -0.10512         *
 * Li              4      0.10569              0.10756             -0.10987         *
 * Li              5      0.10652             -0.10501              0.10770         *
 * Li              6      0.10764             -0.11002              0.10560         *
 * Li              7     -0.10500              0.10765              0.10632         *
 * Li              8     -0.10978              0.10565              0.10761         *
 * Li              9     -0.10739             -0.10754             -0.10753         *
 * Li             10     -0.10586             -0.10587             -0.10603         *
 * Li             11      0.11017              0.10646             -0.10438         *
 * Li             12      0.10761              0.10857             -0.10697         *
 * Li             13     -0.10430              0.11021              0.10647         *
 * Li             14     -0.10675              0.10752              0.10867         *
 * Li             15      0.10667             -0.10416              0.11023         *
 * Li             16      0.10860             -0.10696              0.10751         *
 * Li             17     -0.10741             -0.10739             -0.10912         *
 * Li             18     -0.10685             -0.10607             -0.10671         *
 * Li             19      0.10622              0.10720             -0.10609         *
 * Li             20      0.10872              0.10670             -0.10783         *
 * Li             21      0.10835             -0.10682              0.10623         *
 * Li             22      0.10598             -0.10834              0.10710         *
 * Li             23     -0.10871              0.10990              0.10433         *
 * Li             24     -0.10463              0.10448              0.10947         *
 * Li             25     -0.10707             -0.10792             -0.10654         *
 * Li             26     -0.10827             -0.10620             -0.10549         *
 * Li             27      0.10427              0.10693             -0.10479         *
 * Li             28      0.10713              0.10589             -0.10760         *
 * Li             29     -0.11034              0.10926              0.10687         *
 * Li             30     -0.10714              0.10654              0.11150         *
 * Li             31      0.10681             -0.10721              0.10799         *
 * Li             32      0.10567             -0.10696              0.10711         *
 * Li             33     -0.10898             -0.10724             -0.10743         *
 * Li             34     -0.10670             -0.10671             -0.10607         *
 * Li             35      0.10623              0.10845             -0.10674         *
 * Li             36      0.10721              0.10606             -0.10846         *
 * Li             37      0.10447             -0.10870              0.10988         *
 * Li             38      0.10947             -0.10439              0.10450         *
 * Li             39     -0.10597              0.10636              0.10721         *
 * Li             40     -0.10783              0.10876              0.10673         *
 * Li             41     -0.10643             -0.10693             -0.10799         *
 * Li             42     -0.10559             -0.10830             -0.10633         *
 * Li             43      0.10801              0.10706             -0.10712         *
 * Li             44      0.10734              0.10568             -0.10706         *
 * Li             45     -0.10466              0.10427              0.10686         *
 * Li             46     -0.10748              0.10727              0.10574         *
 * Li             47      0.10696             -0.11048              0.10922         *
 * Li             48      0.11143             -0.10694              0.10666         *
 * Li             49     -0.10597             -0.10668             -0.10907         *
 * Li             50     -0.10694             -0.10862             -0.10509         *
 * Li             51      0.10788              0.10690             -0.10788         *
 * Li             52      0.10757              0.10812             -0.10623         *
 * Li             53      0.10964             -0.10743              0.10815         *
 * Li             54      0.10472             -0.10582              0.10646         *
 * Li             55     -0.10817              0.10487              0.10582         *
 * Li             56     -0.10672              0.10890              0.10822         *
 * Li             57     -0.10782             -0.10615             -0.10718         *
 * Li             58     -0.10947             -0.10734             -0.10586         *
 * Li             59      0.10673              0.10715             -0.10738         *
 * Li             60      0.10661              0.10863             -0.10767         *
 * Li             61     -0.10896              0.10462              0.10730         *
 * Li             62     -0.10653              0.10803              0.10838         *
 * Li             63      0.10745             -0.10772              0.10690         *
 * Li             64      0.10255             -0.10744              0.10617         *
 * Li             65     -0.10726             -0.10939             -0.10736         *
 * Li             66     -0.10600             -0.10663             -0.10661         *
 * Li             67      0.11006              0.10460             -0.10858         *
 * Li             68      0.10451              0.10927             -0.10452         *
 * Li             69      0.10727             -0.10593              0.10628         *
 * Li             70      0.10689             -0.10817              0.10882         *
 * Li             71     -0.10675              0.10603              0.10853         *
 * Li             72     -0.10829              0.10731              0.10602         *
 * Li             73     -0.10782             -0.10667             -0.10689         *
 * Li             74     -0.10635             -0.10541             -0.10814         *
 * Li             75      0.10935              0.10682             -0.11026         *
 * Li             76      0.10663              0.11109             -0.10698         *
 * Li             77     -0.10731              0.10777              0.10705         *
 * Li             78     -0.10691              0.10713              0.10557         *
 * Li             79      0.10702             -0.10453              0.10429         *
 * Li             80      0.10590             -0.10768              0.10722         *
 * Li             81     -0.10672             -0.10919             -0.10584         *
 * Li             82     -0.10869             -0.10504             -0.10688         *
 * Li             83      0.10470              0.10580             -0.10806         *
 * Li             84      0.10886              0.10815             -0.10670         *
 * Li             85      0.10685             -0.10775              0.10789         *
 * Li             86      0.10791             -0.10626              0.10768         *
 * Li             87     -0.10757              0.10804              0.10973         *
 * Li             88     -0.10584              0.10657              0.10474         *
 * Li             89     -0.10627             -0.10721             -0.10771         *
 * Li             90     -0.10716             -0.10578             -0.10956         *
 * Li             91      0.10457              0.10731             -0.10882         *
 * Li             92      0.10793              0.10827             -0.10635         *
 * Li             93     -0.10756              0.10664              0.10753         *
 * Li             94     -0.10750              0.10628              0.10249         *
 * Li             95      0.10703             -0.10732              0.10669         *
 * Li             96      0.10860             -0.10779              0.10684         *
 * Li             97     -0.10907             -0.10557             -0.10659         *
 * Li             98     -0.10516             -0.10701             -0.10862         *
 * Li             99      0.10830              0.10952             -0.10756         *
 * Li            100      0.10646              0.10495             -0.10573         *
 * Li            101      0.10564             -0.10817              0.10494         *
 * Li            102      0.10845             -0.10643              0.10882         *
 * Li            103     -0.10783              0.10807              0.10693         *
 * Li            104     -0.10609              0.10744              0.10812         *
 * Li            105     -0.10715             -0.10758             -0.10609         *
 * Li            106     -0.10597             -0.10964             -0.10723         *
 * Li            107      0.10699              0.10756             -0.10779         *
 * Li            108      0.10631              0.10286             -0.10733         *
 * Li            109     -0.10747              0.10694              0.10723         *
 * Li            110     -0.10769              0.10681              0.10876         *
 * Li            111      0.10730             -0.10908              0.10467         *
 * Li            112      0.10854             -0.10628              0.10794         *
 * Li            113     -0.10455             -0.10444             -0.10449         *
 * Li            114     -0.10918             -0.10928             -0.10926         *
 * Li            115      0.10595              0.10784             -0.10725         *
 * Li            116      0.10780              0.10640             -0.10737         *
 * Li            117      0.10799             -0.10735              0.10607         *
 * Li            118      0.10615             -0.10730              0.10783         *
 * Li            119     -0.10728              0.10619              0.10783         *
 * Li            120     -0.10753              0.10774              0.10634         *
 * Li            121     -0.10683             -0.10676             -0.10681         *
 * Li            122     -0.10851             -0.10867             -0.10857         *
 * Li            123      0.10707              0.10762             -0.10658         *
 * Li            124      0.10722              0.10605             -0.10688         *
 * Li            125     -0.10650              0.10744              0.10758         *
 * Li            126     -0.10688              0.10723              0.10595         *
 * Li            127      0.10763             -0.10664              0.10716         *
 * Li            128      0.10578             -0.10680              0.10733         *
 *                                                                                  *
 ************************************************************************************
  
            xxxxxxxxxxxxxxxxxxxxxxxxxxxxxxxxxxxxxxxxxxxxxxxxxxxxxxxxxxxxxx
            x                                               MD Data:     x
            x                                                            x
            x              time :      0.000000                   ps     x
            x                                                            x
            x   Potential Energy: -25153.692210                   eV     x
            x   Kinetic   Energy:      8.208007                   eV     x
            x   Total     Energy: -25145.484203                   eV     x
            x   Hamilt    Energy: -25145.268770                   eV     x
            x                                                            x
            x        Temperature:    500.000000                    K     x
            xxxxxxxxxxxxxxxxxxxxxxxxxxxxxxxxxxxxxxxxxxxxxxxxxxxxxxxxxxxxxx


================================================================================
 Starting MD iteration          1 ...
================================================================================
 
+---------------- MEMORY AND SCRATCH DISK ESTIMATES PER PROCESS --------------+
|                                                     Memory          Disk    |
| Model and support data                               62.2 MB         0.0 MB |
| Molecular Dynamics requirements                      85.3 MB         0.0 MB |
|                                               ----------------------------- |
| Approx. total storage required per process          147.5 MB         0.0 MB |
|                                                                             |
| Requirements will fluctuate during execution and may exceed these estimates |
+-----------------------------------------------------------------------------+
 

                           -------------------------------
                                     Cell Contents
                           -------------------------------

            xxxxxxxxxxxxxxxxxxxxxxxxxxxxxxxxxxxxxxxxxxxxxxxxxxxxxxxxxxxxxx
            x  Element    Atom        Fractional coordinates of atoms    x
            x            Number           u          v          w        x
            x------------------------------------------------------------x
            x   Li         1          0.091791   0.091445   0.091376     x
            x   Li         2          0.341204   0.340993   0.341761     x
            x   Li         3          0.158951   0.409033   0.342456     x
            x   Li         4          0.408345   0.159129   0.091506     x
            x   Li         5          0.408442   0.341830   0.158927     x
            x   Li         6          0.158606   0.091760   0.408840     x
            x   Li         7          0.340624   0.158895   0.408384     x
            x   Li         8          0.091916   0.408731   0.158181     x
            x   Li         9          0.216622   0.216053   0.216617     x
            x   Li        10          0.466479   0.466015   0.466469     x
            x   Li        11          0.033605   0.284249   0.465575     x
            x   Li        12          0.283873   0.033757   0.216102     x
            x   Li        13          0.465984   0.033376   0.283158     x
            x   Li        14          0.216490   0.284090   0.034444     x
            x   Li        15          0.283157   0.465898   0.034196     x
            x   Li        16          0.033237   0.216829   0.283743     x
            x   Li        17          0.590690   0.091233   0.092042     x
            x   Li        18          0.840662   0.340675   0.340757     x
            x   Li        19          0.658654   0.408348   0.341281     x
            x   Li        20          0.908549   0.158492   0.091186     x
            x   Li        21          0.908913   0.341392   0.158260     x
            x   Li        22          0.659206   0.091886   0.408346     x
            x   Li        23          0.841933   0.158463   0.408899     x
            x   Li        24          0.591426   0.408930   0.158316     x
            x   Li        25          0.716133   0.217379   0.215819     x
            x   Li        26          0.965215   0.466342   0.466132     x
            x   Li        27          0.533400   0.284390   0.466970     x
            x   Li        28          0.784237   0.033315   0.215893     x
            x   Li        29          0.966012   0.033449   0.283467     x
            x   Li        30          0.715696   0.283413   0.033385     x
            x   Li        31          0.784180   0.465572   0.033926     x
            x   Li        32          0.534310   0.216381   0.284124     x
            x   Li        33          0.091713   0.591054   0.090589     x
            x   Li        34          0.341223   0.840942   0.341247     x
            x   Li        35          0.158546   0.908815   0.341710     x
            x   Li        36          0.408848   0.659153   0.091471     x
            x   Li        37          0.408638   0.841445   0.158527     x
            x   Li        38          0.159042   0.591198   0.408085     x
            x   Li        39          0.340696   0.658045   0.409372     x
            x   Li        40          0.091376   0.909243   0.158981     x
            x   Li        41          0.216702   0.715684   0.216019     x
            x   Li        42          0.466075   0.966120   0.466590     x
            x   Li        43          0.033608   0.783579   0.466334     x
            x   Li        44          0.283572   0.533862   0.216237     x
            x   Li        45          0.466509   0.534113   0.284262     x
            x   Li        46          0.215767   0.783383   0.033613     x
            x   Li        47          0.283710   0.965987   0.033445     x
            x   Li        48          0.034038   0.716557   0.284001     x
            x   Li        49          0.591783   0.591676   0.091985     x
            x   Li        50          0.841486   0.841625   0.341701     x
            x   Li        51          0.658703   0.908684   0.342152     x
            x   Li        52          0.909021   0.658552   0.090707     x
            x   Li        53          0.908242   0.841006   0.159107     x
            x   Li        54          0.658295   0.590909   0.408033     x
            x   Li        55          0.841220   0.658487   0.408515     x
            x   Li        56          0.591857   0.908501   0.157884     x
            x   Li        57          0.716544   0.716637   0.216078     x
            x   Li        58          0.966946   0.966282   0.466523     x
            x   Li        59          0.533588   0.783956   0.466471     x
            x   Li        60          0.783809   0.533074   0.216622     x
            x   Li        61          0.966767   0.533594   0.283294     x
            x   Li        62          0.716469   0.784360   0.033847     x
            x   Li        63          0.783449   0.966891   0.033512     x
            x   Li        64          0.533804   0.716399   0.283339     x
            x   Li        65          0.091470   0.091777   0.591372     x
            x   Li        66          0.340941   0.341216   0.840471     x
            x   Li        67          0.159141   0.408467   0.842049     x
            x   Li        68          0.407951   0.159003   0.591603     x
            x   Li        69          0.408274   0.341428   0.658715     x
            x   Li        70          0.158637   0.090900   0.908624     x
            x   Li        71          0.341689   0.158268   0.908247     x
            x   Li        72          0.092250   0.408904   0.659047     x
            x   Li        73          0.216614   0.216345   0.716384     x
            x   Li        74          0.466130   0.465982   0.966473     x
            x   Li        75          0.033826   0.282939   0.966590     x
            x   Li        76          0.283714   0.033145   0.716295     x
            x   Li        77          0.466297   0.032903   0.783416     x
            x   Li        78          0.217206   0.284118   0.533717     x
            x   Li        79          0.284268   0.466071   0.533097     x
            x   Li        80          0.033594   0.216871   0.784423     x
            x   Li        81          0.591026   0.091298   0.591624     x
            x   Li        82          0.840666   0.340882   0.841414     x
            x   Li        83          0.659507   0.407958   0.842202     x
            x   Li        84          0.908820   0.158103   0.591813     x
            x   Li        85          0.907922   0.341560   0.658198     x
            x   Li        86          0.658925   0.091104   0.908909     x
            x   Li        87          0.841293   0.158660   0.908489     x
            x   Li        88          0.591031   0.409432   0.658606     x
            x   Li        89          0.716428   0.215852   0.715877     x
            x   Li        90          0.965427   0.466427   0.966229     x
            x   Li        91          0.533689   0.283426   0.965869     x
            x   Li        92          0.783767   0.033769   0.715712     x
            x   Li        93          0.967024   0.034289   0.783766     x
            x   Li        94          0.716352   0.282953   0.533096     x
            x   Li        95          0.783272   0.466530   0.533292     x
            x   Li        96          0.533631   0.216185   0.783215     x
            x   Li        97          0.091068   0.591446   0.591727     x
            x   Li        98          0.341050   0.841834   0.841075     x
            x   Li        99          0.158831   0.908807   0.841098     x
            x   Li       100          0.408668   0.659005   0.591132     x
            x   Li       101          0.409196   0.842193   0.658893     x
            x   Li       102          0.158397   0.591759   0.908558     x
            x   Li       103          0.341234   0.658263   0.908613     x
            x   Li       104          0.091571   0.908836   0.658487     x
            x   Li       105          0.216216   0.716918   0.716983     x
            x   Li       106          0.466213   0.966509   0.966352     x
            x   Li       107          0.033605   0.784076   0.966415     x
            x   Li       108          0.284215   0.533303   0.716665     x
            x   Li       109          0.466356   0.533653   0.784382     x
            x   Li       110          0.215801   0.783471   0.533779     x
            x   Li       111          0.283556   0.965922   0.533561     x
            x   Li       112          0.033703   0.716444   0.783648     x
            x   Li       113          0.591243   0.590939   0.590927     x
            x   Li       114          0.840863   0.841706   0.841455     x
            x   Li       115          0.658718   0.908171   0.841423     x
            x   Li       116          0.908374   0.659291   0.591632     x
            x   Li       117          0.908806   0.841840   0.658314     x
            x   Li       118          0.658746   0.590598   0.908192     x
            x   Li       119          0.840897   0.659232   0.908520     x
            x   Li       120          0.591684   0.908410   0.658214     x
            x   Li       121          0.715664   0.716053   0.716065     x
            x   Li       122          0.965888   0.965852   0.967027     x
            x   Li       123          0.534456   0.783519   0.966634     x
            x   Li       124          0.783474   0.533696   0.717061     x
            x   Li       125          0.966011   0.533667   0.783497     x
            x   Li       126          0.716945   0.783327   0.532866     x
            x   Li       127          0.783402   0.966877   0.533772     x
            x   Li       128          0.533782   0.716064   0.783408     x
            xxxxxxxxxxxxxxxxxxxxxxxxxxxxxxxxxxxxxxxxxxxxxxxxxxxxxxxxxxxxxx

------------------------------------------------------------------------ <-- SCF
SCF loop      Energy           Fermi           Energy gain       Timer   <-- SCF
                               energy          per atom          (sec)   <-- SCF
------------------------------------------------------------------------ <-- SCF
Initial  -2.51532648E+004  0.00000000E+000                       233.19  <-- SCF
      1  -2.51536273E+004  5.52354870E+000   2.83176826E-003     244.05  <-- SCF
      2  -2.51536587E+004  5.52354169E+000   2.45495335E-004     261.26  <-- SCF
      3  -2.51536548E+004  5.52349302E+000  -3.02425703E-005     275.45  <-- SCF
      4  -2.51536546E+004  5.52348784E+000  -1.94975238E-006     286.72  <-- SCF
------------------------------------------------------------------------ <-- SCF
 
Final energy, E             =  -25153.52084700     eV
Final free energy (E-TS)    =  -25153.65456962     eV
(energies not corrected for finite basis set)
 
NB est. 0K energy (E-0.5TS)      =  -25153.58770831     eV
 

 ************************************** Forces **************************************
 *                                                                                  *
 *                           Cartesian components (eV/A)                            *
 * -------------------------------------------------------------------------------- *
 *                         x                    y                    z              *
 *                                                                                  *
 * Li              1     -0.13500             -0.10069             -0.11016         *
 * Li              2     -0.07812             -0.07773             -0.19035         *
 * Li              3      0.08728              0.07331             -0.21129         *
 * Li              4      0.11414              0.12589             -0.13112         *
 * Li              5      0.16960             -0.12252              0.14218         *
 * Li              6      0.08446             -0.12398              0.08905         *
 * Li              7     -0.01597              0.04861              0.12897         *
 * Li              8     -0.14837              0.09999              0.18866         *
 * Li              9     -0.16091             -0.07290             -0.08999         *
 * Li             10     -0.12551             -0.07818             -0.12745         *
 * Li             11      0.11740              0.08731             -0.00843         *
 * Li             12      0.09621              0.06928             -0.09525         *
 * Li             13     -0.07202              0.11986              0.16908         *
 * Li             14     -0.09615              0.02849              0.02619         *
 * Li             15      0.18005             -0.04798              0.03941         *
 * Li             16      0.15742             -0.12692              0.07223         *
 * Li             17     -0.08257             -0.09293             -0.13472         *
 * Li             18     -0.07266             -0.07679             -0.08199         *
 * Li             19      0.09634              0.12644             -0.10038         *
 * Li             20      0.10606              0.13253             -0.09763         *
 * Li             21      0.12838             -0.12406              0.11671         *
 * Li             22      0.06155             -0.14259              0.09522         *
 * Li             23     -0.12250              0.10162              0.08941         *
 * Li             24     -0.14071              0.11252              0.11061         *
 * Li             25     -0.06478             -0.20658             -0.10760         *
 * Li             26     -0.04815             -0.07413             -0.07571         *
 * Li             27      0.09921              0.03550             -0.11703         *
 * Li             28      0.03444              0.15745             -0.06155         *
 * Li             29     -0.07648              0.13659              0.12273         *
 * Li             30     -0.07843              0.07805              0.14061         *
 * Li             31      0.05996             -0.03870              0.11507         *
 * Li             32      0.03550             -0.10311              0.10376         *
 * Li             33     -0.15742             -0.09477             -0.06004         *
 * Li             34     -0.11376             -0.12240             -0.10681         *
 * Li             35      0.14083              0.10028             -0.13526         *
 * Li             36      0.10335              0.05656             -0.15428         *
 * Li             37      0.10657             -0.10011              0.12121         *
 * Li             38      0.02860             -0.10063              0.17052         *
 * Li             39     -0.04932              0.16361              0.06718         *
 * Li             40     -0.10063              0.05621              0.10567         *
 * Li             41     -0.13564             -0.03858             -0.09393         *
 * Li             42     -0.09688             -0.02850             -0.13910         *
 * Li             43      0.09159              0.08428             -0.10892         *
 * Li             44      0.15418              0.07145             -0.08513         *
 * Li             45     -0.14861              0.07591              0.07470         *
 * Li             46     -0.07835              0.13706              0.10561         *
 * Li             47      0.10742             -0.11036              0.11585         *
 * Li             48      0.09976             -0.10947              0.04844         *
 * Li             49     -0.10351             -0.13483             -0.17781         *
 * Li             50     -0.10856             -0.12106             -0.10851         *
 * Li             51      0.08263              0.12764             -0.18112         *
 * Li             52      0.08914              0.10669             -0.06293         *
 * Li             53      0.15153             -0.12585              0.08858         *
 * Li             54      0.11870             -0.06683              0.11503         *
 * Li             55     -0.09884              0.10081              0.08247         *
 * Li             56     -0.12643              0.12748              0.19679         *
 * Li             57     -0.08200             -0.12578             -0.07221         *
 * Li             58     -0.14360             -0.09963             -0.11435         *
 * Li             59      0.10398              0.05178             -0.12669         *
 * Li             60      0.12244              0.15810             -0.11732         *
 * Li             61     -0.11044              0.10198              0.09274         *
 * Li             62     -0.08463              0.03854              0.08521         *
 * Li             63      0.12262             -0.11633              0.11325         *
 * Li             64      0.08595             -0.07177              0.14739         *
 * Li             65     -0.09354             -0.08008             -0.10146         *
 * Li             66     -0.07929             -0.12428             -0.01141         *
 * Li             67      0.05609              0.14176             -0.09177         *
 * Li             68      0.14235              0.06181             -0.14520         *
 * Li             69      0.17347             -0.08671              0.11819         *
 * Li             70      0.13254             -0.07246              0.12545         *
 * Li             71     -0.15082              0.13444              0.14001         *
 * Li             72     -0.16842              0.08486              0.05832         *
 * Li             73     -0.15894             -0.15018             -0.10248         *
 * Li             74     -0.11700             -0.08903             -0.08485         *
 * Li             75      0.09614              0.17202             -0.11301         *
 * Li             76      0.09248              0.16792             -0.13077         *
 * Li             77     -0.06496              0.16349              0.12759         *
 * Li             78     -0.20951              0.07727              0.13771         *
 * Li             79      0.07610             -0.05315              0.18961         *
 * Li             80      0.11222             -0.08054              0.04315         *
 * Li             81     -0.13939             -0.11246             -0.15978         *
 * Li             82     -0.02772             -0.10793             -0.13165         *
 * Li             83      0.02713              0.12747             -0.18879         *
 * Li             84      0.14547              0.17263             -0.12975         *
 * Li             85      0.17966             -0.11493              0.11636         *
 * Li             86      0.06612             -0.10745              0.07114         *
 * Li             87     -0.11209              0.08986              0.10484         *
 * Li             88     -0.05781              0.04785              0.16215         *
 * Li             89     -0.13299             -0.06166             -0.08811         *
 * Li             90     -0.04443             -0.12974             -0.15119         *
 * Li             91      0.05492              0.09683             -0.09753         *
 * Li             92      0.11072              0.08166             -0.02424         *
 * Li             93     -0.14351              0.04773              0.13730         *
 * Li             94     -0.11310              0.15784              0.13597         *
 * Li             95      0.09092             -0.11778              0.14637         *
 * Li             96      0.12993             -0.09294              0.11629         *
 * Li             97     -0.07637             -0.13821             -0.15782         *
 * Li             98     -0.05263             -0.19106             -0.04805         *
 * Li             99      0.06595              0.10058             -0.07660         *
 * Li            100      0.08920              0.11193             -0.05255         *
 * Li            101      0.06866             -0.19372              0.08766         *
 * Li            102      0.11062             -0.15765              0.08515         *
 * Li            103     -0.09198              0.15041              0.14826         *
 * Li            104     -0.12818              0.11519              0.11650         *
 * Li            105     -0.06461             -0.16155             -0.16453         *
 * Li            106     -0.08749             -0.12286             -0.10482         *
 * Li            107      0.09456              0.11124             -0.11562         *
 * Li            108      0.06804              0.15661             -0.17468         *
 * Li            109     -0.07658              0.08551              0.06816         *
 * Li            110     -0.06391              0.09618              0.13184         *
 * Li            111      0.10764             -0.09159              0.09169         *
 * Li            112      0.06976             -0.08878              0.12060         *
 * Li            113     -0.10665             -0.05261             -0.09319         *
 * Li            114     -0.05994             -0.11211             -0.16184         *
 * Li            115      0.07992              0.14917             -0.13361         *
 * Li            116      0.11114              0.06425             -0.11200         *
 * Li            117      0.09190             -0.10797              0.15453         *
 * Li            118      0.09914             -0.08268              0.18638         *
 * Li            119     -0.10676              0.09174              0.11943         *
 * Li            120     -0.06777              0.12225              0.11818         *
 * Li            121     -0.06251             -0.07286             -0.12879         *
 * Li            122     -0.08147             -0.07484             -0.14507         *
 * Li            123      0.03870              0.08568             -0.16523         *
 * Li            124      0.11909              0.09590             -0.16965         *
 * Li            125     -0.08185              0.07512              0.13167         *
 * Li            126     -0.14194              0.09723              0.15550         *
 * Li            127      0.12030             -0.14049              0.08521         *
 * Li            128      0.06298             -0.07931              0.12933         *
 *                                                                                  *
 ************************************************************************************
  
            xxxxxxxxxxxxxxxxxxxxxxxxxxxxxxxxxxxxxxxxxxxxxxxxxxxxxxxxxxxxxx
            x                                               MD Data:     x
            x                                                            x
            x              time :      0.000500                   ps     x
            x                                                            x
            x   Potential Energy: -25153.692019                   eV     x
            x   Kinetic   Energy:      8.205111                   eV     x
            x   Total     Energy: -25145.486907                   eV     x
            x   Hamilt    Energy: -25145.486907                   eV     x
            x                                                            x
            x        Temperature:    499.823593                    K     x
            xxxxxxxxxxxxxxxxxxxxxxxxxxxxxxxxxxxxxxxxxxxxxxxxxxxxxxxxxxxxxx


--------------------------------------------------------------------------------
 ... finished MD iteration          1

================================================================================
 Starting MD iteration          2 ...
================================================================================

                           -------------------------------
                                     Cell Contents
                           -------------------------------

            xxxxxxxxxxxxxxxxxxxxxxxxxxxxxxxxxxxxxxxxxxxxxxxxxxxxxxxxxxxxxx
            x  Element    Atom        Fractional coordinates of atoms    x
            x            Number           u          v          w        x
            x------------------------------------------------------------x
            x   Li         1          0.092181   0.091491   0.091353     x
            x   Li         2          0.341010   0.340588   0.342119     x
            x   Li         3          0.159300   0.409463   0.343510     x
            x   Li         4          0.408088   0.159657   0.091612     x
            x   Li         5          0.408286   0.342261   0.159254     x
            x   Li         6          0.158610   0.092119   0.409077     x
            x   Li         7          0.339853   0.159186   0.408167     x
            x   Li         8          0.092432   0.408861   0.157764     x
            x   Li         9          0.216842   0.215708   0.216836     x
            x   Li        10          0.466559   0.465631   0.466539     x
            x   Li        11          0.033609   0.284896   0.464755     x
            x   Li        12          0.284145   0.033912   0.215805     x
            x   Li        13          0.465570   0.033151   0.282718     x
            x   Li        14          0.216582   0.284577   0.035285     x
            x   Li        15          0.282715   0.465399   0.034788     x
            x   Li        16          0.032874   0.217259   0.283883     x
            x   Li        17          0.589982   0.091067   0.092683     x
            x   Li        18          0.839927   0.339952   0.340116     x
            x   Li        19          0.658707   0.408097   0.341163     x
            x   Li        20          0.908498   0.158384   0.090974     x
            x   Li        21          0.909226   0.341384   0.157919     x
            x   Li        22          0.659809   0.092373   0.408091     x
            x   Li        23          0.842466   0.158325   0.409195     x
            x   Li        24          0.591451   0.409259   0.158030     x
            x   Li        25          0.715870   0.218355   0.215240     x
            x   Li        26          0.964034   0.466286   0.465866     x
            x   Li        27          0.533198   0.285176   0.467541     x
            x   Li        28          0.784869   0.033031   0.215389     x
            x   Li        29          0.965627   0.033298   0.283334     x
            x   Li        30          0.714994   0.283223   0.033169     x
            x   Li        31          0.784757   0.464748   0.034252     x
            x   Li        32          0.535017   0.216363   0.284648     x
            x   Li        33          0.092026   0.590710   0.089780     x
            x   Li        34          0.341047   0.840484   0.341094     x
            x   Li        35          0.158492   0.909029   0.342019     x
            x   Li        36          0.409095   0.659703   0.091540     x
            x   Li        37          0.408675   0.841492   0.158454     x
            x   Li        38          0.159480   0.590997   0.407571     x
            x   Li        39          0.339995   0.657491   0.410142     x
            x   Li        40          0.091353   0.909883   0.159361     x
            x   Li        41          0.217003   0.714972   0.215641     x
            x   Li        42          0.465751   0.965843   0.466779     x
            x   Li        43          0.033614   0.783556   0.466269     x
            x   Li        44          0.283545   0.534123   0.216077     x
            x   Li        45          0.466618   0.534624   0.284923     x
            x   Li        46          0.215136   0.783166   0.033624     x
            x   Li        47          0.283818   0.965575   0.033289     x
            x   Li        48          0.034475   0.716715   0.284398     x
            x   Li        49          0.592167   0.591951   0.092568     x
            x   Li        50          0.841573   0.841851   0.342004     x
            x   Li        51          0.658804   0.908767   0.342902     x
            x   Li        52          0.909440   0.658503   0.090017     x
            x   Li        53          0.907884   0.840612   0.159612     x
            x   Li        54          0.657989   0.590421   0.407465     x
            x   Li        55          0.841042   0.658373   0.408429     x
            x   Li        56          0.592315   0.908403   0.157170     x
            x   Li        57          0.716690   0.716874   0.215758     x
            x   Li        58          0.967491   0.966166   0.466646     x
            x   Li        59          0.533575   0.784308   0.466542     x
            x   Li        60          0.784017   0.532549   0.216844     x
            x   Li        61          0.967135   0.533587   0.282987     x
            x   Li        62          0.716539   0.785117   0.034093     x
            x   Li        63          0.783298   0.967383   0.033423     x
            x   Li        64          0.534006   0.716400   0.283079     x
            x   Li        65          0.091542   0.092156   0.591346     x
            x   Li        66          0.340484   0.341032   0.839547     x
            x   Li        67          0.159679   0.408335   0.842699     x
            x   Li        68          0.407303   0.159403   0.591805     x
            x   Li        69          0.407949   0.341457   0.658829     x
            x   Li        70          0.158674   0.090402   0.908649     x
            x   Li        71          0.341977   0.157936   0.907895     x
            x   Li        72          0.093099   0.409205   0.659492     x
            x   Li        73          0.216827   0.216290   0.716369     x
            x   Li        74          0.465860   0.465565   0.966547     x
            x   Li        75          0.034051   0.282279   0.966782     x
            x   Li        76          0.283827   0.032690   0.716190     x
            x   Li        77          0.466196   0.032206   0.783231     x
            x   Li        78          0.218008   0.284634   0.533833     x
            x   Li        79          0.284933   0.465745   0.532596     x
            x   Li        80          0.033586   0.217344   0.785242     x
            x   Li        81          0.590652   0.091196   0.591847     x
            x   Li        82          0.839936   0.340364   0.841429     x
            x   Li        83          0.660410   0.407316   0.843003     x
            x   Li        84          0.909039   0.157607   0.592227     x
            x   Li        85          0.907246   0.341720   0.657796     x
            x   Li        86          0.659248   0.090809   0.909216     x
            x   Li        87          0.841186   0.158718   0.908378     x
            x   Li        88          0.590664   0.410260   0.658612     x
            x   Li        89          0.716457   0.215307   0.715356     x
            x   Li        90          0.964457   0.466455   0.966057     x
            x   Li        91          0.533775   0.283251   0.965340     x
            x   Li        92          0.783932   0.033936   0.715028     x
            x   Li        93          0.967647   0.034975   0.783933     x
            x   Li        94          0.716305   0.282307   0.532591     x
            x   Li        95          0.782942   0.466661   0.532985     x
            x   Li        96          0.533661   0.215972   0.782829     x
            x   Li        97          0.090738   0.591492   0.592054     x
            x   Li        98          0.340702   0.842267   0.840752     x
            x   Li        99          0.159059   0.909012   0.840798     x
            x   Li       100          0.408734   0.659408   0.590867     x
            x   Li       101          0.409790   0.842984   0.659184     x
            x   Li       102          0.158194   0.592116   0.908515     x
            x   Li       103          0.341070   0.657927   0.908627     x
            x   Li       104          0.091742   0.909070   0.658373     x
            x   Li       105          0.216034   0.717435   0.717565     x
            x   Li       106          0.466028   0.966618   0.966304     x
            x   Li       107          0.033608   0.784552   0.966431     x
            x   Li       108          0.284828   0.533007   0.716928     x
            x   Li       109          0.466313   0.533704   0.785162     x
            x   Li       110          0.215204   0.783340   0.533957     x
            x   Li       111          0.283512   0.965446   0.533521     x
            x   Li       112          0.033803   0.716491   0.783695     x
            x   Li       113          0.591086   0.590482   0.590455     x
            x   Li       114          0.840329   0.842013   0.841509     x
            x   Li       115          0.658834   0.907743   0.841446     x
            x   Li       116          0.908148   0.659979   0.591864     x
            x   Li       117          0.909011   0.842282   0.658029     x
            x   Li       118          0.658891   0.589798   0.907787     x
            x   Li       119          0.840395   0.659863   0.908438     x
            x   Li       120          0.591970   0.908219   0.657828     x
            x   Li       121          0.714931   0.715707   0.715731     x
            x   Li       122          0.965378   0.965306   0.967653     x
            x   Li       123          0.535308   0.783437   0.966868     x
            x   Li       124          0.783347   0.533791   0.717720     x
            x   Li       125          0.965624   0.533731   0.783394     x
            x   Li       126          0.717489   0.783053   0.532132     x
            x   Li       127          0.783204   0.967354   0.533943     x
            x   Li       128          0.533962   0.715731   0.783216     x
            xxxxxxxxxxxxxxxxxxxxxxxxxxxxxxxxxxxxxxxxxxxxxxxxxxxxxxxxxxxxxx

------------------------------------------------------------------------ <-- SCF
SCF loop      Energy           Fermi           Energy gain       Timer   <-- SCF
                               energy          per atom          (sec)   <-- SCF
------------------------------------------------------------------------ <-- SCF
Initial  -2.51528127E+004  0.00000000E+000                       319.15  <-- SCF
      1  -2.51535751E+004  5.52373292E+000   5.95639568E-003     329.85  <-- SCF
      2  -2.51536149E+004  5.52372386E+000   3.11048188E-004     347.02  <-- SCF
      3  -2.51536166E+004  5.52372104E+000   1.35369478E-005     359.65  <-- SCF
      4  -2.51536167E+004  5.52372155E+000   6.30843797E-007     370.83  <-- SCF
------------------------------------------------------------------------ <-- SCF
 
Final energy, E             =  -25153.48336208     eV
Final free energy (E-TS)    =  -25153.61671843     eV
(energies not corrected for finite basis set)
 
NB est. 0K energy (E-0.5TS)      =  -25153.55004026     eV
 

 ************************************** Forces **************************************
 *                                                                                  *
 *                           Cartesian components (eV/A)                            *
 * -------------------------------------------------------------------------------- *
 *                         x                    y                    z              *
 *                                                                                  *
 * Li              1     -0.15762             -0.09443             -0.11230         *
 * Li              2     -0.04588             -0.05249             -0.27400         *
 * Li              3      0.06537              0.04580             -0.30573         *
 * Li              4      0.12103              0.15097             -0.15317         *
 * Li              5      0.23367             -0.13313              0.17889         *
 * Li              6      0.06036             -0.13397              0.07587         *
 * Li              7      0.06862             -0.01139              0.15004         *
[...]
 * Li             81      0.92832             -0.25673             -0.16738         *
 * Li             82      0.10360              0.64117             -0.09857         *
 * Li             83     -0.11608              0.26213             -0.23143         *
 * Li             84     -0.93817              0.13792              0.11198         *
 * Li             85      0.51087              0.37387              0.19030         *
 * Li             86     -0.22544              0.32556              0.17779         *
 * Li             87     -0.16965              0.17577              0.45316         *
 * Li             88      0.27156             -0.14963             -0.61519         *
 * Li             89      0.15226             -0.12080             -0.18313         *
 * Li             90      0.15267             -0.24733              0.71024         *
 * Li             91      0.21989              0.22388              0.39354         *
 * Li             92      0.17348              0.74836              0.20680         *
 * Li             93     -0.07518              0.12415             -0.08471         *
 * Li             94      0.40921              0.35995              0.19325         *
 * Li             95      0.03946             -0.21657              0.29590         *
 * Li             96     -0.06801             -0.34755              0.08809         *
 * Li             97     -0.25876              0.13373              0.02491         *
 * Li             98     -0.07689              0.37493             -0.19964         *
 * Li             99      0.58572             -0.52705             -0.23117         *
 * Li            100      0.39237             -0.35608             -0.18222         *
 * Li            101     -0.26347              0.52729             -0.04999         *
 * Li            102      0.30110              0.28849             -0.06233         *
 * Li            103     -0.51906             -0.08320             -0.00142         *
 * Li            104      0.04520              0.10688             -0.12169         *
 * Li            105     -0.58399             -0.36526             -0.03812         *
 * Li            106      0.13805             -0.20106              0.27623         *
 * Li            107      0.06328             -0.82227             -0.11157         *
 * Li            108     -0.21415             -0.18108              0.80819         *
 * Li            109     -0.55308              0.19186             -0.29731         *
 * Li            110     -0.28929              0.32268             -0.09463         *
 * Li            111     -0.13869             -0.06460              0.13984         *
 * Li            112      0.09434             -0.28971             -0.17864         *
 * Li            113     -0.33086             -0.16677              0.32030         *
 * Li            114      0.11083             -0.52465              0.53852         *
 * Li            115      0.08725              0.04184              0.04607         *
 * Li            116      0.41917             -0.49017             -0.23436         *
 * Li            117      0.12100             -0.42505             -0.44090         *
 * Li            118      0.25195              0.59650             -0.29399         *
 * Li            119      0.32858             -0.86498             -0.41926         *
 * Li            120     -0.62632              0.41505             -0.19585         *
 * Li            121      0.47041              0.00215              0.97302         *
 * Li            122      0.17261              0.43882             -0.10324         *
 * Li            123     -0.15421              0.69770              0.30637         *
 * Li            124      0.10234              0.17691             -0.22695         *
 * Li            125      0.28712              0.39809             -0.16961         *
 * Li            126     -0.37946              0.33235              0.08201         *
 * Li            127      0.36191              0.02072             -0.04019         *
 * Li            128      0.40212             -0.26626              0.10520         *
 *                                                                                  *
 ************************************************************************************
  
            xxxxxxxxxxxxxxxxxxxxxxxxxxxxxxxxxxxxxxxxxxxxxxxxxxxxxxxxxxxxxx
            x                                               MD Data:     x
            x                                                            x
            x              time :      0.025000                   ps     x
            x                                                            x
            x   Potential Energy: -25149.653038                   eV     x
            x   Kinetic   Energy:      8.118567                   eV     x
            x   Total     Energy: -25141.534471                   eV     x
            x   Hamilt    Energy: -25141.534471                   eV     x
            x                                                            x
            x        Temperature:    494.551673                    K     x
            xxxxxxxxxxxxxxxxxxxxxxxxxxxxxxxxxxxxxxxxxxxxxxxxxxxxxxxxxxxxxx


 ***************** Stress Tensor *****************
 *                                               *
 *          Cartesian components (GPa)           *
 * --------------------------------------------- *
 *             x             y             z     *
 *                                               *
 *  x    -88.352110      1.035682      0.398377  *
 *  y      1.035682    -87.576793      0.635931  *
 *  z      0.398377      0.635931    -88.588669  *
 *                                               *
 *  Pressure:   88.1725                          *
 *                                               *
 *************************************************

 ****** Finite Temperature Pressure Tensor *******
 *                                               *
 *          Cartesian components (GPa)           *
 * --------------------------------------------- *
 *             x             y             z     *
 *                                               *
 *  x     89.380439     -0.968977     -0.293509  *
 *  y     -0.968977     88.457887     -0.500571  *
 *  z     -0.293509     -0.500571     89.762092  *
 *                                               *
 *  Finite Temperature Pressure:  -89.2001       *
 *                                               *
 *************************************************

--------------------------------------------------------------------------------
 ... finished MD iteration         50
 Finished MD
  
  **********************************************************
  *** There were at least     1 warnings during this run ***
  *** => please check the whole of this file carefully!  ***
  **********************************************************

Writing analysis data to li.castep_bin

Writing model to li.check

 ************************************** Forces **************************************
 *                                                                                  *
 *                           Cartesian components (eV/A)                            *
 * -------------------------------------------------------------------------------- *
 *                         x                    y                    z              *
 *                                                                                  *
 * Li              1     -0.61540             -0.45544              0.01704         *
 * Li              2     -0.58892             -0.00495              0.58820         *
 * Li              3      0.55893             -0.34594             -0.28730         *
 * Li              4      0.11391             -0.63309              0.50337         *
 * Li              5      0.39384             -0.77659             -0.45825         *
 * Li              6      0.15946             -0.32377             -0.18838         *
 * Li              7     -0.26822              0.48025              0.07006         *
 * Li              8      0.58212              0.18826             -0.44953         *
 * Li              9      0.42997             -0.24996             -0.27642         *
 * Li             10      0.02403              0.11692             -0.03797         *
 * Li             11     -0.25538             -0.06121              0.28965         *
 * Li             12     -0.26691              0.27149             -0.11822         *
 * Li             13      0.04632              0.36845             -0.17799         *
 * Li             14      0.01058              0.19358              0.09137         *
 * Li             15     -0.32092              0.09919              0.63151         *
 * Li             16     -0.13264             -0.32487              0.56150         *
 * Li             17     -0.05410              0.26175             -0.58842         *
 * Li             18      0.64085              0.88001              0.58469         *
 * Li             19      0.11131             -0.16684             -0.36539         *
 * Li             20     -0.00079             -0.04287             -0.16500         *
 * Li             21     -0.52505              0.22988              0.39732         *
 * Li             22     -0.30565              0.11330              0.58098         *
 * Li             23     -0.43065              0.36500              0.27649         *
 * Li             24      0.51427             -0.41995              0.17314         *
 * Li             25     -0.04106             -0.58701              1.21395         *
 * Li             26      0.49630             -0.05646             -0.07962         *
 * Li             27     -0.02861             -0.26754             -0.29678         *
 * Li             28      0.08599             -0.14658              0.34321         *
 * Li             29      0.17385             -0.03071             -0.29888         *
 * Li             30      0.22036              0.91424             -0.87078         *
 * Li             31     -0.43145              0.00357             -0.47605         *
 * Li             32     -0.09205             -0.09729             -0.48753         *
 * Li             33      0.08698              0.01789              0.43658         *
 * Li             34      0.18407              0.46265              0.02735         *
 * Li             35      0.03512             -0.21619              0.04104         *
 * Li             36      0.24295             -0.21486              0.56826         *
 * Li             37      0.07429             -0.43323              0.13657         *
 * Li             38      0.10159              0.06167              0.42542         *
 * Li             39      0.01560              0.17948             -0.46537         *
 * Li             40     -0.22707             -0.20071             -0.37344         *
 * Li             41     -0.08330             -0.22655             -0.07138         *
 * Li             42      0.33680             -1.21157              0.04092         *
 * Li             43      0.08151              0.17603             -0.00961         *
 * Li             44     -0.41424             -0.03766             -0.23307         *
 * Li             45      0.22509              0.23312             -0.59877         *
 * Li             46      0.19241             -0.07746             -0.02751         *
 * Li             47     -0.13772              0.34292              0.07711         *
 * Li             48     -0.03479             -0.16159             -0.10638         *
 * Li             49     -0.53523              0.52558              0.19732         *
 * Li             50     -0.34694              0.03825             -0.46373         *
 * Li             51      0.08898             -0.45981             -0.27939         *
 * Li             52     -0.56400             -0.05296             -0.15914         *
 * Li             53      0.26780              0.77428             -0.62731         *
 * Li             54      0.14430              0.05069              0.28430         *
 * Li             55      0.34588              0.12550              0.60473         *
 * Li             56     -0.25565             -0.17359             -0.12323         *
 * Li             57     -0.33302             -0.19696             -0.03635         *
 * Li             58     -0.12060             -0.07765              0.06140         *
 * Li             59     -0.15080              0.47189              0.07454         *
 * Li             60     -0.07339             -0.08968             -0.57022         *
 * Li             61     -0.25975              0.25391              0.59997         *
 * Li             62     -0.39999             -0.03561              0.01537         *
 * Li             63     -0.29011             -0.72555              0.22729         *
 * Li             64      0.12226             -0.30409             -0.22552         *
 * Li             65     -0.09035             -0.79706             -0.31575         *
 * Li             66     -0.15311              0.35842             -0.19902         *
 * Li             67      0.31804             -0.12741             -1.03363         *
 * Li             68     -0.10825              0.75923              0.47725         *
 * Li             69     -0.17686             -0.24711              0.04044         *
 * Li             70     -0.32467              0.27367             -0.09963         *
 * Li             71      0.03927             -0.43971              0.06945         *
 * Li             72     -0.37896              0.07679              0.34844         *
 * Li             73      0.21278              0.48645              0.51683         *
 * Li             74      0.72012              0.14777             -0.38828         *
 * Li             75      0.17497              0.70164             -0.19252         *
 * Li             76      0.52500             -0.52833              0.37742         *
 * Li             77     -0.64120              0.37719             -0.28185         *
 * Li             78      0.16305             -0.10519             -0.49269         *
 * Li             79     -0.70325             -0.15889              0.07673         *
 * Li             80      0.18423             -0.56235             -0.41913         *
 * Li             81      0.92832             -0.25673             -0.16738         *
 * Li             82      0.10360              0.64117             -0.09857         *
 * Li             83     -0.11608              0.26213             -0.23143         *
 * Li             84     -0.93817              0.13792              0.11198         *
 * Li             85      0.51087              0.37387              0.19030         *
 * Li             86     -0.22544              0.32556              0.17779         *
 * Li             87     -0.16965              0.17577              0.45316         *
 * Li             88      0.27156             -0.14963             -0.61519         *
 * Li             89      0.15226             -0.12080             -0.18313         *
 * Li             90      0.15267             -0.24733              0.71024         *
 * Li             91      0.21989              0.22388              0.39354         *
 * Li             92      0.17348              0.74836              0.20680         *
 * Li             93     -0.07518              0.12415             -0.08471         *
 * Li             94      0.40921              0.35995              0.19325         *
 * Li             95      0.03946             -0.21657              0.29590         *
 * Li             96     -0.06801             -0.34755              0.08809         *
 * Li             97     -0.25876              0.13373              0.02491         *
 * Li             98     -0.07689              0.37493             -0.19964         *
 * Li             99      0.58572             -0.52705             -0.23117         *
 * Li            100      0.39237             -0.35608             -0.18222         *
 * Li            101     -0.26347              0.52729             -0.04999         *
 * Li            102      0.30110              0.28849             -0.06233         *
 * Li            103     -0.51906             -0.08320             -0.00142         *
 * Li            104      0.04520              0.10688             -0.12169         *
 * Li            105     -0.58399             -0.36526             -0.03812         *
 * Li            106      0.13805             -0.20106              0.27623         *
 * Li            107      0.06328             -0.82227             -0.11157         *
 * Li            108     -0.21415             -0.18108              0.80819         *
 * Li            109     -0.55308              0.19186             -0.29731         *
 * Li            110     -0.28929              0.32268             -0.09463         *
 * Li            111     -0.13869             -0.06460              0.13984         *
 * Li            112      0.09434             -0.28971             -0.17864         *
 * Li            113     -0.33086             -0.16677              0.32030         *
 * Li            114      0.11083             -0.52465              0.53852         *
 * Li            115      0.08725              0.04184              0.04607         *
 * Li            116      0.41917             -0.49017             -0.23436         *
 * Li            117      0.12100             -0.42505             -0.44090         *
 * Li            118      0.25195              0.59650             -0.29399         *
 * Li            119      0.32858             -0.86498             -0.41926         *
 * Li            120     -0.62632              0.41505             -0.19585         *
 * Li            121      0.47041              0.00215              0.97302         *
 * Li            122      0.17261              0.43882             -0.10324         *
 * Li            123     -0.15421              0.69770              0.30637         *
 * Li            124      0.10234              0.17691             -0.22695         *
 * Li            125      0.28712              0.39809             -0.16961         *
 * Li            126     -0.37946              0.33235              0.08201         *
 * Li            127      0.36191              0.02072             -0.04019         *
 * Li            128      0.40212             -0.26626              0.10520         *
 *                                                                                  *
 ************************************************************************************

 ***************** Stress Tensor *****************
 *                                               *
 *          Cartesian components (GPa)           *
 * --------------------------------------------- *
 *             x             y             z     *
 *                                               *
 *  x    -88.352110      1.035682      0.398377  *
 *  y      1.035682    -87.576793      0.635931  *
 *  z      0.398377      0.635931    -88.588669  *
 *                                               *
 *  Pressure:   88.1725                          *
 *                                               *
 *************************************************

Writing analysis data to li.castep_bin

Writing model to li.check
 
 A BibTeX formatted list of references used in this run has been written to 
 li.bib
 
Initialisation time =      8.83 s
Calculation time    =   4276.50 s
Finalisation time   =      2.71 s
Total time          =   4288.04 s
Peak Memory Use     = 728156 kB
  
Overall parallel efficiency rating: Good (76%)                                  
  
Data was distributed by:-
G-vector (4-way); efficiency rating: Very good (81%)                            
k-point (4-way); efficiency rating: Excellent (93%)                             
