 +-------------------------------------------------+
 |                                                 |
 |      CCC   AA    SSS  TTTTT  EEEEE  PPPP        |
 |     C     A  A  S       T    E      P   P       |
 |     C     AAAA   SS     T    EEE    PPPP        |
 |     C     A  A     S    T    E      P           |
 |      CCC  A  A  SSS     T    EEEEE  P           |
 |                                                 |
 +-------------------------------------------------+
 |                                                 |
 | Welcome to Academic Release CASTEP version 18.1 |          
 | Ab Initio Total Energy Program                  |
 |                                                 |
 | Authors:                                        |
 | M. Segall, M. Probert, C. Pickard, P. Hasnip,   |
 | S. Clark, K. Refson, J. R. Yates, M. Payne      |
 |                                                 |
 | Contributors:                                   |
 | P. Lindan, P. Haynes, J. White, V. Milman,      |
 | N. Govind, M. Gibson, P. Tulip, V. Cocula,      |
 | B. Montanari, D. Quigley, M. Glover,            |
 | L. Bernasconi, A. Perlov, M. Plummer,           |
 | E. McNellis, J. Meyer, J. Gale, D. Jochym       |
 | J. Aarons, B. Walker, R. Gillen, D. Jones       |
 | T. Green, I. J. Bush, C. J. Armstrong,          |
 | E. J. Higgins, E. L. Brown, M. S. McFly,        |
 | J. Wilkins, B-C. Shih, P. J. P. Byrne           |
 |                                                 |
 | Copyright (c) 2000 - 2017                       |
 |                                                 |
 |     Distributed under the terms of an           |
 |     Agreement between the United Kingdom        |
 |     Car-Parrinello (UKCP) Consortium,           |
 |     Daresbury Laboratory and Accelrys, Inc.     |
 |                                                 |
 | Please cite                                     |
 |                                                 |
 |     "First principles methods using CASTEP"     |
 |                                                 |
 |         Zeitschrift fuer Kristallographie       |
 |           220(5-6) pp. 567-570 (2005)           |
 |                                                 |
 | S. J. Clark, M. D. Segall, C. J. Pickard,       |
 | P. J. Hasnip, M. J. Probert, K. Refson,         |
 | M. C. Payne                                     |
 |                                                 |
 |       in all publications arising from          |
 |              your use of CASTEP                 |
 |                                                 |
 +-------------------------------------------------+


 Compiled for linux_x86_64_gfortran4.8 on Thu, 19 Jul 2018 15:42:32 +0100
 from code version 70483bd0ad64+  Sun, 10 Dec 2017 12:18:29 +0000
 Compiler: GNU Fortran 4.8.5; Optimisation: fast
 MATHLIBS: Intel MKL(2018.0.0) (LAPACK version 3.7.0)
 FFT Lib : mkl
 Fundamental constants values: CODATA 2014

 Run started: Wed, 29 Jul 2020 11:52:23 +0100

 Atomic calculation performed for H: 1s1

 Converged in 41 iterations to an ae energy of -12.488 eV

   ============================================================                
   | Pseudopotential Report - Date of generation 29-07-2020   |                
   ------------------------------------------------------------                
   | Element: H Ionic charge:  1.00 Level of theory: PBE      |                
   | Atomic Solver: Koelling-Harmon                           |                
   |                                                          |                
   |               Reference Electronic Structure             |                
   |         Orbital         Occupation         Energy        |                
   |            1s              1.000           -0.239        |                
   |                                                          |                
   |                 Pseudopotential Definition               |                
   |        Beta     l      e      Rc     scheme   norm       |                
   |         loc     0   -0.239   0.702     qc      1         |                
   |                                                          |                
   | No charge augmentation                                   |                
   | No partial core correction                               |                
   ------------------------------------------------------------                
   | "0|0.7|2|6|8|10L(qc=10)"                                 |                
   ------------------------------------------------------------                
   |      Author: Chris J. Pickard, Cambridge University      |                
   ============================================================                

 Pseudo atomic calculation performed for H 1s1

 Converged in 20 iterations to a total energy of -12.4843 eV

 Calculation parallelised over 15 processes.
 Data is distributed by G-vector(5-way) and k-point(3-way)

 ************************************ Title ************************************
 

 ***************************** General Parameters ******************************
  
 output verbosity                               : normal  (1)
 write checkpoint data to                       : Pbcn.check
 type of calculation                            : geometry optimization
 stress calculation                             : off
 density difference calculation                 : off
 electron localisation func (ELF) calculation   : off
 Hirshfeld analysis                             : off
 unlimited duration calculation
 timing information                             : on
 memory usage estimate                          : on
 write extra output files                       : on
 write final potential to formatted file        : off
 write final density to formatted file          : off
 write structure in CELL formatted file         : on
 write BibTeX reference list                    : on
 write OTFG pseudopotential files               : on
 write electrostatic potential file             : on
 write bands file                               : on
 checkpoint writing                             : both castep_bin and check files
  
 output         length unit                     : A
 output           mass unit                     : amu
 output           time unit                     : ps
 output         charge unit                     : e
 output           spin unit                     : hbar/2
 output         energy unit                     : eV
 output          force unit                     : eV/A
 output       velocity unit                     : A/ps
 output       pressure unit                     : GPa
 output     inv_length unit                     : 1/A
 output      frequency unit                     : cm-1
 output force constant unit                     : eV/A**2
 output         volume unit                     : A**3
 output   IR intensity unit                     : (D/A)**2/amu
 output         dipole unit                     : D
 output         efield unit                     : eV/A/e
 output        entropy unit                     : J/mol/K
  
 wavefunctions paging                           : none
 random number generator seed                   : randomised (115223987)
 data distribution                              : optimal for this architecture
 optimization strategy                          : maximize speed(+++)

 *********************** Exchange-Correlation Parameters ***********************
  
 using functional                               : Perdew Burke Ernzerhof
 relativistic treatment                         : Koelling-Harmon
 DFT+D: Semi-empirical dispersion correction    : off

 ************************* Pseudopotential Parameters **************************
  
 pseudopotential representation                 : reciprocal space
 <beta|phi> representation                      : reciprocal space
 spin-orbit coupling                            : off

 **************************** Basis Set Parameters *****************************
  
 plane wave basis set cut-off                   :  1200.0000   eV
 size of standard grid                          :     2.0000
 size of   fine   gmax                          :    35.4943   1/A
 finite basis set correction                    : automatic
 number of sample energies                      :          3
           sample  spacing                      :     5.0000   eV

 **************************** Electronic Parameters ****************************
  
 number of  electrons                           :  48.00    
 net charge of system                           :  0.000    
 treating system as non-spin-polarized
 number of bands                                :         24

 ********************* Electronic Minimization Parameters **********************
  
 Method: Treating system as non-metallic,
         and number of  SD  steps               :          1
         and number of  CG  steps               :          4
  
 total energy / atom convergence tol.           : 0.1000E-08   eV
 max force / atom convergence tol.              : ignored
 convergence tolerance window                   :          3   cycles
 max. number of SCF cycles                      :        100
 periodic dipole correction                     : NONE

 *********************** Population Analysis Parameters ************************
  
 Population analysis with cutoff                :  3.000       A
 Population analysis output                     : summary and pdos components

 ********************** Geometry Optimization Parameters ***********************
  
 optimization method                            : LBFGS
 max. no. of LBFGS updates                      : unbounded
 variable cell method                           : fixed basis quality
 max. number of steps                           :        100
 estimated bulk modulus                         :  500.0       GPa
 estimated <frequency>                          :  1668.       cm-1
 geom line minimiser                            : on
 with line minimiser tolerance                  :     0.4000
 total energy convergence tolerance             : 0.1000E-08   eV/atom
        max ionic |force| tolerance             : 0.1000E-04   eV/A
 max ionic |displacement| tolerance             : 0.1000E-04   A
   max |stress component| tolerance             : 0.1000E-04   GPa
 convergence tolerance window                   :          2   steps
 backup results every                           :       7000   seconds
 write geom trajectory file                     : on

 *******************************************************************************
  

                           -------------------------------
                                      Unit Cell
                           -------------------------------
        Real Lattice(A)                      Reciprocal Lattice(1/A)
     3.6874949    -0.0000000     0.0000000        1.703917002   0.000000000   0.000000000
    -0.0000000     6.4049389     0.0000000        0.000000000   0.980990668   0.000000000
     0.0000000     0.0000000     6.2966577        0.000000000   0.000000000   0.997860387

                       Lattice parameters(A)       Cell Angles
                    a =      3.687495          alpha =   90.000000
                    b =      6.404939          beta  =   90.000000
                    c =      6.296658          gamma =   90.000000

                       Current cell volume =           148.715594       A**3
                                   density =             0.325326   AMU/A**3
                                           =             0.540217     g/cm^3

                           -------------------------------
                                     Cell Contents
                           -------------------------------
                         Total number of ions in cell =   48
                      Total number of species in cell =    1
                        Max number of any one species =   48

            xxxxxxxxxxxxxxxxxxxxxxxxxxxxxxxxxxxxxxxxxxxxxxxxxxxxxxxxxxxx
            x  Element    Atom        Fractional coordinates of atoms  x
            x            Number           u          v          w      x
            x----------------------------------------------------------x
            x  H            1         0.417930   0.127130   0.028165   x 
            x  H            2         0.564701   0.202207   0.054151   x 
            x  H            3         0.560283   0.545154   0.005426   x 
            x  H            4         0.100463   0.168930   0.242641   x 
            x  H            5         0.295676   0.366889   0.234557   x 
            x  H            6         0.195439   0.464815   0.260489   x 
            x  H            7         0.195439   0.535185   0.760489   x 
            x  H            8         0.295676   0.633111   0.734557   x 
            x  H            9         0.100463   0.831070   0.742641   x 
            x  H           10         0.560283   0.454846   0.505426   x 
            x  H           11         0.564701   0.797793   0.554151   x 
            x  H           12         0.417930   0.872870   0.528165   x 
            x  H           13         0.304561   0.964815   0.260489   x 
            x  H           14         0.204324   0.866889   0.234557   x 
            x  H           15         0.399537   0.668930   0.242641   x 
            x  H           16        -0.060283   0.045154   0.005426   x 
            x  H           17        -0.064701   0.702207   0.054151   x 
            x  H           18         0.082070   0.627130   0.028165   x 
            x  H           19         0.695439   0.964815   0.239511   x 
            x  H           20         0.795676   0.866889   0.265443   x 
            x  H           21         0.600463   0.668930   0.257359   x 
            x  H           22         1.060283   0.045154   0.494574   x 
            x  H           23         1.064701   0.702207   0.445849   x 
            x  H           24         0.917930   0.627130   0.471835   x 
            x  H           25         0.804561   0.535185   0.739511   x 
            x  H           26         0.704324   0.633111   0.765443   x 
            x  H           27         0.899537   0.831070   0.757359   x 
            x  H           28         0.439717   0.454846  -0.005426   x 
            x  H           29         0.435299   0.797793   0.945849   x 
            x  H           30         0.582070   0.872870   0.971835   x 
            x  H           31         0.804561   0.464815   0.239511   x 
            x  H           32         0.704324   0.366889   0.265443   x 
            x  H           33         0.899537   0.168930   0.257359   x 
            x  H           34         0.439717   0.545154   0.494574   x 
            x  H           35         0.435299   0.202207   0.445849   x 
            x  H           36         0.582070   0.127130   0.471835   x 
            x  H           37         0.695439   0.035185   0.739511   x 
            x  H           38         0.795676   0.133111   0.765443   x 
            x  H           39         0.600463   0.331070   0.757359   x 
            x  H           40         0.060283  -0.045154  -0.005426   x 
            x  H           41         1.064701   0.297793   0.945849   x 
            x  H           42         0.917930   0.372870   0.971835   x 
            x  H           43         0.304561   0.035185   0.760489   x 
            x  H           44         0.204324   0.133111   0.734557   x 
            x  H           45         0.399537   0.331070   0.742641   x 
            x  H           46         0.939717  -0.045154   0.505426   x 
            x  H           47        -0.064701   0.297793   0.554151   x 
            x  H           48         0.082070   0.372870   0.528165   x 
            xxxxxxxxxxxxxxxxxxxxxxxxxxxxxxxxxxxxxxxxxxxxxxxxxxxxxxxxxxxx


                         No user defined ionic velocities

                           -------------------------------
                                   Details of Species
                           -------------------------------

                               Mass of species in AMU
                                    H    1.0078250

                          Electric Quadrupole Moment (Barn)
                                    H    0.0028600 Isotope  2

                          Files used for pseudopotentials:
                                    H 0|0.7|2|6|8|10L(qc=10)

                           -------------------------------
                              k-Points For BZ Sampling
                           -------------------------------
                       MP grid size for SCF calculation is  5  5  5
                            with an offset of   0.000  0.000  0.000
                       Number of kpoints used =            27

                           -------------------------------
                               Symmetry and Constraints
                           -------------------------------

                      Maximum deviation from symmetry = 0.195739E-13     ANG

                      Number of symmetry operations   =           8
                      Number of ionic constraints     =           3
                      Point group of crystal =     8: D2h, mmm, 2/m 2/m 2/m
                      Space group of crystal =    60: Pbcn, -P 2n 2ab

             Set iprint > 1 for details on symmetry rotations/translations

                         Centre of mass is constrained
             Set iprint > 1 for details of linear ionic constraints

                         Number of cell constraints= 3
                         Cell constraints are:  1 2 3 0 0 0

                         External pressure/stress (GPa)
                         40.00000   0.00000   0.00000
                                   40.00000   0.00000
                                             40.00000
  
+---------------- MEMORY AND SCRATCH DISK ESTIMATES PER PROCESS --------------+
|                                                     Memory          Disk    |
| Baseline code, static data and system overhead      415.0 MB         0.0 MB |
| BLAS internal memory storage                          0.0 MB         0.0 MB |
| Model and support data                               25.7 MB         0.0 MB |
| Electronic energy minimisation requirements          55.0 MB         0.0 MB |
| Force calculation requirements                        8.0 MB         0.0 MB |
|                                               ----------------------------- |
| Approx. total storage required per process          495.7 MB         0.0 MB |
|                                                                             |
| Requirements will fluctuate during execution and may exceed these estimates |
+-----------------------------------------------------------------------------+
Calculating finite basis set correction with  3 cut-off energies.
Calculating total energy with cut-off of 1190.000 eV.
------------------------------------------------------------------------ <-- SCF
SCF loop      Energy                           Energy gain       Timer   <-- SCF
                                               per atom          (sec)   <-- SCF
------------------------------------------------------------------------ <-- SCF
Initial   1.61910324E+003                                         10.34  <-- SCF
      1  -6.50211914E+002                    4.72773990E+001      34.15  <-- SCF
      2  -7.39427620E+002                    1.85866055E+000      58.09  <-- SCF
      3  -7.41779196E+002                    4.89911648E-002      82.36  <-- SCF
      4  -7.41779542E+002                    7.21140473E-006     177.96  <-- SCF
      5  -7.41779542E+002                    1.83801540E-009     339.87  <-- SCF
      6  -7.41779542E+002                    6.76719843E-013     504.01  <-- SCF
      7  -7.41779542E+002                    4.43090374E-014     726.19  <-- SCF
------------------------------------------------------------------------ <-- SCF
 
Final energy =  -741.7795423238     eV
(energy not corrected for finite basis set)
 
Calculating total energy with cut-off of 1195.000 eV.
------------------------------------------------------------------------ <-- SCF
SCF loop      Energy                           Energy gain       Timer   <-- SCF
                                               per atom          (sec)   <-- SCF
------------------------------------------------------------------------ <-- SCF
Initial  -7.41779542E+002                                        787.28  <-- SCF
      1  -7.41782838E+002                    6.86523687E-005     931.53  <-- SCF
      2  -7.41782838E+002                    5.23652260E-013    1126.91  <-- SCF
      3  -7.41782838E+002                    2.21545187E-014    1366.15  <-- SCF
------------------------------------------------------------------------ <-- SCF
 
Final energy =  -741.7828376375     eV
(energy not corrected for finite basis set)
 
Calculating total energy with cut-off of 1200.000 eV.
------------------------------------------------------------------------ <-- SCF
SCF loop      Energy                           Energy gain       Timer   <-- SCF
                                               per atom          (sec)   <-- SCF
------------------------------------------------------------------------ <-- SCF
Initial  -7.41782838E+002                                       1422.24  <-- SCF
      1  -7.41786118E+002                    6.83369069E-005    1561.59  <-- SCF
      2  -7.41786118E+002                    4.26977996E-013    1797.59  <-- SCF
      3  -7.41786118E+002                    3.02107073E-014    2037.10  <-- SCF
------------------------------------------------------------------------ <-- SCF
 
Final energy =  -741.7861178091     eV
(energy not corrected for finite basis set)
 
 For future reference: finite basis dEtot/dlog(Ecut) =      -0.793608eV
 Total energy corrected for finite basis set =    -741.786194 eV
 
+---------------- MEMORY AND SCRATCH DISK ESTIMATES PER PROCESS --------------+
|                                                     Memory          Disk    |
| Model and support data                               44.0 MB         0.0 MB |
| Electronic energy minimisation requirements          55.0 MB         0.0 MB |
| Geometry minimisation requirements                   65.3 MB         0.0 MB |
|                                               ----------------------------- |
| Approx. total storage required per process          164.4 MB         0.0 MB |
|                                                                             |
| Requirements will fluctuate during execution and may exceed these estimates |
+-----------------------------------------------------------------------------+
 

 ******************************** Symmetrised Forces ********************************
 *                                                                                  *
 *                           Cartesian components (eV/A)                            *
 * -------------------------------------------------------------------------------- *
 *                         x                    y                    z              *
 *                                                                                  *
 * H               1      0.00000             -0.00000             -0.00000         *
 * H               2      0.00000              0.00000              0.00000         *
 * H               3     -0.00000              0.00000             -0.00000         *
 * H               4      0.00000             -0.00000             -0.00000         *
 * H               5     -0.00000             -0.00000              0.00000         *
 * H               6     -0.00000              0.00000              0.00000         *
 * H               7     -0.00000             -0.00000              0.00000         *
 * H               8     -0.00000              0.00000              0.00000         *
 * H               9      0.00000              0.00000             -0.00000         *
 * H              10     -0.00000             -0.00000             -0.00000         *
 * H              11      0.00000             -0.00000              0.00000         *
 * H              12      0.00000              0.00000             -0.00000         *
 * H              13      0.00000              0.00000              0.00000         *
 * H              14      0.00000             -0.00000              0.00000         *
 * H              15     -0.00000             -0.00000             -0.00000         *
 * H              16      0.00000              0.00000             -0.00000         *
 * H              17     -0.00000              0.00000              0.00000         *
 * H              18     -0.00000             -0.00000             -0.00000         *
 * H              19     -0.00000              0.00000             -0.00000         *
 * H              20     -0.00000             -0.00000             -0.00000         *
 * H              21      0.00000             -0.00000              0.00000         *
 * H              22     -0.00000              0.00000              0.00000         *
 * H              23      0.00000              0.00000             -0.00000         *
 * H              24      0.00000             -0.00000              0.00000         *
 * H              25      0.00000             -0.00000             -0.00000         *
 * H              26      0.00000              0.00000             -0.00000         *
 * H              27     -0.00000              0.00000              0.00000         *
 * H              28      0.00000             -0.00000              0.00000         *
 * H              29     -0.00000             -0.00000             -0.00000         *
 * H              30     -0.00000              0.00000              0.00000         *
 * H              31      0.00000              0.00000             -0.00000         *
 * H              32      0.00000             -0.00000             -0.00000         *
 * H              33     -0.00000             -0.00000              0.00000         *
 * H              34      0.00000              0.00000              0.00000         *
 * H              35     -0.00000              0.00000             -0.00000         *
 * H              36     -0.00000             -0.00000              0.00000         *
 * H              37     -0.00000             -0.00000             -0.00000         *
 * H              38     -0.00000              0.00000             -0.00000         *
 * H              39      0.00000              0.00000              0.00000         *
 * H              40     -0.00000             -0.00000              0.00000         *
 * H              41      0.00000             -0.00000             -0.00000         *
 * H              42      0.00000              0.00000              0.00000         *
 * H              43      0.00000             -0.00000              0.00000         *
 * H              44      0.00000              0.00000              0.00000         *
 * H              45     -0.00000              0.00000             -0.00000         *
 * H              46      0.00000             -0.00000             -0.00000         *
 * H              47     -0.00000             -0.00000              0.00000         *
 * H              48     -0.00000              0.00000             -0.00000         *
 *                                                                                  *
 ************************************************************************************

 *********** Symmetrised Stress Tensor ***********
 *                                               *
 *          Cartesian components (GPa)           *
 * --------------------------------------------- *
 *             x             y             z     *
 *                                               *
 *  x    -44.996673      0.000000      0.000000  *
 *  y      0.000000    -44.996670      0.000000  *
 *  z      0.000000      0.000000    -44.996664  *
 *                                               *
 *  Pressure:   44.9967                          *
 *                                               *
 *************************************************
 LBFGS: finished iteration     0 with enthalpy= -7.04657805E+002 eV
  
 +-----------+-----------------+-----------------+------------+-----+ <-- LBFGS
 | Parameter |      value      |    tolerance    |    units   | OK? | <-- LBFGS
 +-----------+-----------------+-----------------+------------+-----+ <-- LBFGS
 |  dE/ion   |   0.000000E+000 |   1.000000E-009 |         eV | No  | <-- LBFGS
 |  |F|max   |   6.465703E-007 |   1.000000E-005 |       eV/A | Yes | <-- LBFGS
 |  |dR|max  |   0.000000E+000 |   1.000000E-005 |          A | No  | <-- LBFGS
 |   Smax    |   4.996673E+000 |   1.000000E-005 |        GPa | No  | <-- LBFGS
 +-----------+-----------------+-----------------+------------+-----+ <-- LBFGS
  

================================================================================
 Starting LBFGS iteration          1 ...
================================================================================
  
 +------------+-------------+-------------+-----------------+ <-- min LBFGS
 |    Step    |   lambda    |   F.delta'  |    enthalpy     | <-- min LBFGS
 +------------+-------------+-------------+-----------------+ <-- min LBFGS
 |  previous  |    0.000000 |    0.295214 |     -704.657805 | <-- min LBFGS
 +------------+-------------+-------------+-----------------+ <-- min LBFGS
  

--------------------------------------------------------------------------------
 LBFGS: starting iteration         1 with trial guess (lambda=  1.000000)
--------------------------------------------------------------------------------
 
+---------------- MEMORY AND SCRATCH DISK ESTIMATES PER PROCESS --------------+
|                                                     Memory          Disk    |
| Model and support data                               44.1 MB         0.0 MB |
| Electronic energy minimisation requirements          55.4 MB         0.0 MB |
| Geometry minimisation requirements                   65.7 MB         0.0 MB |
|                                               ----------------------------- |
| Approx. total storage required per process          165.2 MB         0.0 MB |
|                                                                             |
| Requirements will fluctuate during execution and may exceed these estimates |
+-----------------------------------------------------------------------------+
 

                           -------------------------------
                                      Unit Cell
                           -------------------------------
        Real Lattice(A)              Reciprocal Lattice(1/A)
     3.6997784    -0.0000000     0.0000000        1.698259902   0.000000000   0.000000000
    -0.0000000     6.4262745     0.0000000        0.000000000   0.977733727   0.000000000
     0.0000000     0.0000000     6.3176326        0.000000000   0.000000000   0.994547441

                       Lattice parameters(A)       Cell Angles
                    a =      3.699778          alpha =   90.000000
                    b =      6.426274          beta  =   90.000000
                    c =      6.317633          gamma =   90.000000

                Current cell volume =           150.206715 A**3

                           -------------------------------
                                     Cell Contents
                           -------------------------------

            xxxxxxxxxxxxxxxxxxxxxxxxxxxxxxxxxxxxxxxxxxxxxxxxxxxxxxxxxxxxxxxxx
            x  Element         Atom        Fractional coordinates of atoms  x
            x                 Number           u          v          w      x
            x---------------------------------------------------------------x
            x  H                 1         0.417930   0.127130   0.028165   x
            x  H                 2         0.564701   0.202207   0.054151   x
            x  H                 3         0.560283   0.545154   0.005426   x
            x  H                 4         0.100463   0.168930   0.242641   x
            x  H                 5         0.295676   0.366889   0.234557   x
            x  H                 6         0.195439   0.464815   0.260489   x
            x  H                 7         0.195439   0.535185   0.760489   x
            x  H                 8         0.295676   0.633111   0.734557   x
            x  H                 9         0.100463   0.831070   0.742641   x
            x  H                10         0.560283   0.454846   0.505426   x
            x  H                11         0.564701   0.797793   0.554151   x
            x  H                12         0.417930   0.872870   0.528165   x
            x  H                13         0.304561   0.964815   0.260489   x
            x  H                14         0.204324   0.866889   0.234557   x
            x  H                15         0.399537   0.668930   0.242641   x
            x  H                16        -0.060283   0.045154   0.005426   x
            x  H                17        -0.064701   0.702207   0.054151   x
            x  H                18         0.082070   0.627130   0.028165   x
            x  H                19         0.695439   0.964815   0.239511   x
            x  H                20         0.795676   0.866889   0.265443   x
            x  H                21         0.600463   0.668930   0.257359   x
            x  H                22         1.060283   0.045154   0.494574   x
            x  H                23         1.064701   0.702207   0.445849   x
            x  H                24         0.917930   0.627130   0.471835   x
            x  H                25         0.804561   0.535185   0.739511   x
            x  H                26         0.704324   0.633111   0.765443   x
            x  H                27         0.899537   0.831070   0.757359   x
            x  H                28         0.439717   0.454846  -0.005426   x
            x  H                29         0.435299   0.797793   0.945849   x
            x  H                30         0.582070   0.872870   0.971835   x
            x  H                31         0.804561   0.464815   0.239511   x
            x  H                32         0.704324   0.366889   0.265443   x
            x  H                33         0.899537   0.168930   0.257359   x
            x  H                34         0.439717   0.545154   0.494574   x
            x  H                35         0.435299   0.202207   0.445849   x
            x  H                36         0.582070   0.127130   0.471835   x
            x  H                37         0.695439   0.035185   0.739511   x
            x  H                38         0.795676   0.133111   0.765443   x
            x  H                39         0.600463   0.331070   0.757359   x
            x  H                40         0.060283  -0.045154  -0.005426   x
            x  H                41         1.064701   0.297793   0.945849   x
            x  H                42         0.917930   0.372870   0.971835   x
            x  H                43         0.304561   0.035185   0.760489   x
            x  H                44         0.204324   0.133111   0.734557   x
            x  H                45         0.399537   0.331070   0.742641   x
            x  H                46         0.939717  -0.045154   0.505426   x
            x  H                47        -0.064701   0.297793   0.554151   x
            x  H                48         0.082070   0.372870   0.528165   x
            xxxxxxxxxxxxxxxxxxxxxxxxxxxxxxxxxxxxxxxxxxxxxxxxxxxxxxxxxxxxxxxxx


------------------------------------------------------------------------ <-- SCF
SCF loop      Energy                           Energy gain       Timer   <-- SCF
                                               per atom          (sec)   <-- SCF
------------------------------------------------------------------------ <-- SCF
Initial  -7.42187119E+002                                       2112.37  <-- SCF
      1  -7.42197016E+002                    2.06194427E-004    2265.23  <-- SCF
      2  -7.42197016E+002                    2.22967104E-009    2405.94  <-- SCF
      3  -7.42197016E+002                    4.91427505E-013    2650.32  <-- SCF
      4  -7.42197016E+002                    0.00000000E+000    2951.56  <-- SCF
------------------------------------------------------------------------ <-- SCF
 
Final energy =  -742.1970164994     eV
(energy not corrected for finite basis set)
 

 ******************************** Symmetrised Forces ********************************
 *                                                                                  *
 *                           Cartesian components (eV/A)                            *
 * -------------------------------------------------------------------------------- *
 *                         x                    y                    z              *
 *                                                                                  *
 * H               1      0.05514              0.04924              0.01755         *
 * H               2     -0.05557             -0.04915             -0.01619         *
 * H               3     -0.04672             -0.06082             -0.00704         *
 * H               4     -0.07506             -0.00009              0.00931         *
 * H               5     -0.03744              0.06359              0.01650         *
 * H               6      0.03749             -0.06381             -0.01652         *
 * H               7      0.03749              0.06381             -0.01652         *
 * H               8     -0.03744             -0.06359              0.01650         *
 * H               9     -0.07506              0.00009              0.00931         *
 * H              10     -0.04672              0.06082             -0.00704         *
 * H              11     -0.05557              0.04915             -0.01619         *
 * H              12      0.05514             -0.04924              0.01755         *
 * H              13     -0.03749             -0.06381             -0.01652         *
 * H              14      0.03744              0.06359              0.01650         *
 * H              15      0.07506             -0.00009              0.00931         *
 * H              16      0.04672             -0.06082             -0.00704         *
 * H              17      0.05557             -0.04915             -0.01619         *
 * H              18     -0.05514              0.04924              0.01755         *
 * H              19      0.03749             -0.06381              0.01652         *
 * H              20     -0.03744              0.06359             -0.01650         *
 * H              21     -0.07506             -0.00009             -0.00931         *
 * H              22     -0.04672             -0.06082              0.00704         *
 * H              23     -0.05557             -0.04915              0.01619         *
 * H              24      0.05514              0.04924             -0.01755         *
 * H              25     -0.03749              0.06381              0.01652         *
 * H              26      0.03744             -0.06359             -0.01650         *
 * H              27      0.07506              0.00009             -0.00931         *
 * H              28      0.04672              0.06082              0.00704         *
 * H              29      0.05557              0.04915              0.01619         *
 * H              30     -0.05514             -0.04924             -0.01755         *
 * H              31     -0.03749             -0.06381              0.01652         *
 * H              32      0.03744              0.06359             -0.01650         *
 * H              33      0.07506             -0.00009             -0.00931         *
 * H              34      0.04672             -0.06082              0.00704         *
 * H              35      0.05557             -0.04915              0.01619         *
 * H              36     -0.05514              0.04924             -0.01755         *
 * H              37      0.03749              0.06381              0.01652         *
 * H              38     -0.03744             -0.06359             -0.01650         *
 * H              39     -0.07506              0.00009             -0.00931         *
 * H              40     -0.04672              0.06082              0.00704         *
 * H              41     -0.05557              0.04915              0.01619         *
 * H              42      0.05514             -0.04924             -0.01755         *
 * H              43     -0.03749              0.06381             -0.01652         *
 * H              44      0.03744             -0.06359              0.01650         *
 * H              45      0.07506              0.00009              0.00931         *
 * H              46      0.04672              0.06082             -0.00704         *
 * H              47      0.05557              0.04915             -0.01619         *
 * H              48     -0.05514             -0.04924              0.01755         *
 *                                                                                  *
 ************************************************************************************

 *********** Symmetrised Stress Tensor ***********
 *                                               *
 *          Cartesian components (GPa)           *
 * --------------------------------------------- *
 *             x             y             z     *
 *                                               *
 *  x    -43.084919      0.000000      0.000000  *
 *  y      0.000000    -43.095146      0.000000  *
 *  z      0.000000      0.000000    -43.767664  *
 *                                               *
 *  Pressure:   43.3159                          *
 *                                               *
 *************************************************
  
 +------------+-------------+-------------+-----------------+ <-- min LBFGS
 |    Step    |   lambda    |   F.delta'  |    enthalpy     | <-- min LBFGS
 +------------+-------------+-------------+-----------------+ <-- min LBFGS
 |  previous  |    0.000000 |    0.295214 |     -704.657805 | <-- min LBFGS
 | trial step |    1.000000 |    0.197218 |     -704.696298 | <-- min LBFGS
 +------------+-------------+-------------+-----------------+ <-- min LBFGS
  

--------------------------------------------------------------------------------
 LBFGS: improving iteration         1 with line minimization (lambda=  3.012503)
--------------------------------------------------------------------------------
 
+---------------- MEMORY AND SCRATCH DISK ESTIMATES PER PROCESS --------------+
|                                                     Memory          Disk    |
| Model and support data                               44.3 MB         0.0 MB |
| Electronic energy minimisation requirements          56.3 MB         0.0 MB |
| Geometry minimisation requirements                   66.8 MB         0.0 MB |
|                                               ----------------------------- |
| Approx. total storage required per process          167.5 MB         0.0 MB |
|                                                                             |
| Requirements will fluctuate during execution and may exceed these estimates |
+-----------------------------------------------------------------------------+
 

                           -------------------------------
                                      Unit Cell
                           -------------------------------
        Real Lattice(A)              Reciprocal Lattice(1/A)
     3.7244989    -0.0000000     0.0000000        1.686988086   0.000000000   0.000000000
    -0.0000000     6.4692124     0.0000000        0.000000000   0.971244244   0.000000000
     0.0000000     0.0000000     6.3598445        0.000000000   0.000000000   0.987946368

                       Lattice parameters(A)       Cell Angles
                    a =      3.724499          alpha =   90.000000
                    b =      6.469212          beta  =   90.000000
                    c =      6.359845          gamma =   90.000000

                Current cell volume =           153.237748 A**3

                           -------------------------------
                                     Cell Contents
                           -------------------------------

            xxxxxxxxxxxxxxxxxxxxxxxxxxxxxxxxxxxxxxxxxxxxxxxxxxxxxxxxxxxxxxxxx
            x  Element         Atom        Fractional coordinates of atoms  x
            x                 Number           u          v          w      x
            x---------------------------------------------------------------x
            x  H                 1         0.417930   0.127130   0.028165   x
            x  H                 2         0.564701   0.202207   0.054151   x
            x  H                 3         0.560283   0.545154   0.005426   x
            x  H                 4         0.100463   0.168930   0.242641   x
            x  H                 5         0.295676   0.366889   0.234557   x
            x  H                 6         0.195439   0.464815   0.260489   x
            x  H                 7         0.195439   0.535185   0.760489   x
            x  H                 8         0.295676   0.633111   0.734557   x
            x  H                 9         0.100463   0.831070   0.742641   x
            x  H                10         0.560283   0.454846   0.505426   x
            x  H                11         0.564701   0.797793   0.554151   x
            x  H                12         0.417930   0.872870   0.528165   x
            x  H                13         0.304561   0.964815   0.260489   x
            x  H                14         0.204324   0.866889   0.234557   x
            x  H                15         0.399537   0.668930   0.242641   x
            x  H                16        -0.060283   0.045154   0.005426   x
            x  H                17        -0.064701   0.702207   0.054151   x
            x  H                18         0.082070   0.627130   0.028165   x
            x  H                19         0.695439   0.964815   0.239511   x
            x  H                20         0.795676   0.866889   0.265443   x
            x  H                21         0.600463   0.668930   0.257359   x
            x  H                22         1.060283   0.045154   0.494574   x
            x  H                23         1.064701   0.702207   0.445849   x
            x  H                24         0.917930   0.627130   0.471835   x
            x  H                25         0.804561   0.535185   0.739511   x
            x  H                26         0.704324   0.633111   0.765443   x
            x  H                27         0.899537   0.831070   0.757359   x
            x  H                28         0.439717   0.454846  -0.005426   x
            x  H                29         0.435299   0.797793   0.945849   x
            x  H                30         0.582070   0.872870   0.971835   x
            x  H                31         0.804561   0.464815   0.239511   x
            x  H                32         0.704324   0.366889   0.265443   x
            x  H                33         0.899537   0.168930   0.257359   x
            x  H                34         0.439717   0.545154   0.494574   x
            x  H                35         0.435299   0.202207   0.445849   x
            x  H                36         0.582070   0.127130   0.471835   x
            x  H                37         0.695439   0.035185   0.739511   x
            x  H                38         0.795676   0.133111   0.765443   x
            x  H                39         0.600463   0.331070   0.757359   x
            x  H                40         0.060283  -0.045154  -0.005426   x
            x  H                41         1.064701   0.297793   0.945849   x
            x  H                42         0.917930   0.372870   0.971835   x
            x  H                43         0.304561   0.035185   0.760489   x
            x  H                44         0.204324   0.133111   0.734557   x
            x  H                45         0.399537   0.331070   0.742641   x
            x  H                46         0.939717  -0.045154   0.505426   x
            x  H                47        -0.064701   0.297793   0.554151   x
            x  H                48         0.082070   0.372870   0.528165   x
            xxxxxxxxxxxxxxxxxxxxxxxxxxxxxxxxxxxxxxxxxxxxxxxxxxxxxxxxxxxxxxxxx


------------------------------------------------------------------------ <-- SCF
SCF loop      Energy                           Energy gain       Timer   <-- SCF
                                               per atom          (sec)   <-- SCF
------------------------------------------------------------------------ <-- SCF
Initial  -7.42956446E+002                                       3026.16  <-- SCF
      1  -7.42985085E+002                    5.96647451E-004    3182.34  <-- SCF
      2  -7.42985085E+002                    8.25891051E-009    3336.90  <-- SCF
      3  -7.42985085E+002                    1.13592259E-012    3521.03  <-- SCF
      4  -7.42985085E+002                    9.26461690E-014    3748.25  <-- SCF
------------------------------------------------------------------------ <-- SCF
 
Final energy =  -742.9850852909     eV
(energy not corrected for finite basis set)
 

 ******************************** Symmetrised Forces ********************************
 *                                                                                  *
 *                           Cartesian components (eV/A)                            *
 * -------------------------------------------------------------------------------- *
 *                         x                    y                    z              *
 *                                                                                  *
 * H               1      0.16368              0.14621              0.05210         *
 * H               2     -0.16496             -0.14596             -0.04808         *
 * H               3     -0.13867             -0.18052             -0.02090         *
 * H               4     -0.22279             -0.00026              0.02751         *
 * H               5     -0.11115              0.18878              0.04903         *
 * H               6      0.11125             -0.18942             -0.04908         *
 * H               7      0.11125              0.18942             -0.04908         *
 * H               8     -0.11115             -0.18878              0.04903         *
 * H               9     -0.22279              0.00026              0.02751         *
 * H              10     -0.13867              0.18052             -0.02090         *
 * H              11     -0.16496              0.14596             -0.04808         *
 * H              12      0.16368             -0.14621              0.05210         *
 * H              13     -0.11125             -0.18942             -0.04908         *
 * H              14      0.11115              0.18878              0.04903         *
 * H              15      0.22279             -0.00026              0.02751         *
 * H              16      0.13867             -0.18052             -0.02090         *
 * H              17      0.16496             -0.14596             -0.04808         *
 * H              18     -0.16368              0.14621              0.05210         *
 * H              19      0.11125             -0.18942              0.04908         *
 * H              20     -0.11115              0.18878             -0.04903         *
 * H              21     -0.22279             -0.00026             -0.02751         *
 * H              22     -0.13867             -0.18052              0.02090         *
 * H              23     -0.16496             -0.14596              0.04808         *
 * H              24      0.16368              0.14621             -0.05210         *
 * H              25     -0.11125              0.18942              0.04908         *
 * H              26      0.11115             -0.18878             -0.04903         *
 * H              27      0.22279              0.00026             -0.02751         *
 * H              28      0.13867              0.18052              0.02090         *
 * H              29      0.16496              0.14596              0.04808         *
 * H              30     -0.16368             -0.14621             -0.05210         *
 * H              31     -0.11125             -0.18942              0.04908         *
 * H              32      0.11115              0.18878             -0.04903         *
 * H              33      0.22279             -0.00026             -0.02751         *
 * H              34      0.13867             -0.18052              0.02090         *
 * H              35      0.16496             -0.14596              0.04808         *
 * H              36     -0.16368              0.14621             -0.05210         *
 * H              37      0.11125              0.18942              0.04908         *
 * H              38     -0.11115             -0.18878             -0.04903         *
 * H              39     -0.22279              0.00026             -0.02751         *
 * H              40     -0.13867              0.18052              0.02090         *
 * H              41     -0.16496              0.14596              0.04808         *
 * H              42      0.16368             -0.14621             -0.05210         *
 * H              43     -0.11125              0.18942             -0.04908         *
 * H              44      0.11115             -0.18878              0.04903         *
 * H              45      0.22279              0.00026              0.02751         *
 * H              46      0.13867              0.18052             -0.02090         *
 * H              47      0.16496              0.14596             -0.04808         *
 * H              48     -0.16368             -0.14621              0.05210         *
 *                                                                                  *
 ************************************************************************************

 *********** Symmetrised Stress Tensor ***********
 *                                               *
 *          Cartesian components (GPa)           *
 * --------------------------------------------- *
 *             x             y             z     *
 *                                               *
 *  x    -39.393875     -0.000000      0.000000  *
 *  y     -0.000000    -39.424525      0.000000  *
 *  z      0.000000      0.000000    -41.393875  *
 *                                               *
 *  Pressure:   40.0708                          *
 *                                               *
 *************************************************
  
 +------------+-------------+-------------+-----------------+ <-- min LBFGS
 |    Step    |   lambda    |   F.delta'  |    enthalpy     | <-- min LBFGS
 +------------+-------------+-------------+-----------------+ <-- min LBFGS
 |  previous  |    0.000000 |    0.295214 |     -704.657805 | <-- min LBFGS
 | trial step |    1.000000 |    0.197218 |     -704.696298 | <-- min LBFGS
 |  line step |    3.012503 |    0.004263 |     -704.727620 | <-- min LBFGS
 +------------+-------------+-------------+-----------------+ <-- min LBFGS
  
 LBFGS: finished iteration     1 with enthalpy= -7.04727620E+002 eV
  
 +-----------+-----------------+-----------------+------------+-----+ <-- LBFGS
 | Parameter |      value      |    tolerance    |    units   | OK? | <-- LBFGS
 +-----------+-----------------+-----------------+------------+-----+ <-- LBFGS
 |  dE/ion   |   1.454488E-003 |   1.000000E-009 |         eV | No  | <-- LBFGS
 |  |F|max   |   2.285903E-001 |   1.000000E-005 |       eV/A | No  | <-- LBFGS
 |  |dR|max  |   1.908341E-007 |   1.000000E-005 |          A | Yes | <-- LBFGS
 |   Smax    |   1.393875E+000 |   1.000000E-005 |        GPa | No  | <-- LBFGS
 +-----------+-----------------+-----------------+------------+-----+ <-- LBFGS
  

================================================================================
 Starting LBFGS iteration          2 ...
================================================================================
  
 +------------+-------------+-------------+-----------------+ <-- min LBFGS
 |    Step    |   lambda    |   F.delta'  |    enthalpy     | <-- min LBFGS
 +------------+-------------+-------------+-----------------+ <-- min LBFGS
 |  previous  |    0.000000 |    0.198509 |     -704.727620 | <-- min LBFGS
 +------------+-------------+-------------+-----------------+ <-- min LBFGS
  

--------------------------------------------------------------------------------
 LBFGS: starting iteration         2 with trial guess (lambda=  1.000000)
--------------------------------------------------------------------------------
 
+---------------- MEMORY AND SCRATCH DISK ESTIMATES PER PROCESS --------------+
|                                                     Memory          Disk    |
| Model and support data                               45.4 MB         0.0 MB |
| Electronic energy minimisation requirements          59.3 MB         0.0 MB |
| Geometry minimisation requirements                   70.4 MB         0.0 MB |
|                                               ----------------------------- |
| Approx. total storage required per process          175.0 MB         0.0 MB |
|                                                                             |
| Requirements will fluctuate during execution and may exceed these estimates |
+-----------------------------------------------------------------------------+
 

                           -------------------------------
                                      Unit Cell
                           -------------------------------
        Real Lattice(A)              Reciprocal Lattice(1/A)
     3.7897508    -0.0000000     0.0000000        1.657941547   0.000000000   0.000000000
    -0.0000000     6.5826861     0.0000000        0.000000000   0.954501739   0.000000000
     0.0000000     0.0000000     6.4799569        0.000000000   0.000000000   0.969633812

                       Lattice parameters(A)       Cell Angles
                    a =      3.789751          alpha =   90.000000
                    b =      6.582686          beta  =   90.000000
                    c =      6.479957          gamma =   90.000000

                Current cell volume =           161.653799 A**3

                           -------------------------------
                                     Cell Contents
                           -------------------------------

            xxxxxxxxxxxxxxxxxxxxxxxxxxxxxxxxxxxxxxxxxxxxxxxxxxxxxxxxxxxxxxxxx
            x  Element         Atom        Fractional coordinates of atoms  x
            x                 Number           u          v          w      x
            x---------------------------------------------------------------x
            x  H                 1         0.422342   0.129399   0.028988   x
            x  H                 2         0.560254   0.199942   0.053392   x
            x  H                 3         0.556544   0.542352   0.005096   x
            x  H                 4         0.094457   0.168926   0.243076   x
            x  H                 5         0.292680   0.369819   0.235331   x
            x  H                 6         0.198438   0.461875   0.259714   x
            x  H                 7         0.198438   0.538125   0.759714   x
            x  H                 8         0.292680   0.630181   0.735331   x
            x  H                 9         0.094457   0.831074   0.743076   x
            x  H                10         0.556544   0.457648   0.505096   x
            x  H                11         0.560254   0.800058   0.553392   x
            x  H                12         0.422342   0.870601   0.528988   x
            x  H                13         0.301562   0.961875   0.259714   x
            x  H                14         0.207320   0.869819   0.235331   x
            x  H                15         0.405543   0.668926   0.243076   x
            x  H                16        -0.056544   0.042352   0.005096   x
            x  H                17        -0.060254   0.699942   0.053392   x
            x  H                18         0.077658   0.629399   0.028988   x
            x  H                19         0.698438   0.961875   0.240286   x
            x  H                20         0.792680   0.869819   0.264669   x
            x  H                21         0.594457   0.668926   0.256924   x
            x  H                22         1.056544   0.042352   0.494904   x
            x  H                23         1.060254   0.699942   0.446608   x
            x  H                24         0.922342   0.629399   0.471012   x
            x  H                25         0.801562   0.538125   0.740286   x
            x  H                26         0.707320   0.630181   0.764669   x
            x  H                27         0.905543   0.831074   0.756924   x
            x  H                28         0.443456   0.457648  -0.005096   x
            x  H                29         0.439746   0.800058   0.946608   x
            x  H                30         0.577658   0.870601   0.971012   x
            x  H                31         0.801562   0.461875   0.240286   x
            x  H                32         0.707320   0.369819   0.264669   x
            x  H                33         0.905543   0.168926   0.256924   x
            x  H                34         0.443456   0.542352   0.494904   x
            x  H                35         0.439746   0.199942   0.446608   x
            x  H                36         0.577658   0.129399   0.471012   x
            x  H                37         0.698438   0.038125   0.740286   x
            x  H                38         0.792680   0.130181   0.764669   x
            x  H                39         0.594457   0.331074   0.756924   x
            x  H                40         0.056544  -0.042352  -0.005096   x
            x  H                41         1.060254   0.300058   0.946608   x
            x  H                42         0.922342   0.370601   0.971012   x
            x  H                43         0.301562   0.038125   0.759714   x
            x  H                44         0.207320   0.130181   0.735331   x
            x  H                45         0.405543   0.331074   0.743076   x
            x  H                46         0.943456  -0.042352   0.505096   x
            x  H                47        -0.060254   0.300058   0.553392   x
            x  H                48         0.077658   0.370601   0.528988   x
            xxxxxxxxxxxxxxxxxxxxxxxxxxxxxxxxxxxxxxxxxxxxxxxxxxxxxxxxxxxxxxxxx


------------------------------------------------------------------------ <-- SCF
SCF loop      Energy                           Energy gain       Timer   <-- SCF
                                               per atom          (sec)   <-- SCF
------------------------------------------------------------------------ <-- SCF
Initial  -7.42003354E+002                                       3822.53  <-- SCF
      1  -7.44756186E+002                    5.73506682E-002    3972.05  <-- SCF
      2  -7.44756268E+002                    1.69608870E-006    4139.38  <-- SCF
      3  -7.44756268E+002                    1.42173603E-010    4299.34  <-- SCF
      4  -7.44756268E+002                    8.05618861E-014    4527.34  <-- SCF
------------------------------------------------------------------------ <-- SCF
 
Final energy =  -744.7562678547     eV
(energy not corrected for finite basis set)
 

 ******************************** Symmetrised Forces ********************************
 *                                                                                  *
 *                           Cartesian components (eV/A)                            *
 * -------------------------------------------------------------------------------- *
 *                         x                    y                    z              *
 *                                                                                  *
 * H               1     -0.70741             -0.62853             -0.18414         *
 * H               2      0.71921              0.63890              0.24638         *
 * H               3      0.66049              0.85932              0.10379         *
 * H               4      0.78974             -0.00976             -0.10658         *
 * H               5      0.41072             -0.67217             -0.18159         *
 * H               6     -0.38403              0.67923              0.18913         *
 * H               7     -0.38403             -0.67923              0.18913         *
 * H               8      0.41072              0.67217             -0.18159         *
 * H               9      0.78974              0.00976             -0.10658         *
 * H              10      0.66049             -0.85932              0.10379         *
 * H              11      0.71921             -0.63890              0.24638         *
 * H              12     -0.70741              0.62853             -0.18414         *
 * H              13      0.38403              0.67923              0.18913         *
 * H              14     -0.41072             -0.67217             -0.18159         *
 * H              15     -0.78974             -0.00976             -0.10658         *
 * H              16     -0.66049              0.85932              0.10379         *
 * H              17     -0.71921              0.63890              0.24638         *
 * H              18      0.70741             -0.62853             -0.18414         *
 * H              19     -0.38403              0.67923             -0.18913         *
 * H              20      0.41072             -0.67217              0.18159         *
 * H              21      0.78974             -0.00976              0.10658         *
 * H              22      0.66049              0.85932             -0.10379         *
 * H              23      0.71921              0.63890             -0.24638         *
 * H              24     -0.70741             -0.62853              0.18414         *
 * H              25      0.38403             -0.67923             -0.18913         *
 * H              26     -0.41072              0.67217              0.18159         *
 * H              27     -0.78974              0.00976              0.10658         *
 * H              28     -0.66049             -0.85932             -0.10379         *
 * H              29     -0.71921             -0.63890             -0.24638         *
 * H              30      0.70741              0.62853              0.18414         *
 * H              31      0.38403              0.67923             -0.18913         *
 * H              32     -0.41072             -0.67217              0.18159         *
 * H              33     -0.78974             -0.00976              0.10658         *
 * H              34     -0.66049              0.85932             -0.10379         *
 * H              35     -0.71921              0.63890             -0.24638         *
 * H              36      0.70741             -0.62853              0.18414         *
 * H              37     -0.38403             -0.67923             -0.18913         *
 * H              38      0.41072              0.67217              0.18159         *
 * H              39      0.78974              0.00976              0.10658         *
 * H              40      0.66049             -0.85932             -0.10379         *
 * H              41      0.71921             -0.63890             -0.24638         *
 * H              42     -0.70741              0.62853              0.18414         *
 * H              43      0.38403             -0.67923              0.18913         *
 * H              44     -0.41072              0.67217             -0.18159         *
 * H              45     -0.78974              0.00976             -0.10658         *
 * H              46     -0.66049             -0.85932              0.10379         *
 * H              47     -0.71921             -0.63890              0.24638         *
 * H              48      0.70741              0.62853             -0.18414         *
 *                                                                                  *
 ************************************************************************************

 *********** Symmetrised Stress Tensor ***********
 *                                               *
 *          Cartesian components (GPa)           *
 * --------------------------------------------- *
 *             x             y             z     *
 *                                               *
 *  x    -43.533118     -0.000000      0.000000  *
 *  y     -0.000000    -43.488189      0.000000  *
 *  z      0.000000      0.000000    -35.513937  *
 *                                               *
 *  Pressure:   40.8451                          *
 *                                               *
 *************************************************
  
 +------------+-------------+-------------+-----------------+ <-- min LBFGS
 |    Step    |   lambda    |   F.delta'  |    enthalpy     | <-- min LBFGS
 +------------+-------------+-------------+-----------------+ <-- min LBFGS
 |  previous  |    0.000000 |    0.198509 |     -704.727620 | <-- min LBFGS
 | trial step |    1.000000 |   -0.766458 |     -704.397678 | <-- min LBFGS
 +------------+-------------+-------------+-----------------+ <-- min LBFGS
  

--------------------------------------------------------------------------------
 LBFGS: improving iteration         2 with line minimization (lambda=  0.205716)
--------------------------------------------------------------------------------

                           -------------------------------
                                      Unit Cell
                           -------------------------------
        Real Lattice(A)              Reciprocal Lattice(1/A)
     3.7379223    -0.0000000     0.0000000        1.680929904   0.000000000   0.000000000
    -0.0000000     6.4925557     0.0000000        0.000000000   0.967752235   0.000000000
     0.0000000     0.0000000     6.3845535        0.000000000   0.000000000   0.984122895

                       Lattice parameters(A)       Cell Angles
                    a =      3.737922          alpha =   90.000000
                    b =      6.492556          beta  =   90.000000
                    c =      6.384554          gamma =   90.000000

                Current cell volume =           154.944614 A**3

                           -------------------------------
                                     Cell Contents
                           -------------------------------

            xxxxxxxxxxxxxxxxxxxxxxxxxxxxxxxxxxxxxxxxxxxxxxxxxxxxxxxxxxxxxxxxx
            x  Element         Atom        Fractional coordinates of atoms  x
            x                 Number           u          v          w      x
            x---------------------------------------------------------------x
            x  H                 1         0.418838   0.127597   0.028334   x
            x  H                 2         0.563786   0.201741   0.053995   x
            x  H                 3         0.559514   0.544578   0.005358   x
            x  H                 4         0.099227   0.168929   0.242731   x
            x  H                 5         0.295060   0.367492   0.234717   x
            x  H                 6         0.196056   0.464210   0.260330   x
            x  H                 7         0.196056   0.535790   0.760330   x
            x  H                 8         0.295060   0.632508   0.734717   x
            x  H                 9         0.099227   0.831071   0.742731   x
            x  H                10         0.559514   0.455422   0.505358   x
            x  H                11         0.563786   0.798259   0.553995   x
            x  H                12         0.418838   0.872403   0.528334   x
            x  H                13         0.303944   0.964210   0.260330   x
            x  H                14         0.204940   0.867492   0.234717   x
            x  H                15         0.400773   0.668929   0.242731   x
            x  H                16        -0.059514   0.044578   0.005358   x
            x  H                17        -0.063786   0.701741   0.053995   x
            x  H                18         0.081162   0.627597   0.028334   x
            x  H                19         0.696056   0.964210   0.239670   x
            x  H                20         0.795060   0.867492   0.265283   x
            x  H                21         0.599227   0.668929   0.257269   x
            x  H                22         1.059514   0.044578   0.494642   x
            x  H                23         1.063786   0.701741   0.446005   x
            x  H                24         0.918838   0.627597   0.471666   x
            x  H                25         0.803944   0.535790   0.739670   x
            x  H                26         0.704940   0.632508   0.765283   x
            x  H                27         0.900773   0.831071   0.757269   x
            x  H                28         0.440486   0.455422  -0.005358   x
            x  H                29         0.436214   0.798259   0.946005   x
            x  H                30         0.581162   0.872403   0.971666   x
            x  H                31         0.803944   0.464210   0.239670   x
            x  H                32         0.704940   0.367492   0.265283   x
            x  H                33         0.900773   0.168929   0.257269   x
            x  H                34         0.440486   0.544578   0.494642   x
            x  H                35         0.436214   0.201741   0.446005   x
            x  H                36         0.581162   0.127597   0.471666   x
            x  H                37         0.696056   0.035790   0.739670   x
            x  H                38         0.795060   0.132508   0.765283   x
            x  H                39         0.599227   0.331071   0.757269   x
            x  H                40         0.059514  -0.044578  -0.005358   x
            x  H                41         1.063786   0.298259   0.946005   x
            x  H                42         0.918838   0.372403   0.971666   x
            x  H                43         0.303944   0.035790   0.760330   x
            x  H                44         0.204940   0.132508   0.734717   x
            x  H                45         0.400773   0.331071   0.742731   x
            x  H                46         0.940486  -0.044578   0.505358   x
            x  H                47        -0.063786   0.298259   0.553995   x
            x  H                48         0.081162   0.372403   0.528334   x
            xxxxxxxxxxxxxxxxxxxxxxxxxxxxxxxxxxxxxxxxxxxxxxxxxxxxxxxxxxxxxxxxx


------------------------------------------------------------------------ <-- SCF
SCF loop      Energy                           Energy gain       Timer   <-- SCF
                                               per atom          (sec)   <-- SCF
------------------------------------------------------------------------ <-- SCF
Initial  -7.41622708E+002                                       4605.53  <-- SCF
      1  -7.43439760E+002                    3.78552363E-002    4773.02  <-- SCF
      2  -7.43439810E+002                    1.05565146E-006    4929.84  <-- SCF
      3  -7.43439810E+002                    1.30286696E-010    5080.58  <-- SCF
      4  -7.43439810E+002                    1.63137819E-013    5273.10  <-- SCF
------------------------------------------------------------------------ <-- SCF
 
Final energy =  -743.4398104213     eV
(energy not corrected for finite basis set)
 

 ******************************** Symmetrised Forces ********************************
 *                                                                                  *
 *                           Cartesian components (eV/A)                            *
 * -------------------------------------------------------------------------------- *
 *                         x                    y                    z              *
 *                                                                                  *
 * H               1      0.00467              0.00479              0.01041         *
 * H               2     -0.00301             -0.00222              0.00723         *
 * H               3      0.00700              0.00900              0.00187         *
 * H               4     -0.04269             -0.00263              0.00333         *
 * H               5     -0.01753              0.03580              0.00770         *
 * H               6      0.02402             -0.03454             -0.00599         *
 * H               7      0.02402              0.03454             -0.00599         *
 * H               8     -0.01753             -0.03580              0.00770         *
 * H               9     -0.04269              0.00263              0.00333         *
 * H              10      0.00700             -0.00900              0.00187         *
 * H              11     -0.00301              0.00222              0.00723         *
 * H              12      0.00467             -0.00479              0.01041         *
 * H              13     -0.02402             -0.03454             -0.00599         *
 * H              14      0.01753              0.03580              0.00770         *
 * H              15      0.04269             -0.00263              0.00333         *
 * H              16     -0.00700              0.00900              0.00187         *
 * H              17      0.00301             -0.00222              0.00723         *
 * H              18     -0.00467              0.00479              0.01041         *
 * H              19      0.02402             -0.03454              0.00599         *
 * H              20     -0.01753              0.03580             -0.00770         *
 * H              21     -0.04269             -0.00263             -0.00333         *
 * H              22      0.00700              0.00900             -0.00187         *
 * H              23     -0.00301             -0.00222             -0.00723         *
 * H              24      0.00467              0.00479             -0.01041         *
 * H              25     -0.02402              0.03454              0.00599         *
 * H              26      0.01753             -0.03580             -0.00770         *
 * H              27      0.04269              0.00263             -0.00333         *
 * H              28     -0.00700             -0.00900             -0.00187         *
 * H              29      0.00301              0.00222             -0.00723         *
 * H              30     -0.00467             -0.00479             -0.01041         *
 * H              31     -0.02402             -0.03454              0.00599         *
 * H              32      0.01753              0.03580             -0.00770         *
 * H              33      0.04269             -0.00263             -0.00333         *
 * H              34     -0.00700              0.00900             -0.00187         *
 * H              35      0.00301             -0.00222             -0.00723         *
[...]
              H 16 -- H 27                  -0.09        2.10643
              H 15 -- H 17                  -0.08        2.11292
              H 21 -- H 23                  -0.08        2.11292
              H 45 -- H 47                  -0.08        2.11292
              H 33 -- H 35                  -0.08        2.11292
              H 2  -- H 4                   -0.08        2.11292
              H 39 -- H 41                  -0.08        2.11292
              H 27 -- H 29                  -0.08        2.11292
              H 9  -- H 11                  -0.08        2.11292
              H 24 -- H 46                  -0.05        2.14310
              H 18 -- H 40                  -0.05        2.14310
              H 3  -- H 30                  -0.05        2.14310
              H 12 -- H 34                  -0.05        2.14310
              H 10 -- H 36                  -0.05        2.14310
              H 16 -- H 42                  -0.05        2.14310
              H 1  -- H 28                  -0.05        2.14310
              H 22 -- H 48                  -0.05        2.14310
              H 36 -- H 44                  -0.04        2.18049
              H 8  -- H 24                  -0.04        2.18049
              H 18 -- H 26                  -0.04        2.18049
              H 1  -- H 38                  -0.04        2.18049
              H 14 -- H 30                  -0.04        2.18049
              H 5  -- H 42                  -0.04        2.18049
              H 32 -- H 48                  -0.04        2.18049
              H 12 -- H 20                  -0.04        2.18049
              H 25 -- H 28                  -0.09        2.18696
              H 7  -- H 10                  -0.09        2.18696
              H 13 -- H 16                  -0.09        2.18696
              H 19 -- H 22                  -0.09        2.18696
              H 37 -- H 40                  -0.09        2.18696
              H 31 -- H 34                  -0.09        2.18696
              H 43 -- H 46                  -0.09        2.18696
              H 3  -- H 6                   -0.09        2.18696
              H 36 -- H 43                  -0.04        2.20985
              H 7  -- H 24                  -0.04        2.20985
              H 31 -- H 48                  -0.04        2.20985
              H 6  -- H 42                  -0.04        2.20985
              H 18 -- H 25                  -0.04        2.20985
              H 1  -- H 37                  -0.04        2.20985
              H 13 -- H 30                  -0.04        2.20985
              H 12 -- H 19                  -0.04        2.20985
              H 4  -- H 31                  -0.13        2.21102
              H 9  -- H 25                  -0.13        2.21102
              H 6  -- H 33                  -0.13        2.21102
              H 13 -- H 21                  -0.13        2.21102
              H 7  -- H 27                  -0.13        2.21102
              H 15 -- H 19                  -0.13        2.21102
              H 39 -- H 43                  -0.13        2.21102
              H 37 -- H 45                  -0.13        2.21102
              H 23 -- H 48                  -0.04        2.21460
              H 17 -- H 42                  -0.04        2.21460
              H 11 -- H 36                  -0.04        2.21460
              H 1  -- H 29                  -0.04        2.21460
              H 24 -- H 47                  -0.04        2.21460
              H 18 -- H 41                  -0.04        2.21460
              H 12 -- H 35                  -0.04        2.21460
              H 2  -- H 30                  -0.04        2.21460
              H 6  -- H 35                  -0.03        2.24306
              H 2  -- H 31                  -0.03        2.24306
              H 41 -- H 43                  -0.03        2.24306
              H 37 -- H 47                  -0.03        2.24306
              H 7  -- H 29                  -0.03        2.24306
              H 11 -- H 25                  -0.03        2.24306
              H 13 -- H 23                  -0.03        2.24306
              H 17 -- H 19                  -0.03        2.24306
              H 23 -- H 31                  -0.04        2.25272
              H 6  -- H 17                  -0.04        2.25272
              H 29 -- H 37                  -0.04        2.25272
              H 11 -- H 43                  -0.04        2.25272
              H 25 -- H 41                  -0.04        2.25272
              H 7  -- H 47                  -0.04        2.25272
              H 19 -- H 35                  -0.04        2.25272
              H 2  -- H 13                  -0.04        2.25272
              H 2  -- H 3                   -0.05        2.25509
              H 34 -- H 35                  -0.05        2.25509
              H 46 -- H 47                  -0.05        2.25509
              H 10 -- H 11                  -0.05        2.25509
              H 40 -- H 41                  -0.05        2.25509
              H 28 -- H 29                  -0.05        2.25509
              H 22 -- H 23                  -0.05        2.25509
              H 16 -- H 17                  -0.05        2.25509
              H 24 -- H 27                  -0.04        2.26539
              H 36 -- H 39                  -0.04        2.26539
              H 9  -- H 18                  -0.04        2.26539
              H 1  -- H 45                  -0.04        2.26539
              H 21 -- H 30                  -0.04        2.26539
              H 12 -- H 15                  -0.04        2.26539
              H 33 -- H 42                  -0.04        2.26539
              H 4  -- H 48                  -0.04        2.26539
              H 8  -- H 39                  -0.10        2.26757
              H 9  -- H 38                  -0.10        2.26757
              H 27 -- H 44                  -0.10        2.26757
              H 5  -- H 21                  -0.10        2.26757
              H 26 -- H 45                  -0.10        2.26757
              H 15 -- H 32                  -0.10        2.26757
              H 4  -- H 20                  -0.10        2.26757
              H 14 -- H 33                  -0.10        2.26757
              H 35 -- H 39                  -0.03        2.26793
              H 9  -- H 17                  -0.03        2.26793
              H 23 -- H 27                  -0.03        2.26793
              H 2  -- H 45                  -0.03        2.26793
              H 4  -- H 47                  -0.03        2.26793
              H 33 -- H 41                  -0.03        2.26793
              H 21 -- H 29                  -0.03        2.26793
              H 11 -- H 15                  -0.03        2.26793
              H 15 -- H 30                  -0.04        2.26833
              H 12 -- H 21                  -0.04        2.26833
              H 9  -- H 24                  -0.04        2.26833
              H 4  -- H 42                  -0.04        2.26833
              H 36 -- H 45                  -0.04        2.26833
              H 18 -- H 27                  -0.04        2.26833
              H 33 -- H 48                  -0.04        2.26833
              H 1  -- H 39                  -0.04        2.26833
              H 34 -- H 39                  -0.08        2.27024
              H 3  -- H 45                  -0.08        2.27024
              H 22 -- H 27                  -0.08        2.27024
              H 9  -- H 16                  -0.08        2.27024
              H 21 -- H 28                  -0.08        2.27024
              H 10 -- H 15                  -0.08        2.27024
              H 33 -- H 40                  -0.08        2.27024
              H 4  -- H 46                  -0.08        2.27024
              H 8  -- H 48                  -0.03        2.27617
              H 12 -- H 44                  -0.03        2.27617
              H 26 -- H 42                  -0.03        2.27617
              H 30 -- H 38                  -0.03        2.27617
              H 5  -- H 18                  -0.03        2.27617
              H 24 -- H 32                  -0.03        2.27617
              H 1  -- H 14                  -0.03        2.27617
              H 20 -- H 36                  -0.03        2.27617
              H 42 -- H 45                  -0.08        2.34263
              H 9  -- H 30                  -0.08        2.34263
              H 39 -- H 48                  -0.08        2.34263
              H 12 -- H 27                  -0.08        2.34263
              H 15 -- H 24                  -0.08        2.34263
              H 4  -- H 36                  -0.08        2.34263
              H 18 -- H 21                  -0.08        2.34263
              H 1  -- H 33                  -0.08        2.34263
              H 11 -- H 19                  -0.03        2.35442
              H 13 -- H 29                  -0.03        2.35442
              H 31 -- H 47                  -0.03        2.35442
              H 6  -- H 41                  -0.03        2.35442
              H 17 -- H 25                  -0.03        2.35442
              H 7  -- H 23                  -0.03        2.35442
              H 2  -- H 37                  -0.03        2.35442
              H 35 -- H 43                  -0.03        2.35442
              H 23 -- H 25                  -0.04        2.37091
              H 7  -- H 17                  -0.04        2.37091
              H 31 -- H 41                  -0.04        2.37091
              H 6  -- H 47                  -0.04        2.37091
              H 19 -- H 29                  -0.04        2.37091
              H 11 -- H 13                  -0.04        2.37091
              H 35 -- H 37                  -0.04        2.37091
              H 2  -- H 43                  -0.04        2.37091
              H 18 -- H 20                  -0.03        2.42872
              H 14 -- H 24                  -0.03        2.42872
              H 8  -- H 30                  -0.03        2.42872
              H 12 -- H 26                  -0.03        2.42872
              H 1  -- H 32                  -0.03        2.42872
              H 5  -- H 36                  -0.03        2.42872
              H 42 -- H 44                  -0.03        2.42872
              H 38 -- H 48                  -0.03        2.42872
              H 17 -- H 28                  -0.09        2.48309
              H 11 -- H 22                  -0.09        2.48309
              H 10 -- H 23                  -0.09        2.48309
              H 16 -- H 29                  -0.09        2.48309
              H 34 -- H 47                  -0.09        2.48309
              H 2  -- H 40                  -0.09        2.48309
              H 3  -- H 41                  -0.09        2.48309
              H 35 -- H 46                  -0.09        2.48309
              H 12 -- H 24                  -0.07        2.48313
              H 18 -- H 30                  -0.07        2.48313
              H 1  -- H 42                  -0.07        2.48313
              H 36 -- H 48                  -0.07        2.48313
              H 20 -- H 29                  -0.04        2.50843
              H 11 -- H 14                  -0.04        2.50843
              H 5  -- H 47                  -0.04        2.50843
              H 32 -- H 41                  -0.04        2.50843
              H 8  -- H 17                  -0.04        2.50843
              H 23 -- H 26                  -0.04        2.50843
              H 35 -- H 38                  -0.04        2.50843
              H 2  -- H 44                  -0.04        2.50843
              H 17 -- H 23                  -0.01        2.50860
              H 2  -- H 35                  -0.01        2.50860
              H 41 -- H 47                  -0.01        2.50860
              H 11 -- H 29                  -0.01        2.50860
              H 2  -- H 6                   -0.04        2.55336
              H 31 -- H 35                  -0.04        2.55336
              H 43 -- H 47                  -0.04        2.55336
              H 37 -- H 41                  -0.04        2.55336
              H 13 -- H 17                  -0.04        2.55336
              H 19 -- H 23                  -0.04        2.55336
              H 25 -- H 29                  -0.04        2.55336
              H 7  -- H 11                  -0.04        2.55336
              H 20 -- H 31                  -0.01        2.64307
              H 6  -- H 14                  -0.01        2.64307
              H 26 -- H 37                  -0.01        2.64307
              H 8  -- H 43                  -0.01        2.64307
              H 19 -- H 32                  -0.01        2.64307
              H 5  -- H 13                  -0.01        2.64307
              H 25 -- H 38                  -0.01        2.64307
              H 7  -- H 44                  -0.01        2.64307
              H 8  -- H 42                  -0.03        2.67164
              H 30 -- H 44                  -0.03        2.67164
              H 26 -- H 48                  -0.03        2.67164
              H 18 -- H 32                  -0.03        2.67164
              H 5  -- H 24                  -0.03        2.67164
              H 12 -- H 38                  -0.03        2.67164
              H 14 -- H 36                  -0.03        2.67164
              H 1  -- H 20                  -0.03        2.67164
              H 12 -- H 29                  -0.00        2.68281
              H 11 -- H 30                  -0.00        2.68281
              H 42 -- H 47                  -0.00        2.68281
              H 41 -- H 48                  -0.00        2.68281
              H 18 -- H 23                  -0.00        2.68281
              H 1  -- H 35                  -0.00        2.68281
              H 17 -- H 24                  -0.00        2.68281
              H 2  -- H 36                  -0.00        2.68281
              H 5  -- H 23                  -0.02        2.69258
              H 17 -- H 32                  -0.02        2.69258
              H 29 -- H 44                  -0.02        2.69258
              H 11 -- H 38                  -0.02        2.69258
              H 2  -- H 20                  -0.02        2.69258
              H 14 -- H 35                  -0.02        2.69258
              H 8  -- H 41                  -0.02        2.69258
              H 26 -- H 47                  -0.02        2.69258
              H 15 -- H 40                  -0.00        2.75892
              H 21 -- H 46                  -0.00        2.75892
              H 10 -- H 33                  -0.00        2.75892
              H 3  -- H 27                  -0.00        2.75892
              H 22 -- H 45                  -0.00        2.75892
              H 9  -- H 34                  -0.00        2.75892
              H 4  -- H 28                  -0.00        2.75892
              H 16 -- H 39                  -0.00        2.75892
              H 23 -- H 47                  -0.03        2.76368
              H 17 -- H 41                  -0.03        2.76368
              H 11 -- H 35                  -0.03        2.76368
              H 2  -- H 29                  -0.03        2.76368
              H 28 -- H 30                  -0.03        2.76378
              H 10 -- H 12                  -0.03        2.76378
              H 34 -- H 36                  -0.03        2.76378
              H 1  -- H 3                   -0.03        2.76378
              H 22 -- H 24                  -0.03        2.76378
              H 16 -- H 18                  -0.03        2.76378
              H 40 -- H 42                  -0.03        2.76378
              H 46 -- H 48                  -0.03        2.76378
              H 1  -- H 6                   -0.02        2.77067
              H 7  -- H 12                  -0.02        2.77067
              H 31 -- H 36                  -0.02        2.77067
              H 13 -- H 18                  -0.02        2.77067
              H 25 -- H 30                  -0.02        2.77067
              H 19 -- H 24                  -0.02        2.77067
              H 43 -- H 48                  -0.02        2.77067
              H 37 -- H 42                  -0.02        2.77067
              H 29 -- H 38                  -0.02        2.78578
              H 5  -- H 17                  -0.02        2.78578
              H 11 -- H 44                  -0.02        2.78578
              H 23 -- H 32                  -0.02        2.78578
              H 8  -- H 47                  -0.02        2.78578
              H 26 -- H 41                  -0.02        2.78578
              H 20 -- H 35                  -0.02        2.78578
              H 2  -- H 14                  -0.02        2.78578
              H 3  -- H 20                  -0.00        2.82604
              H 14 -- H 34                  -0.00        2.82604
              H 16 -- H 32                  -0.00        2.82604
              H 26 -- H 46                  -0.00        2.82604
              H 5  -- H 22                  -0.00        2.82604
              H 8  -- H 40                  -0.00        2.82604
              H 10 -- H 38                  -0.00        2.82604
              H 28 -- H 44                  -0.00        2.82604
              H 26 -- H 40                  -0.00        2.87464
              H 8  -- H 46                  -0.00        2.87464
              H 20 -- H 34                  -0.00        2.87464
              H 3  -- H 14                  -0.00        2.87464
              H 22 -- H 32                  -0.00        2.87464
              H 5  -- H 16                  -0.00        2.87464
              H 28 -- H 38                  -0.00        2.87464
              H 10 -- H 44                  -0.00        2.87464
              H 42 -- H 48                  -0.00        2.87929
              H 12 -- H 30                  -0.00        2.87929
              H 18 -- H 24                  -0.00        2.87929
              H 1  -- H 36                  -0.00        2.87929
              H 18 -- H 45                  -0.00        2.92731
              H 24 -- H 39                  -0.00        2.92731
              H 27 -- H 36                  -0.00        2.92731
              H 1  -- H 9                   -0.00        2.92731
              H 15 -- H 48                  -0.00        2.92731
              H 21 -- H 42                  -0.00        2.92731
              H 4  -- H 12                  -0.00        2.92731
              H 30 -- H 33                  -0.00        2.92731
              H 6  -- H 36                  -0.02        2.93097
              H 7  -- H 30                  -0.02        2.93097
              H 1  -- H 31                  -0.02        2.93097
              H 12 -- H 25                  -0.02        2.93097
              H 13 -- H 24                  -0.02        2.93097
              H 18 -- H 19                  -0.02        2.93097
              H 42 -- H 43                  -0.02        2.93097
              H 37 -- H 48                  -0.02        2.93097
======================================================================


Writing analysis data to Pbcn.castep_bin

Writing model to Pbcn.check
 
 A BibTeX formatted list of references used in this run has been written to 
 Pbcn.bib
 
Initialisation time =      3.23 s
Calculation time    =  12981.55 s
Finalisation time   =      2.50 s
Total time          =  12987.28 s
Peak Memory Use     = 571664 kB
  
Overall parallel efficiency rating: Terrible (29%)                              
  
Data was distributed by:-
G-vector (5-way); efficiency rating: Terrible (34%)                             
k-point (3-way); efficiency rating: Satisfactory (68%)                          
