 +-------------------------------------------------+
 |                                                 |
 |      CCC   AA    SSS  TTTTT  EEEEE  PPPP        |
 |     C     A  A  S       T    E      P   P       |
 |     C     AAAA   SS     T    EEE    PPPP        |
 |     C     A  A     S    T    E      P           |
 |      CCC  A  A  SSS     T    EEEEE  P           |
 |                                                 |
 +-------------------------------------------------+
 |                                                 |
 | Welcome to Academic Release CASTEP version 18.1 |          
 | Ab Initio Total Energy Program                  |
 |                                                 |
 | Authors:                                        |
 | M. Segall, M. Probert, C. Pickard, P. Hasnip,   |
 | S. Clark, K. Refson, J. R. Yates, M. Payne      |
 |                                                 |
 | Contributors:                                   |
 | P. Lindan, P. Haynes, J. White, V. Milman,      |
 | N. Govind, M. Gibson, P. Tulip, V. Cocula,      |
 | B. Montanari, D. Quigley, M. Glover,            |
 | L. Bernasconi, A. Perlov, M. Plummer,           |
 | E. McNellis, J. Meyer, J. Gale, D. Jochym       |
 | J. Aarons, B. Walker, R. Gillen, D. Jones       |
 | T. Green, I. J. Bush, C. J. Armstrong,          |
 | E. J. Higgins, E. L. Brown, M. S. McFly,        |
 | J. Wilkins, B-C. Shih, P. J. P. Byrne           |
 |                                                 |
 | Copyright (c) 2000 - 2017                       |
 |                                                 |
 |     Distributed under the terms of an           |
 |     Agreement between the United Kingdom        |
 |     Car-Parrinello (UKCP) Consortium,           |
 |     Daresbury Laboratory and Accelrys, Inc.     |
 |                                                 |
 | Please cite                                     |
 |                                                 |
 |     "First principles methods using CASTEP"     |
 |                                                 |
 |         Zeitschrift fuer Kristallographie       |
 |           220(5-6) pp. 567-570 (2005)           |
 |                                                 |
 | S. J. Clark, M. D. Segall, C. J. Pickard,       |
 | P. J. Hasnip, M. J. Probert, K. Refson,         |
 | M. C. Payne                                     |
 |                                                 |
 |       in all publications arising from          |
 |              your use of CASTEP                 |
 |                                                 |
 +-------------------------------------------------+


 Compiled for linux_x86_64_gfortran4.8 on Thu, 19 Jul 2018 15:42:32 +0100
 from code version 70483bd0ad64+  Sun, 10 Dec 2017 12:18:29 +0000
 Compiler: GNU Fortran 4.8.5; Optimisation: fast
 MATHLIBS: Intel MKL(2018.0.0) (LAPACK version 3.7.0)
 FFT Lib : mkl
 Fundamental constants values: CODATA 2014

 Run started: Sat, 01 Aug 2020 15:33:55 +0100

 Atomic calculation performed for H: 1s1

 Converged in 41 iterations to an ae energy of -12.488 eV

   ============================================================                
   | Pseudopotential Report - Date of generation  1-08-2020   |                
   ------------------------------------------------------------                
   | Element: H Ionic charge:  1.00 Level of theory: PBE      |                
   | Atomic Solver: Koelling-Harmon                           |                
   |                                                          |                
   |               Reference Electronic Structure             |                
   |         Orbital         Occupation         Energy        |                
   |            1s              1.000           -0.239        |                
   |                                                          |                
   |                 Pseudopotential Definition               |                
   |        Beta     l      e      Rc     scheme   norm       |                
   |         loc     0   -0.239   0.702     qc      1         |                
   |                                                          |                
   | No charge augmentation                                   |                
   | No partial core correction                               |                
   ------------------------------------------------------------                
   | "0|0.7|2|6|8|10L(qc=10)"                                 |                
   ------------------------------------------------------------                
   |      Author: Chris J. Pickard, Cambridge University      |                
   ============================================================                

 Pseudo atomic calculation performed for H 1s1

 Converged in 24 iterations to a total energy of -12.4843 eV

 Calculation parallelised over 4 processes.
 Data is distributed by k-point(4-way)

 ************************************ Title ************************************
 

 ***************************** General Parameters ******************************
  
 output verbosity                               : normal  (1)
 write checkpoint data to                       : ./Cmca-12.check
 type of calculation                            : single point energy
 stress calculation                             : on
 density difference calculation                 : off
 electron localisation func (ELF) calculation   : off
 Hirshfeld analysis                             : off
 unlimited duration calculation
 timing information                             : on
 memory usage estimate                          : on
 write extra output files                       : on
 write final potential to formatted file        : off
 write final density to formatted file          : off
 write structure in CELL formatted file         : on
 write BibTeX reference list                    : on
 write OTFG pseudopotential files               : on
 write electrostatic potential file             : on
 write bands file                               : on
 checkpoint writing                             : both castep_bin and check files
  
 output         length unit                     : A
 output           mass unit                     : amu
 output           time unit                     : ps
 output         charge unit                     : e
 output           spin unit                     : hbar/2
 output         energy unit                     : eV
 output          force unit                     : eV/A
 output       velocity unit                     : A/ps
 output       pressure unit                     : GPa
 output     inv_length unit                     : 1/A
 output      frequency unit                     : cm-1
 output force constant unit                     : eV/A**2
 output         volume unit                     : A**3
 output   IR intensity unit                     : (D/A)**2/amu
 output         dipole unit                     : D
 output         efield unit                     : eV/A/e
 output        entropy unit                     : J/mol/K
  
 wavefunctions paging                           : none
 random number generator seed                   : randomised (153355133)
 data distribution                              : optimal for this architecture
 optimization strategy                          : maximize speed(+++)

 *********************** Exchange-Correlation Parameters ***********************
  
 using functional                               : Perdew Burke Ernzerhof
 relativistic treatment                         : Koelling-Harmon
 DFT+D: Semi-empirical dispersion correction    : off

 ************************* Pseudopotential Parameters **************************
  
 pseudopotential representation                 : reciprocal space
 <beta|phi> representation                      : reciprocal space
 spin-orbit coupling                            : off

 **************************** Basis Set Parameters *****************************
  
 plane wave basis set cut-off                   :  1200.0000   eV
 size of standard grid                          :     2.0000
 size of   fine   gmax                          :    35.4943   1/A
 finite basis set correction                    : automatic
 number of sample energies                      :          3
           sample  spacing                      :     5.0000   eV

 **************************** Electronic Parameters ****************************
  
 number of  electrons                           :  24.00    
 net charge of system                           :  0.000    
 treating system as non-spin-polarized
 number of bands                                :         12

 ********************* Electronic Minimization Parameters **********************
  
 Method: Treating system as non-metallic,
         and number of  SD  steps               :          1
         and number of  CG  steps               :          4
  
 total energy / atom convergence tol.           : 0.1000E-10   eV
 eigen-energy convergence tolerance             : 0.2000E-10   eV
 max force / atom convergence tol.              : ignored
 convergence tolerance window                   :          3   cycles
 max. number of SCF cycles                      :        100
 periodic dipole correction                     : NONE

 ************************** Density Mixing Parameters **************************
  
 density-mixing scheme                          : Broyden
 max. length of mixing history                  :         20
 charge density mixing amplitude                : 0.8000    
 cut-off energy for mixing                      :  1200.       eV

 *********************** Population Analysis Parameters ************************
  
 Population analysis with cutoff                :  3.000       A
 Population analysis output                     : summary and pdos components

 *******************************************************************************
  

                           -------------------------------
                                      Unit Cell
                           -------------------------------
        Real Lattice(A)                      Reciprocal Lattice(1/A)
     3.3383023     0.0000000     0.0000000        1.882149883  -0.000000000   0.000000000
     0.0000000     6.2556158     0.0000000       -0.000000000   1.004407161   0.000000000
     0.0000000     0.0000000     3.2492607        0.000000000   0.000000000   1.933727674

                       Lattice parameters(A)       Cell Angles
                    a =      3.338302          alpha =   90.000000
                    b =      6.255616          beta  =   90.000000
                    c =      3.249261          gamma =   90.000000

                       Current cell volume =            67.854755       A**3
                                   density =             0.356505   AMU/A**3
                                           =             0.591990     g/cm^3

                           -------------------------------
                                     Cell Contents
                           -------------------------------
                         Total number of ions in cell =   24
                      Total number of species in cell =    1
                        Max number of any one species =   24

            xxxxxxxxxxxxxxxxxxxxxxxxxxxxxxxxxxxxxxxxxxxxxxxxxxxxxxxxxxxx
            x  Element    Atom        Fractional coordinates of atoms  x
            x            Number           u          v          w      x
            x----------------------------------------------------------x
            x  H            1        -0.000000   0.000000   0.117322   x 
            x  H            2        -0.000000   0.166667   0.382678   x 
            x  H            3         0.000000   0.333333   0.117322   x 
            x  H            4         0.500000   0.333333   0.382678   x 
            x  H            5         0.500000   0.166667   0.117322   x 
            x  H            6         0.500000   0.000000   0.382678   x 
            x  H            7         0.500000   0.166667   0.882678   x 
            x  H            8         0.500000   0.333333   0.617322   x 
            x  H            9         0.500000   0.500000   0.882678   x 
            x  H           10         0.500000   0.666667   0.617322   x 
            x  H           11         0.500000   0.833333   0.882678   x 
            x  H           12         0.500000   1.000000   0.617322   x 
            x  H           13         0.500000   0.833333   0.117322   x 
            x  H           14         0.500000   0.666667   0.382678   x 
            x  H           15         0.500000   0.500000   0.117322   x 
            x  H           16        -0.000000   0.833333   0.382678   x 
            x  H           17        -0.000000   0.666667   0.117322   x 
            x  H           18         0.000000   0.500000   0.382678   x 
            x  H           19        -0.000000   0.666667   0.882678   x 
            x  H           20         0.000000   0.833333   0.617322   x 
            x  H           21        -0.000000   1.000000   0.882678   x 
            x  H           22         0.000000   0.166667   0.617322   x 
            x  H           23         0.000000   0.333333   0.882678   x 
            x  H           24        -0.000000   0.500000   0.617322   x 
            xxxxxxxxxxxxxxxxxxxxxxxxxxxxxxxxxxxxxxxxxxxxxxxxxxxxxxxxxxxx


                         No user defined ionic velocities

                           -------------------------------
                                   Details of Species
                           -------------------------------

                               Mass of species in AMU
                                    H    1.0078250

                          Electric Quadrupole Moment (Barn)
                                    H    0.0028600 Isotope  2

                          Files used for pseudopotentials:
                                    H 0|0.7|2|6|8|10L(qc=10)

                           -------------------------------
                              k-Points For BZ Sampling
                           -------------------------------
                       MP grid size for SCF calculation is 13  8  8
                            with an offset of   0.000  0.000  0.000
                       Number of kpoints used =           112

                           -------------------------------
                               Symmetry and Constraints
                           -------------------------------

                      Cell is a supercell containing 12 primitive cells
                      Maximum deviation from symmetry = 0.125012E-13     ANG

                      Number of symmetry operations   =          16
                      Number of ionic constraints     =           3
                      Point group of crystal =     8: D2h, mmm, 2/m 2/m 2/m
                      Space group of crystal =    69: Fmmm, -F 2 2

             Set iprint > 1 for details on symmetry rotations/translations

                         Centre of mass is constrained
             Set iprint > 1 for details of linear ionic constraints

                         Number of cell constraints= 3
                         Cell constraints are:  1 2 3 0 0 0

                         External pressure/stress (GPa)
                         50.00000   0.00000   0.00000
                                   50.00000   0.00000
                                             50.00000
  
+---------------- MEMORY AND SCRATCH DISK ESTIMATES PER PROCESS --------------+
|                                                     Memory          Disk    |
| Baseline code, static data and system overhead      376.0 MB         0.0 MB |
| BLAS internal memory storage                          0.0 MB         0.0 MB |
| Model and support data                               99.7 MB         0.0 MB |
| Electronic energy minimisation requirements          95.3 MB         0.0 MB |
| Force calculation requirements                       13.2 MB         0.0 MB |
| Stress calculation requirements                      16.7 MB         0.0 MB |
|                                               ----------------------------- |
| Approx. total storage required per process          571.0 MB         0.0 MB |
|                                                                             |
| Requirements will fluctuate during execution and may exceed these estimates |
+-----------------------------------------------------------------------------+
Calculating finite basis set correction with  3 cut-off energies.
Calculating total energy with cut-off of 1190.000 eV.
------------------------------------------------------------------------ <-- SCF
SCF loop      Energy                           Energy gain       Timer   <-- SCF
                                               per atom          (sec)   <-- SCF
------------------------------------------------------------------------ <-- SCF
Initial   6.15792511E+002                                          5.25  <-- SCF
      1  -2.97384699E+002                    3.80490504E+001      19.75  <-- SCF
      2  -3.68484536E+002                    2.96249322E+000      29.59  <-- SCF
      3  -3.69931888E+002                    6.03063234E-002      38.37  <-- SCF
      4  -3.68135858E+002                   -7.48345870E-002      52.41  <-- SCF
      5  -3.68079667E+002                   -2.34129290E-003      66.23  <-- SCF
      6  -3.68082524E+002                    1.19057292E-004      80.08  <-- SCF
      7  -3.68082945E+002                    1.75396200E-005      93.89  <-- SCF
      8  -3.68082956E+002                    4.56200507E-007     107.77  <-- SCF
      9  -3.68082957E+002                    6.65001332E-008     121.64  <-- SCF
     10  -3.68082958E+002                    6.46360097E-009     134.96  <-- SCF
     11  -3.68082958E+002                    7.85978276E-009     144.71  <-- SCF
     12  -3.68082958E+002                    8.11916384E-009     154.35  <-- SCF
     13  -3.68082958E+002                    1.43503901E-008     164.01  <-- SCF
     14  -3.68082959E+002                    1.60598791E-008     173.70  <-- SCF
     15  -3.68082961E+002                    8.14395736E-008     183.30  <-- SCF
     16  -3.68082964E+002                    1.25352635E-007     192.93  <-- SCF
     17  -3.68083000E+002                    1.51184680E-006     206.89  <-- SCF
     18  -3.68083023E+002                    9.60984380E-007     220.78  <-- SCF
     19  -3.68083021E+002                   -9.52013343E-008     234.34  <-- SCF
     20  -3.68083021E+002                   -5.64144476E-009     248.17  <-- SCF
     21  -3.68083021E+002                    8.13400938E-009     262.08  <-- SCF
     22  -3.68083022E+002                    5.17910010E-008     273.29  <-- SCF
     23  -3.68083023E+002                    2.62567460E-008     282.91  <-- SCF
     24  -3.68083023E+002                    1.23139850E-009     296.58  <-- SCF
     25  -3.68083023E+002                    3.11439765E-009     306.06  <-- SCF
     26  -3.68083023E+002                    2.82718244E-009     315.66  <-- SCF
     27  -3.68083023E+002                    4.48217131E-009     325.30  <-- SCF
     28  -3.68083023E+002                    3.83861678E-009     334.96  <-- SCF
     29  -3.68083023E+002                    4.86779286E-009     344.60  <-- SCF
     30  -3.68083023E+002                    3.50171100E-009     357.18  <-- SCF
     31  -3.68083023E+002                    3.90713063E-010     366.79  <-- SCF
     32  -3.68083023E+002                    9.70891571E-010     376.41  <-- SCF
     33  -3.68083023E+002                    8.95453420E-010     386.09  <-- SCF
     34  -3.68083023E+002                    1.28237403E-009     395.78  <-- SCF
     35  -3.68083023E+002                    1.14475218E-009     405.39  <-- SCF
     36  -3.68083023E+002                    1.61062948E-009     415.00  <-- SCF
     37  -3.68083023E+002                    1.23015583E-009     424.70  <-- SCF
     38  -3.68083023E+002                    1.73447727E-010     434.31  <-- SCF
     39  -3.68083023E+002                    1.39599650E-010     443.96  <-- SCF
     40  -3.68083023E+002                    1.36874645E-010     453.61  <-- SCF
     41  -3.68083023E+002                    1.34975398E-010     463.25  <-- SCF
     42  -3.68083023E+002                    1.32111423E-010     472.86  <-- SCF
     43  -3.68083023E+002                    1.26961504E-010     482.46  <-- SCF
     44  -3.68083023E+002                    1.23654439E-010     492.08  <-- SCF
     45  -3.68083023E+002                    1.22530601E-010     501.70  <-- SCF
     46  -3.68083023E+002                    1.20635382E-010     511.30  <-- SCF
     47  -3.68083023E+002                    1.19209437E-010     520.82  <-- SCF
     48  -3.68083023E+002                    1.17418949E-010     530.37  <-- SCF
     49  -3.68083023E+002                    1.14494553E-010     539.81  <-- SCF
     50  -3.68083023E+002                    1.12309311E-010     549.26  <-- SCF
     51  -3.68083023E+002                    1.11274091E-010     558.94  <-- SCF
     52  -3.68083024E+002                    1.07944871E-010     568.64  <-- SCF
     53  -3.68083024E+002                    1.06218833E-010     577.96  <-- SCF
     54  -3.68083024E+002                    1.04561272E-010     587.25  <-- SCF
     55  -3.68083024E+002                    1.03316591E-010     596.55  <-- SCF
     56  -3.68083024E+002                    1.00619782E-010     605.85  <-- SCF
     57  -3.68083024E+002                    9.90669514E-011     615.14  <-- SCF
     58  -3.68083024E+002                    9.66319684E-011     624.45  <-- SCF
     59  -3.68083024E+002                    9.52785287E-011     633.76  <-- SCF
     60  -3.68083024E+002                    9.26179724E-011     643.07  <-- SCF
     61  -3.68083024E+002                    9.24024693E-011     652.35  <-- SCF
     62  -3.68083024E+002                    9.00802730E-011     661.60  <-- SCF
     63  -3.68083024E+002                    8.96170421E-011     670.85  <-- SCF
     64  -3.68083024E+002                    8.73713795E-011     680.10  <-- SCF
     65  -3.68083024E+002                    8.51659979E-011     689.31  <-- SCF
     66  -3.68083024E+002                    8.43241262E-011     698.52  <-- SCF
     67  -3.68083024E+002                    8.28740123E-011     707.69  <-- SCF
     68  -3.68083024E+002                    8.03987483E-011     716.87  <-- SCF
     69  -3.68083024E+002                    8.08579511E-011     726.05  <-- SCF
     70  -3.68083024E+002                    7.96555649E-011     735.24  <-- SCF
     71  -3.68083024E+002                    7.67734634E-011     744.41  <-- SCF
     72  -3.68083024E+002                    7.52669562E-011     753.59  <-- SCF
     73  -3.68083024E+002                    7.37705191E-011     762.77  <-- SCF
     74  -3.68083024E+002                    7.32549231E-011     771.95  <-- SCF
     75  -3.68083024E+002                    7.14644351E-011     781.13  <-- SCF
     76  -3.68083024E+002                    7.15349268E-011     790.31  <-- SCF
     77  -3.68083024E+002                    6.78129676E-011     799.50  <-- SCF
     78  -3.68083024E+002                    6.62037440E-011     808.68  <-- SCF
     79  -3.68083024E+002                    6.46911946E-011     817.86  <-- SCF
     80  -3.68083024E+002                    6.43548487E-011     827.04  <-- SCF
     81  -3.68083024E+002                    6.51725518E-011     836.21  <-- SCF
     82  -3.68083024E+002                    6.22783661E-011     845.39  <-- SCF
     83  -3.68083024E+002                    6.13317639E-011     854.57  <-- SCF
     84  -3.68083024E+002                    6.02542487E-011     863.75  <-- SCF
     85  -3.68083024E+002                    5.93036184E-011     872.93  <-- SCF
     86  -3.68083024E+002                    5.89491461E-011     882.11  <-- SCF
     87  -3.68083024E+002                    5.56461088E-011     891.28  <-- SCF
     88  -3.68083024E+002                    5.64899945E-011     900.46  <-- SCF
     89  -3.68083024E+002                    5.42161353E-011     909.65  <-- SCF
     90  -3.68083024E+002                    5.39381968E-011     918.83  <-- SCF
     91  -3.68083024E+002                    5.36864409E-011     928.01  <-- SCF
     92  -3.68083024E+002                    5.16643376E-011     937.19  <-- SCF
     93  -3.68083024E+002                    5.03592350E-011     946.36  <-- SCF
     94  -3.68083024E+002                    4.87278568E-011     955.54  <-- SCF
     95  -3.68083024E+002                    4.83149772E-011     964.72  <-- SCF
     96  -3.68083024E+002                    4.74731054E-011     973.90  <-- SCF
     97  -3.68083024E+002                    4.64882364E-011     983.08  <-- SCF
     98  -3.68083024E+002                    4.55053814E-011     992.26  <-- SCF
     99  -3.68083024E+002                    4.46030883E-011    1001.44  <-- SCF
    100  -3.68083024E+002                    4.42405598E-011    1010.62  <-- SCF
------------------------------------------------------------------------ <-- SCF
 *Warning* max. SCF cycles performed but system has not reached the groundstate.
  
Current total energy =  -368.0830235823     eV
(energy not corrected for finite basis set)
 
  ********************************************************
  Warning: electronic minimisation did not converge during
           finite basis set correction.
  ********************************************************
 Checkpoint file cannot be written.
