 +-------------------------------------------------+
 |                                                 |
 |      CCC   AA    SSS  TTTTT  EEEEE  PPPP        |
 |     C     A  A  S       T    E      P   P       |
 |     C     AAAA   SS     T    EEE    PPPP        |
 |     C     A  A     S    T    E      P           |
 |      CCC  A  A  SSS     T    EEEEE  P           |
 |                                                 |
 +-------------------------------------------------+
 |                                                 |
 | Welcome to Academic Release CASTEP version 18.1 |          
 | Ab Initio Total Energy Program                  |
 |                                                 |
 | Authors:                                        |
 | M. Segall, M. Probert, C. Pickard, P. Hasnip,   |
 | S. Clark, K. Refson, J. R. Yates, M. Payne      |
 |                                                 |
 | Contributors:                                   |
 | P. Lindan, P. Haynes, J. White, V. Milman,      |
 | N. Govind, M. Gibson, P. Tulip, V. Cocula,      |
 | B. Montanari, D. Quigley, M. Glover,            |
 | L. Bernasconi, A. Perlov, M. Plummer,           |
 | E. McNellis, J. Meyer, J. Gale, D. Jochym       |
 | J. Aarons, B. Walker, R. Gillen, D. Jones       |
 | T. Green, I. J. Bush, C. J. Armstrong,          |
 | E. J. Higgins, E. L. Brown, M. S. McFly,        |
 | J. Wilkins, B-C. Shih, P. J. P. Byrne           |
 |                                                 |
 | Copyright (c) 2000 - 2017                       |
 |                                                 |
 |     Distributed under the terms of an           |
 |     Agreement between the United Kingdom        |
 |     Car-Parrinello (UKCP) Consortium,           |
 |     Daresbury Laboratory and Accelrys, Inc.     |
 |                                                 |
 | Please cite                                     |
 |                                                 |
 |     "First principles methods using CASTEP"     |
 |                                                 |
 |         Zeitschrift fuer Kristallographie       |
 |           220(5-6) pp. 567-570 (2005)           |
 |                                                 |
 | S. J. Clark, M. D. Segall, C. J. Pickard,       |
 | P. J. Hasnip, M. J. Probert, K. Refson,         |
 | M. C. Payne                                     |
 |                                                 |
 |       in all publications arising from          |
 |              your use of CASTEP                 |
 |                                                 |
 +-------------------------------------------------+


 Compiled for linux_x86_64_gfortran4.8 on Thu, 19 Jul 2018 15:42:32 +0100
 from code version 70483bd0ad64+  Sun, 10 Dec 2017 12:18:29 +0000
 Compiler: GNU Fortran 4.8.5; Optimisation: fast
 MATHLIBS: Intel MKL(2018.0.0) (LAPACK version 3.7.0)
 FFT Lib : mkl
 Fundamental constants values: CODATA 2014

 Run started: Sat, 01 Aug 2020 18:40:58 +0100
 +-------------------------------------------------+
 |                                                 |
 |  D D D D    F F F F F  P P P P     T T T T T    |
 |  D       D  F          P       P       T        |
 |  D       D  F F F F    P P P P         T        |
 |  D       D  F          P               T        |
 |  D D D D    F          P               T        |
 |                                                 |
 +-------------------------------------------------+
 |                                                 |
 | Welcome to Castep Linear Response (DFPT)        |
 |                                                 |
 | Copyright (c) 2006 - 2017                       |
 |                                                 |
 | Please cite the following publications in all   |
 | work arising from your use of CASTEP LR.        |
 |                                                 |
 | K. Refson, S. J. Clark and P. R. Tulip          |
 | Variational density functional perturbation     |
 | theory for dielectrics and lattice dynamics     |
 | Phys. Rev. B 73(15), 155114 (2006)              |
 +-------------------------------------------------+


 Atomic calculation performed for H: 1s1

 Converged in 41 iterations to an ae energy of -12.488 eV

   ============================================================                
   | Pseudopotential Report - Date of generation  1-08-2020   |                
   ------------------------------------------------------------                
   | Element: H Ionic charge:  1.00 Level of theory: PBE      |                
   | Atomic Solver: Koelling-Harmon                           |                
   |                                                          |                
   |               Reference Electronic Structure             |                
   |         Orbital         Occupation         Energy        |                
   |            1s              1.000           -0.239        |                
   |                                                          |                
   |                 Pseudopotential Definition               |                
   |        Beta     l      e      Rc     scheme   norm       |                
   |         loc     0   -0.239   0.702     qc      1         |                
   |                                                          |                
   | No charge augmentation                                   |                
   | No partial core correction                               |                
   ------------------------------------------------------------                
   | "0|0.7|2|6|8|10L(qc=10)"                                 |                
   ------------------------------------------------------------                
   |      Author: Chris J. Pickard, Cambridge University      |                
   ============================================================                

 Pseudo atomic calculation performed for H 1s1

 Converged in 24 iterations to a total energy of -12.4843 eV

 Calculation parallelised over 16 processes.
 Data is distributed by k-point(16-way)

 ************************************ Title ************************************
 

 ***************************** General Parameters ******************************
  
 output verbosity                               : normal  (1)
 write checkpoint data to                       : P21c.check
 type of calculation                            : phonon calculation
 stress calculation                             : on
 density difference calculation                 : off
 electron localisation func (ELF) calculation   : off
 Hirshfeld analysis                             : off
 unlimited duration calculation
 timing information                             : on
 memory usage estimate                          : on
 write extra output files                       : on
 write final potential to formatted file        : off
 write final density to formatted file          : off
 write structure in CELL formatted file         : on
 write BibTeX reference list                    : on
 write OTFG pseudopotential files               : on
 write electrostatic potential file             : on
 write bands file                               : on
 checkpoint writing                             : both castep_bin and check files
  
 output         length unit                     : A
 output           mass unit                     : amu
 output           time unit                     : ps
 output         charge unit                     : e
 output           spin unit                     : hbar/2
 output         energy unit                     : eV
 output          force unit                     : eV/A
 output       velocity unit                     : A/ps
 output       pressure unit                     : GPa
 output     inv_length unit                     : 1/A
 output      frequency unit                     : cm-1
 output force constant unit                     : eV/A**2
 output         volume unit                     : A**3
 output   IR intensity unit                     : (D/A)**2/amu
 output         dipole unit                     : D
 output         efield unit                     : eV/A/e
 output        entropy unit                     : J/mol/K
  
 wavefunctions paging                           : none
 random number generator seed                   : randomised (184058236)
 data distribution                              : optimal for this architecture
 optimization strategy                          : maximize speed(+++)

 *********************** Exchange-Correlation Parameters ***********************
  
 using functional                               : Perdew Burke Ernzerhof
 relativistic treatment                         : Koelling-Harmon
 DFT+D: Semi-empirical dispersion correction    : off

 ************************* Pseudopotential Parameters **************************
  
 pseudopotential representation                 : reciprocal space
 <beta|phi> representation                      : reciprocal space
 spin-orbit coupling                            : off

 **************************** Basis Set Parameters *****************************
  
 plane wave basis set cut-off                   :  1200.0000   eV
 size of standard grid                          :     2.0000
 size of   fine   gmax                          :    35.4943   1/A
 finite basis set correction                    : automatic
 number of sample energies                      :          3
           sample  spacing                      :     5.0000   eV

 **************************** Electronic Parameters ****************************
  
 number of  electrons                           :  24.00    
 net charge of system                           :  0.000    
 treating system as non-spin-polarized
 number of bands                                :         12

 ********************* Electronic Minimization Parameters **********************
  
 Method: Treating system as non-metallic,
         and number of  SD  steps               :          1
         and number of  CG  steps               :          4
  
 total energy / atom convergence tol.           : 0.1000E-10   eV
 eigen-energy convergence tolerance             : 0.2000E-10   eV
 max force / atom convergence tol.              : ignored
 convergence tolerance window                   :          3   cycles
 max. number of SCF cycles                      :        100
 periodic dipole correction                     : NONE

 ************************** Density Mixing Parameters **************************
  
 density-mixing scheme                          : Broyden
 max. length of mixing history                  :         20
 charge density mixing amplitude                : 0.8000    
 cut-off energy for mixing                      :  1200.       eV

 *********************** Population Analysis Parameters ************************
  
 Population analysis with cutoff                :  3.000       A
 Population analysis output                     : summary and pdos components

 ****************************** Phonon Parameters ******************************
  
 phonon calculation method                      : linear response
 phonon convergence tolerance                   : 0.1000E-04   eV/A**2
 max. number of phonon cycles                   :         50
 max. number of phonon CG steps                 :          0
 convergence tolerance window                   :          2   cycles
 DFPT solver method                             : AllBands (Gonze variational method)
 preconditioning scheme                         : TPA     
 fine phonon calculation method                 : interpolation
 non-periodic force constant method             : Weighted cumulant sum
 LO/TO splitting term                           : included
 acoustic phonon sum rule                       : correct D(q) in recip-space
 Born effective charges                         : calculated
 Born charge sum rule                           : explicitly enforced
 Raman intensities                              : calculated
 Raman frequency window start                   :  0.000       eV
 Raman frequency window stop                    :  1.000       eV
 Raman tensor calculated using                  : finite displacement method
 phonon k-points                                : use reduced set
 phonon DOS                                     : not calculated
 backups results every                          :      14400   seconds
 band convergence tolerance                     : 0.1000E-08   eV

 *******************************************************************************
  

                           -------------------------------
                                      Unit Cell
                           -------------------------------
        Real Lattice(A)                      Reciprocal Lattice(1/A)
    10.5122746     0.0000000     0.0020160        0.597486516   0.000000000   1.112606308
     0.0000000     2.1840724     0.0000000        0.000000000   2.876820999   0.000000000
    -7.0096357     0.0000000     3.7642810       -0.000319988   0.000000000   1.668563605

                       Lattice parameters(A)       Cell Angles
                    a =     10.512275          alpha =   90.000000
                    b =      2.184072          beta  =  151.752537
                    c =      7.956432          gamma =   90.000000

                       Current cell volume =            86.457132       A**3
                                   density =             0.279798   AMU/A**3
                                           =             0.464616     g/cm^3

                           -------------------------------
                                     Cell Contents
                           -------------------------------
                         Total number of ions in cell =   24
                      Total number of species in cell =    1
                        Max number of any one species =   24

            xxxxxxxxxxxxxxxxxxxxxxxxxxxxxxxxxxxxxxxxxxxxxxxxxxxxxxxxxxxx
            x  Element    Atom        Fractional coordinates of atoms  x
            x            Number           u          v          w      x
            x----------------------------------------------------------x
            x  H            1         0.839268   0.638257   0.109455   x 
            x  H            2         0.160732   0.361743   0.890545   x 
            x  H            3         0.839268   0.861743   0.609455   x 
            x  H            4         0.160732   0.138257   0.390545   x 
            x  H            5         0.880081   0.407765   0.220013   x 
            x  H            6         0.119919   0.592235   0.779987   x 
            x  H            7         0.880081   0.092235   0.720013   x 
            x  H            8         0.119919   0.907765   0.279987   x 
            x  H            9         0.856813   0.109824   0.412142   x 
            x  H           10         0.143187   0.890176   0.587858   x 
            x  H           11         0.856813   0.390176   0.912142   x 
            x  H           12         0.143187   0.609824   0.087858   x 
            x  H           13         0.752625   0.911651   0.252703   x 
            x  H           14         0.247375   0.088349   0.747297   x 
            x  H           15         0.752625   0.588349   0.752703   x 
            x  H           16         0.247375   0.411651   0.247297   x 
            x  H           17         0.571456   0.399251   0.191593   x 
            x  H           18         0.428544   0.600749   0.808407   x 
            x  H           19         0.571456   0.100749   0.691593   x 
            x  H           20         0.428544   0.899251   0.308407   x 
            x  H           21         0.482558   0.590933   0.140836   x 
            x  H           22         0.517442   0.409067   0.859164   x 
            x  H           23         0.482558   0.909067   0.640836   x 
            x  H           24         0.517442   0.090933   0.359164   x 
            xxxxxxxxxxxxxxxxxxxxxxxxxxxxxxxxxxxxxxxxxxxxxxxxxxxxxxxxxxxx


                         No user defined ionic velocities

                           -------------------------------
                                   Details of Species
                           -------------------------------

                               Mass of species in AMU
                                    H    1.0079400

                          Electric Quadrupole Moment (Barn)
                                    H    0.0028600 Isotope  2

                          Files used for pseudopotentials:
                                    H 0|0.7|2|6|8|10L(qc=10)

                           -------------------------------
                              k-Points For BZ Sampling
                           -------------------------------
                       MP grid size for SCF calculation is  8  8  8
                            with an offset of   0.000  0.000  0.000
                       Number of kpoints used =           128

                           -------------------------------
                               Symmetry and Constraints
                           -------------------------------

                      Maximum deviation from symmetry = 0.188697E-13     ANG

                      Number of symmetry operations   =           4
                      Number of ionic constraints     =           3
                      Point group of crystal =     5: C2h, 2/m, 2/m
                      Space group of crystal =    14: P2_1/c, -P 2ybc

             Set iprint > 1 for details on symmetry rotations/translations

                         Centre of mass is constrained
             Set iprint > 1 for details of linear ionic constraints

                         Number of cell constraints= 2
                         Cell constraints are:  1 2 3 0 5 0

                         External pressure/stress (GPa)
                         30.00000   0.00000   0.00000
                                   30.00000   0.00000
                                             30.00000
  
+---------------- MEMORY AND SCRATCH DISK ESTIMATES PER PROCESS --------------+
|                                                     Memory          Disk    |
| Baseline code, static data and system overhead      412.0 MB         0.0 MB |
| BLAS internal memory storage                          0.0 MB         0.0 MB |
| Model and support data                               82.8 MB         0.0 MB |
| Electronic energy minimisation requirements          71.4 MB         0.0 MB |
| Force calculation requirements                       30.9 MB         0.0 MB |
| Stress calculation requirements                      39.1 MB         0.0 MB |
|                                               ----------------------------- |
| Approx. total storage required per process          566.2 MB         0.0 MB |
|                                                                             |
| Requirements will fluctuate during execution and may exceed these estimates |
+-----------------------------------------------------------------------------+
Calculating finite basis set correction with  3 cut-off energies.
Calculating total energy with cut-off of 1190.000 eV.
------------------------------------------------------------------------ <-- SCF
SCF loop      Energy                           Energy gain       Timer   <-- SCF
                                               per atom          (sec)   <-- SCF
------------------------------------------------------------------------ <-- SCF
Initial   6.39802817E+002                                          8.58  <-- SCF
      1  -2.93653187E+002                    3.88940002E+001      19.74  <-- SCF
      2  -3.75618008E+002                    3.41520087E+000      26.77  <-- SCF
      3  -3.77144993E+002                    6.36243665E-002      32.88  <-- SCF
      4  -3.74198394E+002                   -1.22774967E-001      43.83  <-- SCF
      5  -3.74117267E+002                   -3.38027319E-003      54.76  <-- SCF
      6  -3.74123197E+002                    2.47047136E-004      65.87  <-- SCF
      7  -3.74123931E+002                    3.05989873E-005      76.86  <-- SCF
      8  -3.74123934E+002                    1.21500109E-007      87.79  <-- SCF
      9  -3.74123934E+002                    1.41380511E-008      98.81  <-- SCF
     10  -3.74123934E+002                   -1.54759383E-011     107.65  <-- SCF
     11  -3.74123934E+002                    9.15585836E-012     115.59  <-- SCF
     12  -3.74123934E+002                    9.96953341E-013     123.58  <-- SCF
     13  -3.74123934E+002                   -9.06321219E-014     131.55  <-- SCF
------------------------------------------------------------------------ <-- SCF
 
Final energy =  -374.1239342212     eV
(energy not corrected for finite basis set)
 
Calculating total energy with cut-off of 1195.000 eV.
------------------------------------------------------------------------ <-- SCF
SCF loop      Energy                           Energy gain       Timer   <-- SCF
                                               per atom          (sec)   <-- SCF
------------------------------------------------------------------------ <-- SCF
Initial  -3.74123934E+002                                        136.31  <-- SCF
      1  -3.74125569E+002                    6.81037874E-005     144.81  <-- SCF
      2  -3.74125569E+002                    7.36053673E-011     155.74  <-- SCF
      3  -3.74125570E+002                    3.67987522E-008     166.71  <-- SCF
      4  -3.74125570E+002                    2.45102892E-009     177.65  <-- SCF
      5  -3.74125570E+002                    5.71203913E-011     185.70  <-- SCF
      6  -3.74125570E+002                   -2.94050884E-012     193.80  <-- SCF
      7  -3.74125570E+002                    5.25666307E-012     201.84  <-- SCF
------------------------------------------------------------------------ <-- SCF
 
Final energy =  -374.1255696573     eV
(energy not corrected for finite basis set)
 
Calculating total energy with cut-off of 1200.000 eV.
------------------------------------------------------------------------ <-- SCF
SCF loop      Energy                           Energy gain       Timer   <-- SCF
                                               per atom          (sec)   <-- SCF
------------------------------------------------------------------------ <-- SCF
Initial  -3.74125570E+002                                        206.60  <-- SCF
      1  -3.74127140E+002                    6.54105643E-005     215.14  <-- SCF
      2  -3.74127140E+002                    6.94926830E-011     226.08  <-- SCF
      3  -3.74127140E+002                    3.48865756E-008     237.03  <-- SCF
      4  -3.74127140E+002                    2.29813455E-009     248.04  <-- SCF
      5  -3.74127140E+002                    5.36280335E-011     256.06  <-- SCF
      6  -3.74127140E+002                   -2.62631749E-012     264.33  <-- SCF
      7  -3.74127140E+002                    5.43792731E-012     272.36  <-- SCF
------------------------------------------------------------------------ <-- SCF
 
Final energy =  -374.1271404062     eV
(energy not corrected for finite basis set)
 
 For future reference: finite basis dEtot/dlog(Ecut) =      -0.383875eV
 Total energy corrected for finite basis set =    -374.127141 eV

 Efield perturbation    1:  X                                           293.03s
  +---------------- MEMORY AND SCRATCH DISK ESTIMATES PER PROCESS --------------+
  |                                                     Memory          Disk    |
  | Baseline code, static data and system overhead      412.0 MB         0.0 MB |
  | BLAS internal memory storage                          0.0 MB         0.0 MB |
  | Model and support data                               83.0 MB         0.0 MB |
  | DFPT E-field response requirements                  109.7 MB         0.0 MB |
  |                                               ----------------------------- |
  | Approx. total storage required per process          604.8 MB         0.0 MB |
  |                                                                             |
  | Requirements will fluctuate during execution and may exceed these estimates |
  +-----------------------------------------------------------------------------+

 Efield perturbation    2:  Y                                           591.26s

 Efield perturbation    3:  Z                                           743.79s
 Perturbation    1 (of   18): H     1 X at q=( 0.000, 0.000, 0.000):    897.59s
  Parallel strategy changed for perturbation using 256 k-points
  Data is distributed by G-vector(1-way) and k-point(16-way) and band(1-way)
  +---------------- MEMORY AND SCRATCH DISK ESTIMATES PER PROCESS --------------+
  |                                                     Memory          Disk    |
  | Baseline code, static data and system overhead      412.0 MB         0.0 MB |
  | BLAS internal memory storage                          0.0 MB         0.0 MB |
  | Model and support data                               83.0 MB         0.0 MB |
  | DFPT phonon calculation requirements                266.2 MB         0.0 MB |
  |                                               ----------------------------- |
  | Approx. total storage required per process          761.3 MB         0.0 MB |
  |                                                                             |
  | Requirements will fluctuate during execution and may exceed these estimates |
  +-----------------------------------------------------------------------------+
 Perturbation    2 (of   18): H     5 X at q=( 0.000, 0.000, 0.000):   1273.98s
 Perturbation    3 (of   18): H     9 X at q=( 0.000, 0.000, 0.000):   1621.15s
 Perturbation    4 (of   18): H    13 X at q=( 0.000, 0.000, 0.000):   1967.86s
 Perturbation    5 (of   18): H    17 X at q=( 0.000, 0.000, 0.000):   2313.70s
 Perturbation    6 (of   18): H    21 X at q=( 0.000, 0.000, 0.000):   2687.70s
 Perturbation    7 (of   18): H     1 Y at q=( 0.000, 0.000, 0.000):   3062.99s
 Perturbation    8 (of   18): H     5 Y at q=( 0.000, 0.000, 0.000):   3411.42s
 Perturbation    9 (of   18): H     9 Y at q=( 0.000, 0.000, 0.000):   3756.91s
 Perturbation   10 (of   18): H    13 Y at q=( 0.000, 0.000, 0.000):   4102.29s
 Perturbation   11 (of   18): H    17 Y at q=( 0.000, 0.000, 0.000):   4447.85s
 Perturbation   12 (of   18): H    21 Y at q=( 0.000, 0.000, 0.000):   4793.09s
 Perturbation   13 (of   18): H     1 Z at q=( 0.000, 0.000, 0.000):   5136.85s
 Perturbation   14 (of   18): H     5 Z at q=( 0.000, 0.000, 0.000):   5481.85s
 Perturbation   15 (of   18): H     9 Z at q=( 0.000, 0.000, 0.000):   5854.22s
 Perturbation   16 (of   18): H    13 Z at q=( 0.000, 0.000, 0.000):   6225.20s
 Perturbation   17 (of   18): H    17 Z at q=( 0.000, 0.000, 0.000):   6596.84s
 Perturbation   18 (of   18): H    21 Z at q=( 0.000, 0.000, 0.000):   6939.09s

 Phonon calculation: q-point   1 (of    1) ( 0.000, 0.000, 0.000):     7281.77s
 -------------------------------------------------------------------------------
 
 ==============================================================================
 +                           Vibrational Frequencies                          +
 +                           -----------------------                          +
 +                                                                            +
 + Performing frequency calculation at  1 wavevector  (q-pt )                 +
 + ========================================================================== +
 +                                                                            +
 +============================================================================+
 +                       Raman Intensity Progress Report                      +
 +----------------------------------------------------------------------------+
 + RAMAN: Not a continuation; generating Raman intensities from beginning     +
 +----------------------------------------------------------------------------+
 + Mode     1: not Raman active; calculation not required                     +
 + Mode     2: not Raman active; calculation not required                     +
 + Mode     3: not Raman active; calculation not required                     +
 + Mode     4: performing Raman intensity calculation                         +

 Efield perturbation    1:  X                                          7424.90s

 Efield perturbation    2:  Y                                          7722.67s

 Efield perturbation    3:  Z                                          7873.64s

 Efield perturbation    1:  X                                          8158.63s

 Efield perturbation    2:  Y                                          8455.05s

 Efield perturbation    3:  Z                                          8606.93s
 + Mode number:   4 completed;                   time taken:  1471.29 seconds +
 + Mode     5: not Raman active; calculation not required                     +
 + Mode     6: not Raman active; calculation not required                     +
 + Mode     7: performing Raman intensity calculation                         +

 Efield perturbation    1:  X                                          9009.33s

 Efield perturbation    2:  Y                                          9588.07s

 Efield perturbation    3:  Z                                          9869.12s

 Efield perturbation    1:  X                                         10368.07s

 Efield perturbation    2:  Y                                         10936.45s

 Efield perturbation    3:  Z                                         11216.55s
 + Mode number:   7 completed;                   time taken:  2739.68 seconds +
 + Mode     8: performing Raman intensity calculation                         +

 Efield perturbation    1:  X                                         11636.90s

 Efield perturbation    2:  Y                                         11934.37s

 Efield perturbation    3:  Z                                         12084.90s

 Efield perturbation    1:  X                                         12361.80s

 Efield perturbation    2:  Y                                         12656.82s

 Efield perturbation    3:  Z                                         12807.36s
 + Mode number:   8 completed;                   time taken:  1461.29 seconds +
 + Mode     9: performing Raman intensity calculation                         +

 Efield perturbation    1:  X                                         13213.55s

 Efield perturbation    2:  Y                                         13789.65s

 Efield perturbation    3:  Z                                         14070.88s

 Efield perturbation    1:  X                                         14583.40s

 Efield perturbation    2:  Y                                         15153.64s

 Efield perturbation    3:  Z                                         15435.44s
 + Mode number:   9 completed;                   time taken:  2758.05 seconds +
 + Mode    10: not Raman active; calculation not required                     +
 + Mode    11: performing Raman intensity calculation                         +

 Efield perturbation    1:  X                                         15855.91s

 Efield perturbation    2:  Y                                         16155.86s

 Efield perturbation    3:  Z                                         16307.71s

 Efield perturbation    1:  X                                         16586.96s

 Efield perturbation    2:  Y                                         16886.09s

 Efield perturbation    3:  Z                                         17037.19s
 + Mode number:  11 completed;                   time taken:  1471.69 seconds +
 + Mode    12: not Raman active; calculation not required                     +
 + Mode    13: not Raman active; calculation not required                     +
 + Mode    14: performing Raman intensity calculation                         +

 Efield perturbation    1:  X                                         17328.45s

 Efield perturbation    2:  Y                                         17628.19s

 Efield perturbation    3:  Z                                         17780.92s

 Efield perturbation    1:  X                                         18063.32s

 Efield perturbation    2:  Y                                         18364.48s

 Efield perturbation    3:  Z                                         18518.02s
 + Mode number:  14 completed;                   time taken:  1484.03 seconds +
 + Mode    15: not Raman active; calculation not required                     +
 + Mode    16: performing Raman intensity calculation                         +

 Efield perturbation    1:  X                                         18929.42s

 Efield perturbation    2:  Y                                         19506.56s

 Efield perturbation    3:  Z                                         19791.64s

 Efield perturbation    1:  X                                         20308.64s

 Efield perturbation    2:  Y                                         20885.99s

 Efield perturbation    3:  Z                                         21170.36s
 + Mode number:  16 completed;                   time taken:  2783.34 seconds +
 + Mode    17: not Raman active; calculation not required                     +
 + Mode    18: performing Raman intensity calculation                         +

 Efield perturbation    1:  X                                         21713.50s

 Efield perturbation    2:  Y                                         22291.25s

 Efield perturbation    3:  Z                                         22575.08s

 Efield perturbation    1:  X                                         23093.84s

 Efield perturbation    2:  Y                                         23671.41s

 Efield perturbation    3:  Z                                         23954.82s
 + Mode number:  18 completed;                   time taken:  2783.65 seconds +
 + Checkpointing.....                                                         +

Writing analysis data to P21c.castep_bin

Writing model to P21c.check
 + Mode    19: performing Raman intensity calculation                         +

 Efield perturbation    1:  X                                         24500.30s

 Efield perturbation    2:  Y                                         25079.76s

 Efield perturbation    3:  Z                                         25363.80s

 Efield perturbation    1:  X                                         25884.86s

 Efield perturbation    2:  Y                                         26464.06s

 Efield perturbation    3:  Z                                         26748.31s
 + Mode number:  19 completed;                   time taken:  2791.22 seconds +
 + Mode    20: not Raman active; calculation not required                     +
 + Mode    21: not Raman active; calculation not required                     +
 + Mode    22: performing Raman intensity calculation                         +

 Efield perturbation    1:  X                                         27174.67s

 Efield perturbation    2:  Y                                         27475.20s

 Efield perturbation    3:  Z                                         27628.97s

 Efield perturbation    1:  X                                         27911.58s

 Efield perturbation    2:  Y                                         28212.90s

 Efield perturbation    3:  Z                                         28366.27s
 + Mode number:  22 completed;                   time taken:  1486.76 seconds +
 + Mode    23: performing Raman intensity calculation                         +

 Efield perturbation    1:  X                                         28777.04s

 Efield perturbation    2:  Y                                         29354.79s

 Efield perturbation    3:  Z                                         29638.01s

 Efield perturbation    1:  X                                         30155.88s

 Efield perturbation    2:  Y                                         30734.47s

 Efield perturbation    3:  Z                                         31018.93s
 + Mode number:  23 completed;                   time taken:  2784.03 seconds +
 + Mode    24: not Raman active; calculation not required                     +
 + Mode    25: not Raman active; calculation not required                     +
 + Mode    26: performing Raman intensity calculation                         +

 Efield perturbation    1:  X                                         31444.95s

 Efield perturbation    2:  Y                                         31745.87s

 Efield perturbation    3:  Z                                         31899.35s

 Efield perturbation    1:  X                                         32180.25s

 Efield perturbation    2:  Y                                         32480.73s

 Efield perturbation    3:  Z                                         32633.82s
 + Mode number:  26 completed;                   time taken:  1483.88 seconds +
 + Mode    27: not Raman active; calculation not required                     +
 + Mode    28: not Raman active; calculation not required                     +
 + Mode    29: performing Raman intensity calculation                         +

 Efield perturbation    1:  X                                         32928.18s

 Efield perturbation    2:  Y                                         33227.86s

 Efield perturbation    3:  Z                                         33380.33s

 Efield perturbation    1:  X                                         33661.59s

 Efield perturbation    2:  Y                                         33960.99s

 Efield perturbation    3:  Z                                         34114.93s
 + Mode number:  29 completed;                   time taken:  1482.31 seconds +
 + Mode    30: performing Raman intensity calculation                         +

 Efield perturbation    1:  X                                         34527.78s

 Efield perturbation    2:  Y                                         35105.25s

 Efield perturbation    3:  Z                                         35389.62s

 Efield perturbation    1:  X                                         35908.45s

 Efield perturbation    2:  Y                                         36487.72s

 Efield perturbation    3:  Z                                         36772.07s
 + Mode number:  30 completed;                   time taken:  2787.06 seconds +
 + Mode    31: not Raman active; calculation not required                     +
 + Mode    32: not Raman active; calculation not required                     +
 + Mode    33: not Raman active; calculation not required                     +
 + Mode    34: performing Raman intensity calculation                         +

 Efield perturbation    1:  X                                         37198.26s

 Efield perturbation    2:  Y                                         37500.14s

 Efield perturbation    3:  Z                                         37654.31s

 Efield perturbation    1:  X                                         37937.00s

 Efield perturbation    2:  Y                                         38237.20s

 Efield perturbation    3:  Z                                         38391.83s
 + Mode number:  34 completed;                   time taken:  1488.88 seconds +
 + Mode    35: performing Raman intensity calculation                         +

 Efield perturbation    1:  X                                         38687.32s

 Efield perturbation    2:  Y                                         38989.66s

 Efield perturbation    3:  Z                                         39144.05s

 Efield perturbation    1:  X                                         39427.45s

 Efield perturbation    2:  Y                                         39728.69s

 Efield perturbation    3:  Z                                         39883.04s
 + Mode number:  35 completed;                   time taken:  1491.02 seconds +
 + Checkpointing.....                                                         +

Writing analysis data to P21c.castep_bin

Writing model to P21c.check
 + Mode    36: performing Raman intensity calculation                         +

 Efield perturbation    1:  X                                         40296.26s

 Efield perturbation    2:  Y                                         40873.34s

 Efield perturbation    3:  Z                                         41156.40s

 Efield perturbation    1:  X                                         41673.35s

 Efield perturbation    2:  Y                                         42249.37s

 Efield perturbation    3:  Z                                         42532.67s
 + Mode number:  36 completed;                   time taken:  2776.35 seconds +
 + Mode    37: performing Raman intensity calculation                         +

 Efield perturbation    1:  X                                         42957.03s

 Efield perturbation    2:  Y                                         43259.01s

 Efield perturbation    3:  Z                                         43413.04s

 Efield perturbation    1:  X                                         43694.61s

 Efield perturbation    2:  Y                                         43996.50s

 Efield perturbation    3:  Z                                         44149.75s
 + Mode number:  37 completed;                   time taken:  1487.74 seconds +
 + Mode    38: not Raman active; calculation not required                     +
 + Mode    39: performing Raman intensity calculation                         +

 Efield perturbation    1:  X                                         44444.88s

 Efield perturbation    2:  Y                                         44746.64s

 Efield perturbation    3:  Z                                         44900.80s

 Efield perturbation    1:  X                                         45183.26s

 Efield perturbation    2:  Y                                         45484.92s

 Efield perturbation    3:  Z                                         45639.01s
 + Mode number:  39 completed;                   time taken:  1489.63 seconds +
 + Mode    40: performing Raman intensity calculation                         +

 Efield perturbation    1:  X                                         46049.87s

 Efield perturbation    2:  Y                                         46628.25s

 Efield perturbation    3:  Z                                         46914.77s

 Efield perturbation    1:  X                                         47436.97s

 Efield perturbation    2:  Y                                         48016.96s

 Efield perturbation    3:  Z                                         48302.75s
 + Mode number:  40 completed;                   time taken:  2796.37 seconds +
 + Mode    41: performing Raman intensity calculation                         +

 Efield perturbation    1:  X                                         48846.46s

 Efield perturbation    2:  Y                                         49423.98s

 Efield perturbation    3:  Z                                         49708.68s

 Efield perturbation    1:  X                                         50226.93s

 Efield perturbation    2:  Y                                         50804.27s

 Efield perturbation    3:  Z                                         51087.91s
 + Mode number:  41 completed;                   time taken:  2783.87 seconds +
 + Mode    42: not Raman active; calculation not required                     +
 + Mode    43: performing Raman intensity calculation                         +

 Efield perturbation    1:  X                                         51630.46s

 Efield perturbation    2:  Y                                         52207.52s

 Efield perturbation    3:  Z                                         52493.53s

 Efield perturbation    1:  X                                         53015.17s

 Efield perturbation    2:  Y                                         53593.07s

 Efield perturbation    3:  Z                                         53876.33s
 + Mode number:  43 completed;                   time taken:  2786.77 seconds +
 + Mode    44: performing Raman intensity calculation                         +

 Efield perturbation    1:  X                                         54415.90s

 Efield perturbation    2:  Y                                         54993.50s

 Efield perturbation    3:  Z                                         55277.79s

 Efield perturbation    1:  X                                         55799.78s

 Efield perturbation    2:  Y                                         56376.46s

 Efield perturbation    3:  Z                                         56659.87s
 + Mode number:  44 completed;                   time taken:  2783.89 seconds +
 + Checkpointing.....                                                         +

Writing analysis data to P21c.castep_bin

Writing model to P21c.check
 + Mode    45: not Raman active; calculation not required                     +
 + Mode    46: performing Raman intensity calculation                         +

 Efield perturbation    1:  X                                         57207.17s

 Efield perturbation    2:  Y                                         57786.06s

 Efield perturbation    3:  Z                                         58071.32s

 Efield perturbation    1:  X                                         58597.77s

 Efield perturbation    2:  Y                                         59175.22s

 Efield perturbation    3:  Z                                         59458.26s
 + Mode number:  46 completed;                   time taken:  2795.93 seconds +
 + Mode    47: not Raman active; calculation not required                     +
 + Mode    48: performing Raman intensity calculation                         +

 Efield perturbation    1:  X                                         59892.81s

 Efield perturbation    2:  Y                                         60194.19s

 Efield perturbation    3:  Z                                         60348.17s

 Efield perturbation    1:  X                                         60631.98s

 Efield perturbation    2:  Y                                         60932.51s
 +-------------------------------------------------+
 |                                                 |
 |      CCC   AA    SSS  TTTTT  EEEEE  PPPP        |
 |     C     A  A  S       T    E      P   P       |
 |     C     AAAA   SS     T    EEE    PPPP        |
 |     C     A  A     S    T    E      P           |
 |      CCC  A  A  SSS     T    EEEEE  P           |
 |                                                 |
 +-------------------------------------------------+
 |                                                 |
 | Welcome to Academic Release CASTEP version 18.1 |          
 | Ab Initio Total Energy Program                  |
 |                                                 |
 | Authors:                                        |
 | M. Segall, M. Probert, C. Pickard, P. Hasnip,   |
 | S. Clark, K. Refson, J. R. Yates, M. Payne      |
 |                                                 |
 | Contributors:                                   |
 | P. Lindan, P. Haynes, J. White, V. Milman,      |
 | N. Govind, M. Gibson, P. Tulip, V. Cocula,      |
 | B. Montanari, D. Quigley, M. Glover,            |
 | L. Bernasconi, A. Perlov, M. Plummer,           |
 | E. McNellis, J. Meyer, J. Gale, D. Jochym       |
 | J. Aarons, B. Walker, R. Gillen, D. Jones       |
 | T. Green, I. J. Bush, C. J. Armstrong,          |
 | E. J. Higgins, E. L. Brown, M. S. McFly,        |
 | J. Wilkins, B-C. Shih, P. J. P. Byrne           |
 |                                                 |
 | Copyright (c) 2000 - 2017                       |
 |                                                 |
 |     Distributed under the terms of an           |
 |     Agreement between the United Kingdom        |
 |     Car-Parrinello (UKCP) Consortium,           |
 |     Daresbury Laboratory and Accelrys, Inc.     |
 |                                                 |
 | Please cite                                     |
 |                                                 |
 |     "First principles methods using CASTEP"     |
 |                                                 |
 |         Zeitschrift fuer Kristallographie       |
 |           220(5-6) pp. 567-570 (2005)           |
 |                                                 |
 | S. J. Clark, M. D. Segall, C. J. Pickard,       |
 | P. J. Hasnip, M. J. Probert, K. Refson,         |
 | M. C. Payne                                     |
 |                                                 |
 |       in all publications arising from          |
 |              your use of CASTEP                 |
 |                                                 |
 +-------------------------------------------------+


 Compiled for linux_x86_64_gfortran4.8 on Thu, 19 Jul 2018 15:42:32 +0100
 from code version 70483bd0ad64+  Sun, 10 Dec 2017 12:18:29 +0000
 Compiler: GNU Fortran 4.8.5; Optimisation: fast
 MATHLIBS: Intel MKL(2018.0.0) (LAPACK version 3.7.0)
 FFT Lib : mkl
 Fundamental constants values: CODATA 2014

 Run started: Sun, 02 Aug 2020 11:39:43 +0100
 +-------------------------------------------------+
 |                                                 |
 |  D D D D    F F F F F  P P P P     T T T T T    |
 |  D       D  F          P       P       T        |
 |  D       D  F F F F    P P P P         T        |
 |  D       D  F          P               T        |
 |  D D D D    F          P               T        |
 |                                                 |
 +-------------------------------------------------+
 |                                                 |
 | Welcome to Castep Linear Response (DFPT)        |
 |                                                 |
 | Copyright (c) 2006 - 2017                       |
 |                                                 |
 | Please cite the following publications in all   |
 | work arising from your use of CASTEP LR.        |
 |                                                 |
 | K. Refson, S. J. Clark and P. R. Tulip          |
 | Variational density functional perturbation     |
 | theory for dielectrics and lattice dynamics     |
 | Phys. Rev. B 73(15), 155114 (2006)              |
 +-------------------------------------------------+

Reading continuation data from model file P21c.check

 Atomic calculation performed for H: 1s1

 Converged in 41 iterations to an ae energy of -12.488 eV

   ============================================================                
   | Pseudopotential Report - Date of generation  2-08-2020   |                
   ------------------------------------------------------------                
   | Element: H Ionic charge:  1.00 Level of theory: PBE      |                
   | Atomic Solver: Koelling-Harmon                           |                
   |                                                          |                
   |               Reference Electronic Structure             |                
   |         Orbital         Occupation         Energy        |                
   |            1s              1.000           -0.239        |                
   |                                                          |                
   |                 Pseudopotential Definition               |                
   |        Beta     l      e      Rc     scheme   norm       |                
   |         loc     0   -0.239   0.702     qc      1         |                
   |                                                          |                
   | No charge augmentation                                   |                
   | No partial core correction                               |                
   ------------------------------------------------------------                
   | "0|0.7|2|6|8|10L(qc=10)"                                 |                
   ------------------------------------------------------------                
   |      Author: Chris J. Pickard, Cambridge University      |                
   ============================================================                

 Pseudo atomic calculation performed for H 1s1

 Converged in 24 iterations to a total energy of -12.4843 eV

Initialising basis set for model.
Reinitialising basis set for current geometry.
Continuing from previous run with ground state wavefunction.
Continuing from previous run with ground state density.
 Calculation parallelised over 16 processes.
 Data is distributed by k-point(16-way)

 ************************************ Title ************************************
 

 ***************************** General Parameters ******************************
  
 output verbosity                               : normal  (1)
 continuing from                                : P21c.check
 write checkpoint data to                       : P21c.check
 type of calculation                            : phonon calculation
 stress calculation                             : on
 density difference calculation                 : off
 electron localisation func (ELF) calculation   : off
 Hirshfeld analysis                             : off
 unlimited duration calculation
 timing information                             : on
 memory usage estimate                          : on
 write extra output files                       : on
 write final potential to formatted file        : off
 write final density to formatted file          : off
 write structure in CELL formatted file         : on
 write BibTeX reference list                    : on
 write OTFG pseudopotential files               : on
 write electrostatic potential file             : on
 write bands file                               : on
 checkpoint writing                             : both castep_bin and check files
  
 output         length unit                     : A
 output           mass unit                     : amu
 output           time unit                     : ps
 output         charge unit                     : e
 output           spin unit                     : hbar/2
 output         energy unit                     : eV
 output          force unit                     : eV/A
 output       velocity unit                     : A/ps
 output       pressure unit                     : GPa
 output     inv_length unit                     : 1/A
 output      frequency unit                     : cm-1
 output force constant unit                     : eV/A**2
 output         volume unit                     : A**3
 output   IR intensity unit                     : (D/A)**2/amu
 output         dipole unit                     : D
 output         efield unit                     : eV/A/e
 output        entropy unit                     : J/mol/K
  
 wavefunctions paging                           : none
 random number generator seed                   :  184058236
 data distribution                              : optimal for this architecture
 optimization strategy                          : maximize speed(+++)

 *********************** Exchange-Correlation Parameters ***********************
  
 using functional                               : Perdew Burke Ernzerhof
 relativistic treatment                         : Koelling-Harmon
 DFT+D: Semi-empirical dispersion correction    : off

 ************************* Pseudopotential Parameters **************************
  
 pseudopotential representation                 : reciprocal space
 <beta|phi> representation                      : reciprocal space
 spin-orbit coupling                            : off

 **************************** Basis Set Parameters *****************************
  
 plane wave basis set cut-off                   :  1200.0000   eV
 size of standard grid                          :     2.0000
 size of   fine   gmax                          :    35.4943   1/A
 finite basis set correction                    : automatic
 number of sample energies                      :          3
           sample  spacing                      :     5.0000   eV

 **************************** Electronic Parameters ****************************
  
 number of  electrons                           :  24.00    
 net charge of system                           :  0.000    
 treating system as non-spin-polarized
 number of bands                                :         12

 ********************* Electronic Minimization Parameters **********************
  
 Method: Treating system as non-metallic,
         and number of  SD  steps               :          1
         and number of  CG  steps               :          4
  
 total energy / atom convergence tol.           : 0.1000E-10   eV
 eigen-energy convergence tolerance             : 0.2000E-10   eV
 max force / atom convergence tol.              : ignored
 convergence tolerance window                   :          3   cycles
 max. number of SCF cycles                      :        100
 periodic dipole correction                     : NONE

 ************************** Density Mixing Parameters **************************
  
 density-mixing scheme                          : Broyden
 max. length of mixing history                  :         20
 charge density mixing amplitude                : 0.8000    
 cut-off energy for mixing                      :  1200.       eV

 *********************** Population Analysis Parameters ************************
  
 Population analysis with cutoff                :  3.000       A
 Population analysis output                     : summary and pdos components

 ****************************** Phonon Parameters ******************************
  
 phonon calculation method                      : linear response
 phonon convergence tolerance                   : 0.1000E-04   eV/A**2
 max. number of phonon cycles                   :         50
 max. number of phonon CG steps                 :          0
 convergence tolerance window                   :          2   cycles
 DFPT solver method                             : AllBands (Gonze variational method)
 preconditioning scheme                         : TPA     
 fine phonon calculation method                 : interpolation
 non-periodic force constant method             : Weighted cumulant sum
 LO/TO splitting term                           : included
 acoustic phonon sum rule                       : correct D(q) in recip-space
 Born effective charges                         : calculated
 Born charge sum rule                           : explicitly enforced
 Raman intensities                              : calculated
 Raman frequency window start                   :  0.000       eV
 Raman frequency window stop                    :  1.000       eV
 Raman tensor calculated using                  : finite displacement method
 phonon k-points                                : use reduced set
 phonon DOS                                     : not calculated
 backups results every                          :      14400   seconds
 band convergence tolerance                     : 0.1000E-08   eV

 *******************************************************************************
  

                           -------------------------------
                                      Unit Cell
                           -------------------------------
        Real Lattice(A)                      Reciprocal Lattice(1/A)
    10.5122746     0.0000000     0.0020160        0.597486516   0.000000000   1.112606308
     0.0000000     2.1840724     0.0000000        0.000000000   2.876820999   0.000000000
    -7.0096357     0.0000000     3.7642810       -0.000319988   0.000000000   1.668563605

                       Lattice parameters(A)       Cell Angles
                    a =     10.512275          alpha =   90.000000
                    b =      2.184072          beta  =  151.752537
                    c =      7.956432          gamma =   90.000000

                       Current cell volume =            86.457132       A**3
                                   density =             0.279798   AMU/A**3
                                           =             0.464616     g/cm^3

                           -------------------------------
                                     Cell Contents
                           -------------------------------
                         Total number of ions in cell =   24
                      Total number of species in cell =    1
                        Max number of any one species =   24

            xxxxxxxxxxxxxxxxxxxxxxxxxxxxxxxxxxxxxxxxxxxxxxxxxxxxxxxxxxxx
            x  Element    Atom        Fractional coordinates of atoms  x
            x            Number           u          v          w      x
            x----------------------------------------------------------x
            x  H            1         0.839268   0.638257   0.109455   x 
            x  H            2         0.160732   0.361743   0.890545   x 
            x  H            3         0.839268   0.861743   0.609455   x 
            x  H            4         0.160732   0.138257   0.390545   x 
            x  H            5         0.880081   0.407765   0.220013   x 
            x  H            6         0.119919   0.592235   0.779987   x 
            x  H            7         0.880081   0.092235   0.720013   x 
            x  H            8         0.119919   0.907765   0.279987   x 
            x  H            9         0.856813   0.109824   0.412142   x 
            x  H           10         0.143187   0.890176   0.587858   x 
            x  H           11         0.856813   0.390176   0.912142   x 
            x  H           12         0.143187   0.609824   0.087858   x 
            x  H           13         0.752625   0.911651   0.252703   x 
            x  H           14         0.247375   0.088349   0.747297   x 
            x  H           15         0.752625   0.588349   0.752703   x 
            x  H           16         0.247375   0.411651   0.247297   x 
            x  H           17         0.571456   0.399251   0.191593   x 
            x  H           18         0.428544   0.600749   0.808407   x 
            x  H           19         0.571456   0.100749   0.691593   x 
            x  H           20         0.428544   0.899251   0.308407   x 
            x  H           21         0.482558   0.590933   0.140836   x 
            x  H           22         0.517442   0.409067   0.859164   x 
            x  H           23         0.482558   0.909067   0.640836   x 
            x  H           24         0.517442   0.090933   0.359164   x 
            xxxxxxxxxxxxxxxxxxxxxxxxxxxxxxxxxxxxxxxxxxxxxxxxxxxxxxxxxxxx


                         No user defined ionic velocities

                           -------------------------------
                                   Details of Species
                           -------------------------------

                               Mass of species in AMU
                                    H    1.0079400

                          Electric Quadrupole Moment (Barn)
                                    H    0.0028600 Isotope  2

                          Files used for pseudopotentials:
                                    H 0|0.7|2|6|8|10L(qc=10)

                           -------------------------------
                              k-Points For BZ Sampling
                           -------------------------------
                       MP grid size for SCF calculation is  8  8  8
                            with an offset of   0.000  0.000  0.000
                       Number of kpoints used =           128

                           -------------------------------
                               Symmetry and Constraints
                           -------------------------------

                      Maximum deviation from symmetry = 0.188697E-13     ANG

                      Number of symmetry operations   =           4
                      Number of ionic constraints     =           3
                      Point group of crystal =     5: C2h, 2/m, 2/m
                      Space group of crystal =    14: P2_1/c, -P 2ybc

             Set iprint > 1 for details on symmetry rotations/translations

                         Centre of mass is constrained
             Set iprint > 1 for details of linear ionic constraints

                         Number of cell constraints= 2
                         Cell constraints are:  1 2 3 0 5 0

                         External pressure/stress (GPa)
                         30.00000   0.00000   0.00000
                                   30.00000   0.00000
                                             30.00000
 Restarting Phonon calculation: Frequencies for q-points 1 to 1 recovered from .check file.
 
 ==============================================================================
 +                           Vibrational Frequencies                          +
 +                           -----------------------                          +
 +                                                                            +
 + Performing frequency calculation at  1 wavevector  (q-pt )                 +
 + ========================================================================== +
 +                                                                            +
 +============================================================================+
 +                       Raman Intensity Progress Report                      +
 +----------------------------------------------------------------------------+
 + RAMAN: Restart calculation; continuing Raman calculation from checkpoint   +
 +----------------------------------------------------------------------------+
 + Mode     1: Raman tensor recovered from check file                         +
 + Mode     2: Raman tensor recovered from check file                         +
 + Mode     3: Raman tensor recovered from check file                         +
 + Mode     4: Raman tensor recovered from check file                         +
 + Mode     5: Raman tensor recovered from check file                         +
 + Mode     6: Raman tensor recovered from check file                         +
 + Mode     7: Raman tensor recovered from check file                         +
 + Mode     8: Raman tensor recovered from check file                         +
 + Mode     9: Raman tensor recovered from check file                         +
 + Mode    10: Raman tensor recovered from check file                         +
 + Mode    11: Raman tensor recovered from check file                         +
 + Mode    12: Raman tensor recovered from check file                         +
 + Mode    13: Raman tensor recovered from check file                         +
 + Mode    14: Raman tensor recovered from check file                         +
 + Mode    15: Raman tensor recovered from check file                         +
 + Mode    16: Raman tensor recovered from check file                         +
 + Mode    17: Raman tensor recovered from check file                         +
 + Mode    18: Raman tensor recovered from check file                         +
 + Mode    19: Raman tensor recovered from check file                         +
 + Mode    20: Raman tensor recovered from check file                         +
 + Mode    21: Raman tensor recovered from check file                         +
 + Mode    22: Raman tensor recovered from check file                         +
 + Mode    23: Raman tensor recovered from check file                         +
 + Mode    24: Raman tensor recovered from check file                         +
 + Mode    25: Raman tensor recovered from check file                         +
 + Mode    26: Raman tensor recovered from check file                         +
 + Mode    27: Raman tensor recovered from check file                         +
 + Mode    28: Raman tensor recovered from check file                         +
 + Mode    29: Raman tensor recovered from check file                         +
 + Mode    30: Raman tensor recovered from check file                         +
 + Mode    31: Raman tensor recovered from check file                         +
 + Mode    32: Raman tensor recovered from check file                         +
 + Mode    33: Raman tensor recovered from check file                         +
 + Mode    34: Raman tensor recovered from check file                         +
 + Mode    35: Raman tensor recovered from check file                         +
 + Mode    36: Raman tensor recovered from check file                         +
 + Mode    37: Raman tensor recovered from check file                         +
 + Mode    38: Raman tensor recovered from check file                         +
 + Mode    39: Raman tensor recovered from check file                         +
 + Mode    40: Raman tensor recovered from check file                         +
 + Mode    41: Raman tensor recovered from check file                         +
 + Mode    42: Raman tensor recovered from check file                         +
 + Mode    43: Raman tensor recovered from check file                         +
 + Mode    44: Raman tensor recovered from check file                         +
 + Mode    45: not Raman active; calculation not required                     +
 + Mode    46: performing Raman intensity calculation                         +

 Efield perturbation    1:  X                                           262.93s
  +---------------- MEMORY AND SCRATCH DISK ESTIMATES PER PROCESS --------------+
  |                                                     Memory          Disk    |
  | DFPT E-field response requirements                  193.8 MB         0.0 MB |
  |                                               ----------------------------- |
  | Approx. total storage required per process          193.8 MB         0.0 MB |
  |                                                                             |
  | Requirements will fluctuate during execution and may exceed these estimates |
  +-----------------------------------------------------------------------------+

 Efield perturbation    2:  Y                                           830.62s

 Efield perturbation    3:  Z                                          1109.56s

 Efield perturbation    1:  X                                          1621.93s

 Efield perturbation    2:  Y                                          2190.64s

 Efield perturbation    3:  Z                                          2469.53s
 + Mode number:  46 completed;                   time taken:  2742.02 seconds +
 + Mode    47: not Raman active; calculation not required                     +
 + Mode    48: performing Raman intensity calculation                         +

 Efield perturbation    1:  X                                          2888.16s

 Efield perturbation    2:  Y                                          3184.40s

 Efield perturbation    3:  Z                                          3333.64s

 Efield perturbation    1:  X                                          3611.43s

 Efield perturbation    2:  Y                                          3911.51s

 Efield perturbation    3:  Z                                          4061.28s
 + Mode number:  48 completed;                   time taken:  1461.44 seconds +
 + Mode    49: not Raman active; calculation not required                     +
 + Mode    50: not Raman active; calculation not required                     +
 + Mode    51: not Raman active; calculation not required                     +
 + Mode    52: not Raman active; calculation not required                     +
 + Mode    53: performing Raman intensity calculation                         +

 Efield perturbation    1:  X                                          4357.27s

 Efield perturbation    2:  Y                                          4653.08s

 Efield perturbation    3:  Z                                          4802.33s

 Efield perturbation    1:  X                                          5077.08s

 Efield perturbation    2:  Y                                          5372.45s

 Efield perturbation    3:  Z                                          5521.49s
 + Mode number:  53 completed;                   time taken:  1460.56 seconds +
 + Mode    54: not Raman active; calculation not required                     +
 + Mode    55: not Raman active; calculation not required                     +
 + Mode    56: performing Raman intensity calculation                         +

 Efield perturbation    1:  X                                          5921.25s

 Efield perturbation    2:  Y                                          6489.58s

 Efield perturbation    3:  Z                                          6767.79s

 Efield perturbation    1:  X                                          7273.40s

 Efield perturbation    2:  Y                                          7845.75s

 Efield perturbation    3:  Z                                          8122.68s
 + Mode number:  56 completed;                   time taken:  2729.48 seconds +
 + Mode    57: not Raman active; calculation not required                     +
 + Mode    58: performing Raman intensity calculation                         +

 Efield perturbation    1:  X                                          8546.90s

 Efield perturbation    2:  Y                                          8840.95s

 Efield perturbation    3:  Z                                          8989.37s

 Efield perturbation    1:  X                                          9263.27s

 Efield perturbation    2:  Y                                          9557.92s

 Efield perturbation    3:  Z                                          9708.40s
 + Mode number:  58 completed;                   time taken:  1456.50 seconds +
 + Mode    59: performing Raman intensity calculation                         +

 Efield perturbation    1:  X                                         10107.75s

 Efield perturbation    2:  Y                                         10675.08s

 Efield perturbation    3:  Z                                         10953.49s

 Efield perturbation    1:  X                                         11459.37s

 Efield perturbation    2:  Y                                         12030.75s

 Efield perturbation    3:  Z                                         12309.78s
 + Mode number:  59 completed;                   time taken:  2730.99 seconds +
 + Mode    60: performing Raman intensity calculation                         +

 Efield perturbation    1:  X                                         12730.01s

 Efield perturbation    2:  Y                                         13025.54s

 Efield perturbation    3:  Z                                         13174.51s

 Efield perturbation    1:  X                                         13448.52s

 Efield perturbation    2:  Y                                         13743.78s

 Efield perturbation    3:  Z                                         13892.19s
 + Mode number:  60 completed;                   time taken:  1451.91 seconds +
 + Mode    61: performing Raman intensity calculation                         +

 Efield perturbation    1:  X                                         14178.23s

 Efield perturbation    2:  Y                                         14472.82s

 Efield perturbation    3:  Z                                         14641.31s

 Efield perturbation    1:  X                                         14916.07s

 Efield perturbation    2:  Y                                         15209.62s

 Efield perturbation    3:  Z                                         15359.00s
 + Mode number:  61 completed;                   time taken:  1467.63 seconds +
 + Checkpointing.....                                                         +

Writing analysis data to P21c.castep_bin

Writing model to P21c.check
 + Mode    62: performing Raman intensity calculation                         +

 Efield perturbation    1:  X                                         15759.61s

 Efield perturbation    2:  Y                                         16328.25s

 Efield perturbation    3:  Z                                         16606.39s

 Efield perturbation    1:  X                                         17112.29s

 Efield perturbation    2:  Y                                         17679.66s

 Efield perturbation    3:  Z                                         17960.04s
 + Mode number:  62 completed;                   time taken:  2729.08 seconds +
 + Mode    63: not Raman active; calculation not required                     +
 + Mode    64: not Raman active; calculation not required                     +
 + Mode    65: not Raman active; calculation not required                     +
 + Mode    66: performing Raman intensity calculation                         +

 Efield perturbation    1:  X                                         18379.98s

 Efield perturbation    2:  Y                                         18675.23s

 Efield perturbation    3:  Z                                         18823.35s

 Efield perturbation    1:  X                                         19098.74s

 Efield perturbation    2:  Y                                         19397.22s

 Efield perturbation    3:  Z                                         19548.15s
 + Mode number:  66 completed;                   time taken:  1458.66 seconds +
 + Mode    67: not Raman active; calculation not required                     +
 + Mode    68: performing Raman intensity calculation                         +

 Efield perturbation    1:  X                                         19954.59s

 Efield perturbation    2:  Y                                         20556.14s

 Efield perturbation    3:  Z                                         20844.98s

 Efield perturbation    1:  X                                         21359.98s

 Efield perturbation    2:  Y                                         21927.58s

 Efield perturbation    3:  Z                                         22201.91s
 + Mode number:  68 completed;                   time taken:  2780.02 seconds +
 + Mode    69: not Raman active; calculation not required                     +
 + Mode    70: performing Raman intensity calculation                         +

 Efield perturbation    1:  X                                         22622.28s

 Efield perturbation    2:  Y                                         22927.98s

 Efield perturbation    3:  Z                                         23076.58s

 Efield perturbation    1:  X                                         23349.23s

 Efield perturbation    2:  Y                                         23644.13s

 Efield perturbation    3:  Z                                         23791.81s
 + Mode number:  70 completed;                   time taken:  1460.52 seconds +
 + Mode    71: not Raman active; calculation not required                     +
 + Mode    72: performing Raman intensity calculation                         +

 Efield perturbation    1:  X                                         24206.74s

 Efield perturbation    2:  Y                                         24795.69s

 Efield perturbation    3:  Z                                         25088.64s

 Efield perturbation    1:  X                                         25579.84s

 Efield perturbation    2:  Y                                         26123.26s

 Efield perturbation    3:  Z                                         26383.79s
[...]
 +     0.0000    0.0000    0.0000      0.000000                               +
 +     0.0000    0.0000    0.0000                                             +
 +     0.0000    0.0000    0.0000                                             +
 +                                                                            +
 + Mode number:  58 Raman tensor       Depolarisation Ratio                   +
 +    -0.0046    0.0000    0.0551      0.741688                               +
 +     0.0000    0.0145    0.0000                                             +
 +     0.0551    0.0000   -0.0007                                             +
 +                                                                            +
 + Mode number:  59 Raman tensor       Depolarisation Ratio                   +
 +    -0.0000   -0.0144    0.0000      0.750000                               +
 +    -0.0144    0.0000   -0.0172                                             +
 +     0.0000   -0.0172    0.0000                                             +
 +                                                                            +
 + Mode number:  60 Raman tensor       Depolarisation Ratio                   +
 +    -0.0117    0.0000    0.0059      0.677807                               +
 +     0.0000    0.0152    0.0000                                             +
 +     0.0059    0.0000   -0.0119                                             +
 +                                                                            +
 + Mode number:  61 Raman tensor       Depolarisation Ratio                   +
 +     1.8823    0.0000   -0.0385      0.001358                               +
 +     0.0000    2.1143    0.0000                                             +
 +    -0.0385    0.0000    2.2040                                             +
 +                                                                            +
 + Mode number:  62 Raman tensor       Depolarisation Ratio                   +
 +    -0.0000   -0.0241    0.0000      0.750000                               +
 +    -0.0241    0.0000    0.1641                                             +
 +     0.0000    0.1641    0.0000                                             +
 +                                                                            +
 + Mode number:  63 Raman tensor       Depolarisation Ratio                   +
 +     0.0000    0.0000    0.0000      0.000000                               +
 +     0.0000    0.0000    0.0000                                             +
 +     0.0000    0.0000    0.0000                                             +
 +                                                                            +
 + Mode number:  64 Raman tensor       Depolarisation Ratio                   +
 +     0.0000    0.0000    0.0000      0.000000                               +
 +     0.0000    0.0000    0.0000                                             +
 +     0.0000    0.0000    0.0000                                             +
 +                                                                            +
 + Mode number:  65 Raman tensor       Depolarisation Ratio                   +
 +     0.0000    0.0000    0.0000      0.000000                               +
 +     0.0000    0.0000    0.0000                                             +
 +     0.0000    0.0000    0.0000                                             +
 +                                                                            +
 + Mode number:  66 Raman tensor       Depolarisation Ratio                   +
 +    -0.2979    0.0000   -0.2199      0.719523                               +
 +     0.0000    0.1700    0.0000                                             +
 +    -0.2199    0.0000    0.2451                                             +
 +                                                                            +
 + Mode number:  67 Raman tensor       Depolarisation Ratio                   +
 +     0.0000    0.0000    0.0000      0.000000                               +
 +     0.0000    0.0000    0.0000                                             +
 +     0.0000    0.0000    0.0000                                             +
 +                                                                            +
 + Mode number:  68 Raman tensor       Depolarisation Ratio                   +
 +    -0.0000    0.3486   -0.0000      0.750000                               +
 +     0.3486   -0.0000   -0.3122                                             +
 +    -0.0000   -0.3122   -0.0000                                             +
 +                                                                            +
 + Mode number:  69 Raman tensor       Depolarisation Ratio                   +
 +     0.0000    0.0000    0.0000      0.000000                               +
 +     0.0000    0.0000    0.0000                                             +
 +     0.0000    0.0000    0.0000                                             +
 +                                                                            +
 + Mode number:  70 Raman tensor       Depolarisation Ratio                   +
 +     0.3820    0.0000   -0.0651      0.232642                               +
 +     0.0000    0.3000    0.0000                                             +
 +    -0.0651    0.0000   -0.0857                                             +
 +                                                                            +
 + Mode number:  71 Raman tensor       Depolarisation Ratio                   +
 +     0.0000    0.0000    0.0000      0.000000                               +
 +     0.0000    0.0000    0.0000                                             +
 +     0.0000    0.0000    0.0000                                             +
 +                                                                            +
 + Mode number:  72 Raman tensor       Depolarisation Ratio                   +
 +    -0.0000   -0.1392    0.0000      0.750000                               +
 +    -0.1392   -0.0000   -0.3430                                             +
 +     0.0000   -0.3430   -0.0000                                             +
 +                                                                            +
 +----------------------------------------------------------------------------+
  

 ******************** Symmetrised Forces ********************
 *                                                          *
 *               Cartesian components (eV/A)                *
 * -------------------------------------------------------- *
 *                         x            y            z      *
 *                                                          *
 * H               1      0.00000     -0.00000     -0.00000 *
 * H               2     -0.00000      0.00000      0.00000 *
 * H               3      0.00000      0.00000     -0.00000 *
 * H               4     -0.00000     -0.00000      0.00000 *
 * H               5     -0.00000     -0.00000     -0.00000 *
 * H               6      0.00000      0.00000      0.00000 *
 * H               7     -0.00000      0.00000     -0.00000 *
 * H               8      0.00000     -0.00000      0.00000 *
 * H               9     -0.00000      0.00000      0.00000 *
 * H              10      0.00000     -0.00000     -0.00000 *
 * H              11     -0.00000     -0.00000      0.00000 *
 * H              12      0.00000      0.00000     -0.00000 *
 * H              13     -0.00000     -0.00000     -0.00000 *
 * H              14      0.00000      0.00000      0.00000 *
 * H              15     -0.00000      0.00000     -0.00000 *
 * H              16      0.00000     -0.00000      0.00000 *
 * H              17     -0.00000     -0.00000      0.00000 *
 * H              18      0.00000      0.00000     -0.00000 *
 * H              19     -0.00000      0.00000      0.00000 *
 * H              20      0.00000     -0.00000     -0.00000 *
 * H              21     -0.00000      0.00000      0.00000 *
 * H              22      0.00000     -0.00000     -0.00000 *
 * H              23     -0.00000     -0.00000      0.00000 *
 * H              24      0.00000      0.00000     -0.00000 *
 *                                                          *
 ************************************************************

 *********** Symmetrised Stress Tensor ***********
 *                                               *
 *          Cartesian components (GPa)           *
 * --------------------------------------------- *
 *             x             y             z     *
 *                                               *
 *  x    -30.000252      0.000000      0.000002  *
 *  y      0.000000    -30.000245      0.000000  *
 *  z      0.000002      0.000000    -30.000253  *
 *                                               *
 *  Pressure:   30.0003                          *
 *                                               *
 *************************************************

 Pseudo atomic calculation performed for H 1s1

 Converged in 24 iterations to a total energy of -12.4843 eV

Charge spilling parameter for spin component 1 = 0.77%

            Orbital Populations       
     Ion    Atom   Orbital             Charge
  -------------------------------------------
      H     1      S                    0.987
      H     2      S                    0.987
      H     3      S                    0.987
      H     4      S                    0.987
      H     5      S                    1.012
      H     6      S                    1.012
      H     7      S                    1.012
      H     8      S                    1.012
      H     9      S                    1.010
      H    10      S                    1.010
      H    11      S                    1.009
      H    12      S                    1.009
      H    13      S                    0.991
      H    14      S                    0.991
      H    15      S                    0.991
      H    16      S                    0.991
      H    17      S                    1.001
      H    18      S                    1.001
      H    19      S                    1.001
      H    20      S                    1.001
      H    21      S                    0.999
      H    22      S                    0.999
      H    23      S                    0.999
      H    24      S                    0.999
  -------------------------------------------
                           Total:      24.000
  -------------------------------------------

     Atomic Populations (Mulliken)
     -----------------------------
Species          Ion     s      p      d      f     Total  Charge (e)
=====================================================================
  H               1     0.99   0.00   0.00   0.00   0.99     0.01
  H               2     0.99   0.00   0.00   0.00   0.99     0.01
  H               3     0.99   0.00   0.00   0.00   0.99     0.01
  H               4     0.99   0.00   0.00   0.00   0.99     0.01
  H               5     1.01   0.00   0.00   0.00   1.01    -0.01
  H               6     1.01   0.00   0.00   0.00   1.01    -0.01
  H               7     1.01   0.00   0.00   0.00   1.01    -0.01
  H               8     1.01   0.00   0.00   0.00   1.01    -0.01
  H               9     1.01   0.00   0.00   0.00   1.01    -0.01
  H              10     1.01   0.00   0.00   0.00   1.01    -0.01
  H              11     1.01   0.00   0.00   0.00   1.01    -0.01
  H              12     1.01   0.00   0.00   0.00   1.01    -0.01
  H              13     0.99   0.00   0.00   0.00   0.99     0.01
  H              14     0.99   0.00   0.00   0.00   0.99     0.01
  H              15     0.99   0.00   0.00   0.00   0.99     0.01
  H              16     0.99   0.00   0.00   0.00   0.99     0.01
  H              17     1.00   0.00   0.00   0.00   1.00    -0.00
  H              18     1.00   0.00   0.00   0.00   1.00    -0.00
  H              19     1.00   0.00   0.00   0.00   1.00    -0.00
  H              20     1.00   0.00   0.00   0.00   1.00    -0.00
  H              21     1.00   0.00   0.00   0.00   1.00     0.00
  H              22     1.00   0.00   0.00   0.00   1.00     0.00
  H              23     1.00   0.00   0.00   0.00   1.00     0.00
  H              24     1.00   0.00   0.00   0.00   1.00     0.00
=====================================================================

                 Bond                   Population      Length (A)
======================================================================
              H 2  -- H 6                    1.22        0.73916
              H 3  -- H 7                    1.22        0.73916
              H 1  -- H 5                    1.22        0.73916
              H 4  -- H 8                    1.22        0.73916
              H 17 -- H 21                   1.23        0.73943
              H 20 -- H 24                   1.23        0.73943
              H 19 -- H 23                   1.23        0.73943
              H 18 -- H 22                   1.23        0.73943
              H 12 -- H 16                   1.22        0.74047
              H 9  -- H 13                   1.22        0.74047
              H 10 -- H 14                   1.22        0.74047
              H 11 -- H 15                   1.22        0.74047
              H 8  -- H 11                  -0.11        1.75043
              H 5  -- H 10                  -0.11        1.75043
              H 7  -- H 12                  -0.11        1.75043
              H 6  -- H 9                   -0.11        1.75043
              H 10 -- H 18                  -0.10        1.78977
              H 12 -- H 20                  -0.10        1.78977
              H 11 -- H 19                  -0.10        1.78977
              H 9  -- H 17                  -0.10        1.78977
              H 22 -- H 23                  -0.11        1.79508
              H 21 -- H 24                  -0.11        1.79508
              H 3  -- H 9                   -0.06        1.81723
              H 4  -- H 10                  -0.06        1.81723
              H 1  -- H 11                  -0.06        1.81723
              H 2  -- H 12                  -0.06        1.81723
              H 13 -- H 18                  -0.09        1.82918
              H 14 -- H 17                  -0.09        1.82918
              H 16 -- H 19                  -0.09        1.82918
              H 15 -- H 20                  -0.09        1.82918
              H 14 -- H 18                  -0.10        1.83472
              H 13 -- H 17                  -0.10        1.83472
              H 15 -- H 19                  -0.10        1.83472
              H 16 -- H 20                  -0.10        1.83472
              H 14 -- H 21                  -0.10        1.85960
              H 15 -- H 24                  -0.10        1.85960
              H 16 -- H 23                  -0.10        1.85960
              H 13 -- H 22                  -0.10        1.85960
              H 8  -- H 12                  -0.10        1.86516
              H 5  -- H 9                   -0.10        1.86516
              H 6  -- H 10                  -0.10        1.86516
              H 7  -- H 11                  -0.10        1.86516
              H 8  -- H 23                  -0.05        1.86882
              H 5  -- H 22                  -0.05        1.86882
              H 7  -- H 24                  -0.05        1.86882
              H 6  -- H 21                  -0.05        1.86882
              H 2  -- H 20                  -0.10        1.87327
              H 3  -- H 17                  -0.10        1.87327
              H 4  -- H 18                  -0.10        1.87327
              H 1  -- H 19                  -0.10        1.87327
              H 2  -- H 9                   -0.10        1.89027
              H 4  -- H 11                  -0.10        1.89027
              H 3  -- H 12                  -0.10        1.89027
              H 1  -- H 10                  -0.10        1.89027
              H 8  -- H 16                  -0.10        1.91073
              H 6  -- H 14                  -0.10        1.91073
              H 5  -- H 13                  -0.10        1.91073
              H 7  -- H 15                  -0.10        1.91073
              H 17 -- H 18                  -0.05        1.91733
              H 19 -- H 20                  -0.05        1.91733
              H 4  -- H 22                  -0.09        1.91842
              H 1  -- H 23                  -0.09        1.91842
              H 2  -- H 24                  -0.09        1.91842
              H 3  -- H 21                  -0.09        1.91842
              H 2  -- H 21                  -0.04        1.94732
              H 4  -- H 23                  -0.04        1.94732
              H 1  -- H 22                  -0.04        1.94732
              H 3  -- H 24                  -0.04        1.94732
              H 9  -- H 10                  -0.04        1.95763
              H 11 -- H 12                  -0.04        1.95763
              H 3  -- H 6                   -0.08        1.95934
              H 2  -- H 7                   -0.08        1.95934
              H 1  -- H 8                   -0.08        1.95934
              H 4  -- H 5                   -0.08        1.95934
              H 19 -- H 22                  -0.10        1.97161
              H 17 -- H 24                  -0.10        1.97161
              H 20 -- H 21                  -0.10        1.97161
              H 18 -- H 23                  -0.10        1.97161
              H 1  -- H 4                   -0.09        2.07333
              H 2  -- H 3                   -0.09        2.07333
              H 2  -- H 14                  -0.09        2.07704
              H 4  -- H 16                  -0.09        2.07704
              H 3  -- H 15                  -0.09        2.07704
              H 1  -- H 13                  -0.09        2.07704
              H 3  -- H 13                  -0.05        2.08411
              H 1  -- H 15                  -0.05        2.08411
              H 4  -- H 14                  -0.05        2.08411
              H 2  -- H 16                  -0.05        2.08411
              H 8  -- H 15                  -0.08        2.11104
              H 5  -- H 14                  -0.08        2.11104
              H 6  -- H 13                  -0.08        2.11104
              H 7  -- H 16                  -0.08        2.11104
              H 6  -- H 20                  -0.08        2.14942
              H 7  -- H 17                  -0.08        2.14942
              H 5  -- H 19                  -0.08        2.14942
              H 8  -- H 18                  -0.08        2.14942
              H 18 -- H 21                  -0.04        2.16163
              H 19 -- H 24                  -0.04        2.16163
              H 20 -- H 23                  -0.04        2.16163
              H 17 -- H 22                  -0.04        2.16163
              H 9  -- H 14                  -0.04        2.16350
              H 11 -- H 16                  -0.04        2.16350
              H 12 -- H 15                  -0.04        2.16350
              H 10 -- H 13                  -0.04        2.16350
======================================================================


Writing analysis data to P21c.castep_bin

Writing model to P21c.check
 
 A BibTeX formatted list of references used in this run has been written to 
 P21c.bib
 
Initialisation time =      3.42 s
Calculation time    =  26655.41 s
Finalisation time   =      3.38 s
Total time          =  26662.20 s
Peak Memory Use     = 772484 kB
  
Overall parallel efficiency rating: Excellent (97%)                             
  
Data was distributed by:-
k-point (16-way); efficiency rating: Excellent (98%)                            
