 +-------------------------------------------------+
 |                                                 |
 |      CCC   AA    SSS  TTTTT  EEEEE  PPPP        |
 |     C     A  A  S       T    E      P   P       |
 |     C     AAAA   SS     T    EEE    PPPP        |
 |     C     A  A     S    T    E      P           |
 |      CCC  A  A  SSS     T    EEEEE  P           |
 |                                                 |
 +-------------------------------------------------+
 |                                                 |
 | Welcome to Academic Release CASTEP version 18.1 |          
 | Ab Initio Total Energy Program                  |
 |                                                 |
 | Authors:                                        |
 | M. Segall, M. Probert, C. Pickard, P. Hasnip,   |
 | S. Clark, K. Refson, J. R. Yates, M. Payne      |
 |                                                 |
 | Contributors:                                   |
 | P. Lindan, P. Haynes, J. White, V. Milman,      |
 | N. Govind, M. Gibson, P. Tulip, V. Cocula,      |
 | B. Montanari, D. Quigley, M. Glover,            |
 | L. Bernasconi, A. Perlov, M. Plummer,           |
 | E. McNellis, J. Meyer, J. Gale, D. Jochym       |
 | J. Aarons, B. Walker, R. Gillen, D. Jones       |
 | T. Green, I. J. Bush, C. J. Armstrong,          |
 | E. J. Higgins, E. L. Brown, M. S. McFly,        |
 | J. Wilkins, B-C. Shih, P. J. P. Byrne           |
 |                                                 |
 | Copyright (c) 2000 - 2017                       |
 |                                                 |
 |     Distributed under the terms of an           |
 |     Agreement between the United Kingdom        |
 |     Car-Parrinello (UKCP) Consortium,           |
 |     Daresbury Laboratory and Accelrys, Inc.     |
 |                                                 |
 | Please cite                                     |
 |                                                 |
 |     "First principles methods using CASTEP"     |
 |                                                 |
 |         Zeitschrift fuer Kristallographie       |
 |           220(5-6) pp. 567-570 (2005)           |
 |                                                 |
 | S. J. Clark, M. D. Segall, C. J. Pickard,       |
 | P. J. Hasnip, M. J. Probert, K. Refson,         |
 | M. C. Payne                                     |
 |                                                 |
 |       in all publications arising from          |
 |              your use of CASTEP                 |
 |                                                 |
 +-------------------------------------------------+


 Compiled for linux_x86_64_gfortran4.8 on Thu, 19 Jul 2018 15:42:32 +0100
 from code version 70483bd0ad64+  Sun, 10 Dec 2017 12:18:29 +0000
 Compiler: GNU Fortran 4.8.5; Optimisation: fast
 MATHLIBS: Intel MKL(2018.0.0) (LAPACK version 3.7.0)
 FFT Lib : mkl
 Fundamental constants values: CODATA 2014

 Run started: Thu, 06 Aug 2020 12:23:44 +0100
 +-------------------------------------------------+
 |                                                 |
 |  D D D D    F F F F F  P P P P     T T T T T    |
 |  D       D  F          P       P       T        |
 |  D       D  F F F F    P P P P         T        |
 |  D       D  F          P               T        |
 |  D D D D    F          P               T        |
 |                                                 |
 +-------------------------------------------------+
 |                                                 |
 | Welcome to Castep Linear Response (DFPT)        |
 |                                                 |
 | Copyright (c) 2006 - 2017                       |
 |                                                 |
 | Please cite the following publications in all   |
 | work arising from your use of CASTEP LR.        |
 |                                                 |
 | K. Refson, S. J. Clark and P. R. Tulip          |
 | Variational density functional perturbation     |
 | theory for dielectrics and lattice dynamics     |
 | Phys. Rev. B 73(15), 155114 (2006)              |
 +-------------------------------------------------+


 Atomic calculation performed for H: 1s1

 Converged in 41 iterations to an ae energy of -12.488 eV

   ============================================================                
   | Pseudopotential Report - Date of generation  6-08-2020   |                
   ------------------------------------------------------------                
   | Element: H Ionic charge:  1.00 Level of theory: PBE      |                
   | Atomic Solver: Koelling-Harmon                           |                
   |                                                          |                
   |               Reference Electronic Structure             |                
   |         Orbital         Occupation         Energy        |                
   |            1s              1.000           -0.239        |                
   |                                                          |                
   |                 Pseudopotential Definition               |                
   |        Beta     l      e      Rc     scheme   norm       |                
   |         loc     0   -0.239   0.702     qc      1         |                
   |                                                          |                
   | No charge augmentation                                   |                
   | No partial core correction                               |                
   ------------------------------------------------------------                
   | "0|0.7|2|6|8|10L(qc=10)"                                 |                
   ------------------------------------------------------------                
   |      Author: Chris J. Pickard, Cambridge University      |                
   ============================================================                

 Pseudo atomic calculation performed for H 1s1

 Converged in 24 iterations to a total energy of -12.4843 eV

 Calculation parallelised over 16 processes.
 Data is distributed by k-point(16-way)

 ************************************ Title ************************************
 

 ***************************** General Parameters ******************************
  
 output verbosity                               : normal  (1)
 write checkpoint data to                       : Hibam.check
 type of calculation                            : phonon calculation
 stress calculation                             : on
 density difference calculation                 : off
 electron localisation func (ELF) calculation   : off
 Hirshfeld analysis                             : off
 unlimited duration calculation
 timing information                             : on
 memory usage estimate                          : on
 write extra output files                       : on
 write final potential to formatted file        : off
 write final density to formatted file          : off
 write structure in CELL formatted file         : on
 write BibTeX reference list                    : on
 write OTFG pseudopotential files               : on
 write electrostatic potential file             : on
 write bands file                               : on
 checkpoint writing                             : both castep_bin and check files
  
 output         length unit                     : A
 output           mass unit                     : amu
 output           time unit                     : ps
 output         charge unit                     : e
 output           spin unit                     : hbar/2
 output         energy unit                     : eV
 output          force unit                     : eV/A
 output       velocity unit                     : A/ps
 output       pressure unit                     : GPa
 output     inv_length unit                     : 1/A
 output      frequency unit                     : cm-1
 output force constant unit                     : eV/A**2
 output         volume unit                     : A**3
 output   IR intensity unit                     : (D/A)**2/amu
 output         dipole unit                     : D
 output         efield unit                     : eV/A/e
 output        entropy unit                     : J/mol/K
  
 wavefunctions paging                           : none
 random number generator seed                   : randomised (122344221)
 data distribution                              : optimal for this architecture
 optimization strategy                          : maximize speed(+++)

 *********************** Exchange-Correlation Parameters ***********************
  
 using functional                               : Perdew Burke Ernzerhof
 relativistic treatment                         : Koelling-Harmon
 DFT+D: Semi-empirical dispersion correction    : off

 ************************* Pseudopotential Parameters **************************
  
 pseudopotential representation                 : reciprocal space
 <beta|phi> representation                      : reciprocal space
 spin-orbit coupling                            : off

 **************************** Basis Set Parameters *****************************
  
 plane wave basis set cut-off                   :  1200.0000   eV
 size of standard grid                          :     2.0000
 size of   fine   gmax                          :    35.4943   1/A
 finite basis set correction                    : automatic
 number of sample energies                      :          3
           sample  spacing                      :     5.0000   eV

 **************************** Electronic Parameters ****************************
  
 number of  electrons                           :  16.00    
 net charge of system                           :  0.000    
 treating system as non-spin-polarized
 number of bands                                :          8

 ********************* Electronic Minimization Parameters **********************
  
 Method: Treating system as non-metallic,
         and number of  SD  steps               :          1
         and number of  CG  steps               :          4
  
 total energy / atom convergence tol.           : 0.1000E-10   eV
 eigen-energy convergence tolerance             : 0.2000E-10   eV
 max force / atom convergence tol.              : ignored
 convergence tolerance window                   :          3   cycles
 max. number of SCF cycles                      :        100
 periodic dipole correction                     : NONE

 ************************** Density Mixing Parameters **************************
  
 density-mixing scheme                          : Broyden
 max. length of mixing history                  :         20
 charge density mixing amplitude                : 0.8000    
 cut-off energy for mixing                      :  1200.       eV

 *********************** Population Analysis Parameters ************************
  
 Population analysis with cutoff                :  3.000       A
 Population analysis output                     : summary and pdos components

 ****************************** Phonon Parameters ******************************
  
 phonon calculation method                      : linear response
 phonon convergence tolerance                   : 0.1000E-04   eV/A**2
 max. number of phonon cycles                   :         50
 max. number of phonon CG steps                 :          0
 convergence tolerance window                   :          2   cycles
 DFPT solver method                             : AllBands (Gonze variational method)
 preconditioning scheme                         : TPA     
 fine phonon calculation method                 : interpolation
 non-periodic force constant method             : Weighted cumulant sum
 LO/TO splitting term                           : included
 acoustic phonon sum rule                       : correct D(q) in recip-space
 Born effective charges                         : calculated
 Born charge sum rule                           : explicitly enforced
 Raman intensities                              : calculated
 Raman frequency window start                   :  0.000       eV
 Raman frequency window stop                    :  1.000       eV
 Raman tensor calculated using                  : finite displacement method
 phonon k-points                                : use reduced set
 phonon DOS                                     : not calculated
 backups results every                          :      14400   seconds
 band convergence tolerance                     : 0.1000E-08   eV

 *******************************************************************************
  

                           -------------------------------
                                      Unit Cell
                           -------------------------------
        Real Lattice(A)                      Reciprocal Lattice(1/A)
     2.9114770     0.0000000     0.0000000        2.158074887  -0.000000000   0.000000000
     0.0000000     2.9011300     0.0000000       -0.000000000   2.165771732   0.000000000
     0.0000000     0.0000000     5.7493469        0.000000000   0.000000000   1.092852017

                       Lattice parameters(A)       Cell Angles
                    a =      2.911477          alpha =   90.000000
                    b =      2.901130          beta  =   90.000000
                    c =      5.749347          gamma =   90.000000

                       Current cell volume =            48.562278       A**3
                                   density =             0.332090   AMU/A**3
                                           =             0.551448     g/cm^3

                           -------------------------------
                                     Cell Contents
                           -------------------------------
                         Total number of ions in cell =   16
                      Total number of species in cell =    1
                        Max number of any one species =   16

            xxxxxxxxxxxxxxxxxxxxxxxxxxxxxxxxxxxxxxxxxxxxxxxxxxxxxxxxxxxx
            x  Element    Atom        Fractional coordinates of atoms  x
            x            Number           u          v          w      x
            x----------------------------------------------------------x
            x  H            1         0.429381   0.394964   0.000000   x 
            x  H            2        -0.429381   0.394964   0.500000   x 
            x  H            3         0.429381  -0.394964   0.500000   x 
            x  H            4        -0.429381  -0.394964   0.000000   x 
            x  H            5         0.374074  -0.000000   0.250000   x 
            x  H            6        -0.374074   0.000000   0.750000   x 
            x  H            7         0.374074  -0.000000   0.750000   x 
            x  H            8        -0.374074   0.000000   0.250000   x 
            x  H            9         0.929381   0.894964   0.500000   x 
            x  H           10        -0.929381   0.894964   0.000000   x 
            x  H           11         0.929381  -0.894964   0.000000   x 
            x  H           12        -0.929381  -0.894964   0.500000   x 
            x  H           13         0.874074   0.500000   0.750000   x 
            x  H           14        -0.874074   0.500000   0.250000   x 
            x  H           15         0.874074   0.500000   0.250000   x 
            x  H           16        -0.874074   0.500000   0.750000   x 
            xxxxxxxxxxxxxxxxxxxxxxxxxxxxxxxxxxxxxxxxxxxxxxxxxxxxxxxxxxxx


                         No user defined ionic velocities

                           -------------------------------
                                   Details of Species
                           -------------------------------

                               Mass of species in AMU
                                    H    1.0079400

                          Electric Quadrupole Moment (Barn)
                                    H    0.0028600 Isotope  2

                          Files used for pseudopotentials:
                                    H 0|0.7|2|6|8|10L(qc=10)

                           -------------------------------
                              k-Points For BZ Sampling
                           -------------------------------
                       MP grid size for SCF calculation is  8  8  8
                            with an offset of   0.000  0.000  0.000
                       Number of kpoints used =            64

                           -------------------------------
                               Symmetry and Constraints
                           -------------------------------

                      Cell is a supercell containing 2 primitive cells
                      Maximum deviation from symmetry = 0.322090E-14     ANG

                      Number of symmetry operations   =          16
                      Number of ionic constraints     =           3
                      Point group of crystal =     8: D2h, mmm, 2/m 2/m 2/m
                      Space group of crystal =    72: Ibam, -I 2 2c

             Set iprint > 1 for details on symmetry rotations/translations

                         Centre of mass is constrained
             Set iprint > 1 for details of linear ionic constraints

                         Number of cell constraints= 3
                         Cell constraints are:  1 2 3 0 0 0

                         External pressure/stress (GPa)
                         50.00000   0.00000   0.00000
                                   50.00000   0.00000
                                             50.00000
  
+---------------- MEMORY AND SCRATCH DISK ESTIMATES PER PROCESS --------------+
|                                                     Memory          Disk    |
| Baseline code, static data and system overhead      415.0 MB         0.0 MB |
| BLAS internal memory storage                          0.0 MB         0.0 MB |
| Model and support data                               39.2 MB         0.0 MB |
| Electronic energy minimisation requirements          24.2 MB         0.0 MB |
| Force calculation requirements                       10.7 MB         0.0 MB |
| Stress calculation requirements                      13.5 MB         0.0 MB |
|                                               ----------------------------- |
| Approx. total storage required per process          478.4 MB         0.0 MB |
|                                                                             |
| Requirements will fluctuate during execution and may exceed these estimates |
+-----------------------------------------------------------------------------+
Calculating finite basis set correction with  3 cut-off energies.
Calculating total energy with cut-off of 1190.000 eV.
------------------------------------------------------------------------ <-- SCF
SCF loop      Energy                           Energy gain       Timer   <-- SCF
                                               per atom          (sec)   <-- SCF
------------------------------------------------------------------------ <-- SCF
Initial   4.18140463E+002                                          1.83  <-- SCF
      1  -1.99051291E+002                    3.85744846E+001       2.31  <-- SCF
      2  -2.47927892E+002                    3.05478755E+000       2.64  <-- SCF
      3  -2.48839268E+002                    5.69609925E-002       2.92  <-- SCF
      4  -2.47158726E+002                   -1.05033858E-001       3.56  <-- SCF
      5  -2.47105414E+002                   -3.33200581E-003       4.19  <-- SCF
      6  -2.47108113E+002                    1.68669941E-004       4.82  <-- SCF
      7  -2.47108430E+002                    1.97888517E-005       5.45  <-- SCF
      8  -2.47108431E+002                    7.24846618E-008       6.08  <-- SCF
      9  -2.47108431E+002                    6.24364688E-009       6.72  <-- SCF
     10  -2.47108431E+002                    1.87759546E-011       7.22  <-- SCF
     11  -2.47108431E+002                    2.24163448E-012       7.73  <-- SCF
     12  -2.47108431E+002                   -8.15689097E-014       8.23  <-- SCF
------------------------------------------------------------------------ <-- SCF
 
Final energy =  -247.1084308421     eV
(energy not corrected for finite basis set)
 
Calculating total energy with cut-off of 1195.000 eV.
------------------------------------------------------------------------ <-- SCF
SCF loop      Energy                           Energy gain       Timer   <-- SCF
                                               per atom          (sec)   <-- SCF
------------------------------------------------------------------------ <-- SCF
Initial  -2.47108431E+002                                          8.73  <-- SCF
      1  -2.47109565E+002                    7.08848820E-005       9.09  <-- SCF
      2  -2.47109565E+002                    7.51793451E-011       9.71  <-- SCF
      3  -2.47109566E+002                    3.54004688E-008      10.34  <-- SCF
      4  -2.47109566E+002                    2.18445770E-009      10.97  <-- SCF
      5  -2.47109566E+002                    2.90173844E-011      11.50  <-- SCF
      6  -2.47109566E+002                    1.12685938E-012      12.01  <-- SCF
      7  -2.47109566E+002                    3.86697053E-013      12.52  <-- SCF
------------------------------------------------------------------------ <-- SCF
 
Final energy =  -247.1095656033     eV
(energy not corrected for finite basis set)
 
Calculating total energy with cut-off of 1200.000 eV.
------------------------------------------------------------------------ <-- SCF
SCF loop      Energy                           Energy gain       Timer   <-- SCF
                                               per atom          (sec)   <-- SCF
------------------------------------------------------------------------ <-- SCF
Initial  -2.47109566E+002                                         13.02  <-- SCF
      1  -2.47110655E+002                    6.80704132E-005      13.38  <-- SCF
      2  -2.47110655E+002                    7.26567510E-011      14.01  <-- SCF
      3  -2.47110655E+002                    3.33758166E-008      14.64  <-- SCF
      4  -2.47110655E+002                    1.98905484E-009      15.27  <-- SCF
      5  -2.47110655E+002                    2.69872248E-011      15.80  <-- SCF
      6  -2.47110655E+002                    9.27468714E-013      16.33  <-- SCF
      7  -2.47110655E+002                    5.64940226E-013      16.83  <-- SCF
------------------------------------------------------------------------ <-- SCF
 
Final energy =  -247.1106552973     eV
(energy not corrected for finite basis set)
 
 For future reference: finite basis dEtot/dlog(Ecut) =      -0.267380eV
 Total energy corrected for finite basis set =    -247.110665 eV

 Efield perturbation    1:  X                                            19.04s
  +---------------- MEMORY AND SCRATCH DISK ESTIMATES PER PROCESS --------------+
  |                                                     Memory          Disk    |
  | Baseline code, static data and system overhead      415.0 MB         0.0 MB |
  | BLAS internal memory storage                          0.0 MB         0.0 MB |
  | Model and support data                               40.3 MB         0.0 MB |
  | DFPT E-field response requirements                   24.7 MB         0.0 MB |
  |                                               ----------------------------- |
  | Approx. total storage required per process          480.0 MB         0.0 MB |
  |                                                                             |
  | Requirements will fluctuate during execution and may exceed these estimates |
  +-----------------------------------------------------------------------------+

 Efield perturbation    2:  Y                                            30.62s

 Efield perturbation    3:  Z                                            42.09s
 Perturbation    1 (of    6): H     1 X at q=( 0.000, 0.000, 0.000):     53.43s
  Parallel strategy changed for perturbation using 128 k-points
  Data is distributed by G-vector(1-way) and k-point(16-way) and band(1-way)
  +---------------- MEMORY AND SCRATCH DISK ESTIMATES PER PROCESS --------------+
  |                                                     Memory          Disk    |
  | Baseline code, static data and system overhead      415.0 MB         0.0 MB |
  | BLAS internal memory storage                          0.0 MB         0.0 MB |
  | Model and support data                               40.3 MB         0.0 MB |
  | DFPT phonon calculation requirements                 54.2 MB         0.0 MB |
  |                                               ----------------------------- |
  | Approx. total storage required per process          509.4 MB         0.0 MB |
  |                                                                             |
  | Requirements will fluctuate during execution and may exceed these estimates |
  +-----------------------------------------------------------------------------+
 Perturbation    2 (of    6): H     5 X at q=( 0.000, 0.000, 0.000):     72.50s
 Perturbation    3 (of    6): H     1 Y at q=( 0.000, 0.000, 0.000):     90.26s
 Perturbation    4 (of    6): H     5 Y at q=( 0.000, 0.000, 0.000):    107.64s
  Parallel strategy changed for perturbation using 256 k-points
  Data is distributed by G-vector(1-way) and k-point(16-way) and band(1-way)
  +---------------- MEMORY AND SCRATCH DISK ESTIMATES PER PROCESS --------------+
  |                                                     Memory          Disk    |
  | Baseline code, static data and system overhead      415.0 MB         0.0 MB |
  | BLAS internal memory storage                          0.0 MB         0.0 MB |
  | Model and support data                               40.3 MB         0.0 MB |
  | DFPT phonon calculation requirements                 99.2 MB         0.0 MB |
  |                                               ----------------------------- |
  | Approx. total storage required per process          554.4 MB         0.0 MB |
  |                                                                             |
  | Requirements will fluctuate during execution and may exceed these estimates |
  +-----------------------------------------------------------------------------+
 Perturbation    5 (of    6): H     1 Z at q=( 0.000, 0.000, 0.000):    134.83s
 Perturbation    6 (of    6): H     5 Z at q=( 0.000, 0.000, 0.000):    159.39s

 Phonon calculation: q-point   1 (of   27) (-0.400,-0.400,-0.400):      183.89s
 -------------------------------------------------------------------------------
 Perturbation    1 (of   12): H     1 X at q=(-0.400,-0.400,-0.400):    184.01s
  Parallel strategy changed for perturbation using 512 k-points
  Data is distributed by G-vector(1-way) and k-point(16-way) and band(1-way)
  +---------------- MEMORY AND SCRATCH DISK ESTIMATES PER PROCESS --------------+
  |                                                     Memory          Disk    |
  | Baseline code, static data and system overhead      415.0 MB         0.0 MB |
  | BLAS internal memory storage                          0.0 MB         0.0 MB |
  | Model and support data                               40.3 MB         0.0 MB |
  | DFPT phonon calculation requirements                189.2 MB         0.0 MB |
  |                                               ----------------------------- |
  | Approx. total storage required per process          644.5 MB         0.0 MB |
  |                                                                             |
  | Requirements will fluctuate during execution and may exceed these estimates |
  +-----------------------------------------------------------------------------+
 Perturbation    2 (of   12): H     2 X at q=(-0.400,-0.400,-0.400):    259.46s
 Perturbation    3 (of   12): H     5 X at q=(-0.400,-0.400,-0.400):    308.98s
 Perturbation    4 (of   12): H     7 X at q=(-0.400,-0.400,-0.400):    358.54s
 Perturbation    5 (of   12): H     1 Y at q=(-0.400,-0.400,-0.400):    408.38s
 Perturbation    6 (of   12): H     2 Y at q=(-0.400,-0.400,-0.400):    457.70s
 Perturbation    7 (of   12): H     5 Y at q=(-0.400,-0.400,-0.400):    507.03s
 Perturbation    8 (of   12): H     7 Y at q=(-0.400,-0.400,-0.400):    556.26s
 Perturbation    9 (of   12): H     1 Z at q=(-0.400,-0.400,-0.400):    605.32s
 Perturbation   10 (of   12): H     2 Z at q=(-0.400,-0.400,-0.400):    650.37s
 Perturbation   11 (of   12): H     5 Z at q=(-0.400,-0.400,-0.400):    695.36s
 Perturbation   12 (of   12): H     7 Z at q=(-0.400,-0.400,-0.400):    740.33s

 Phonon calculation: q-point   2 (of   27) (-0.400,-0.400,-0.200):      785.20s
 -------------------------------------------------------------------------------
 Perturbation    1 (of   12): H     1 X at q=(-0.400,-0.400,-0.200):    785.33s
  Parallel strategy changed for perturbation using 512 k-points
  Data is distributed by G-vector(1-way) and k-point(16-way) and band(1-way)
  +---------------- MEMORY AND SCRATCH DISK ESTIMATES PER PROCESS --------------+
  |                                                     Memory          Disk    |
  | Baseline code, static data and system overhead      415.0 MB         0.0 MB |
  | BLAS internal memory storage                          0.0 MB         0.0 MB |
  | Model and support data                               40.3 MB         0.0 MB |
  | DFPT phonon calculation requirements                189.3 MB         0.0 MB |
  |                                               ----------------------------- |
  | Approx. total storage required per process          644.5 MB         0.0 MB |
  |                                                                             |
  | Requirements will fluctuate during execution and may exceed these estimates |
  +-----------------------------------------------------------------------------+
 Perturbation    2 (of   12): H     2 X at q=(-0.400,-0.400,-0.200):    861.36s
 Perturbation    3 (of   12): H     5 X at q=(-0.400,-0.400,-0.200):    910.93s
 Perturbation    4 (of   12): H     7 X at q=(-0.400,-0.400,-0.200):    960.55s
 Perturbation    5 (of   12): H     1 Y at q=(-0.400,-0.400,-0.200):   1010.13s
 Perturbation    6 (of   12): H     2 Y at q=(-0.400,-0.400,-0.200):   1059.51s
 Perturbation    7 (of   12): H     5 Y at q=(-0.400,-0.400,-0.200):   1108.85s
 Perturbation    8 (of   12): H     7 Y at q=(-0.400,-0.400,-0.200):   1158.15s
 Perturbation    9 (of   12): H     1 Z at q=(-0.400,-0.400,-0.200):   1207.38s
 Perturbation   10 (of   12): H     2 Z at q=(-0.400,-0.400,-0.200):   1252.52s
 Perturbation   11 (of   12): H     5 Z at q=(-0.400,-0.400,-0.200):   1297.52s
 Perturbation   12 (of   12): H     7 Z at q=(-0.400,-0.400,-0.200):   1342.50s

 Phonon calculation: q-point   3 (of   27) (-0.400,-0.200, 0.000):     1387.41s
 -------------------------------------------------------------------------------
 Perturbation    1 (of    9): H     1 X at q=(-0.400,-0.200, 0.000):   1387.54s
  Parallel strategy changed for perturbation using 256 k-points
  Data is distributed by G-vector(1-way) and k-point(16-way) and band(1-way)
 Perturbation    2 (of    9): H     2 X at q=(-0.400,-0.200, 0.000):   1428.41s
 Perturbation    3 (of    9): H     5 X at q=(-0.400,-0.200, 0.000):   1456.21s
  Parallel strategy changed for perturbation using 512 k-points
  Data is distributed by G-vector(1-way) and k-point(16-way) and band(1-way)
 Perturbation    4 (of    9): H     1 Y at q=(-0.400,-0.200, 0.000):   1536.10s
  Parallel strategy changed for perturbation using 256 k-points
  Data is distributed by G-vector(1-way) and k-point(16-way) and band(1-way)
 Perturbation    5 (of    9): H     2 Y at q=(-0.400,-0.200, 0.000):   1577.00s
 Perturbation    6 (of    9): H     5 Y at q=(-0.400,-0.200, 0.000):   1604.49s
  Parallel strategy changed for perturbation using 512 k-points
  Data is distributed by G-vector(1-way) and k-point(16-way) and band(1-way)
 Perturbation    7 (of    9): H     1 Z at q=(-0.400,-0.200, 0.000):   1679.70s
 Perturbation    8 (of    9): H     2 Z at q=(-0.400,-0.200, 0.000):   1724.91s
 Perturbation    9 (of    9): H     5 Z at q=(-0.400,-0.200, 0.000):   1770.14s

 Phonon calculation: q-point   4 (of   27) (-0.400, 0.000,-0.200):     1819.34s
 -------------------------------------------------------------------------------
 Perturbation    1 (of    6): H     1 X at q=(-0.400, 0.000,-0.200):   1819.45s
  Parallel strategy changed for perturbation using 512 k-points
  Data is distributed by G-vector(1-way) and k-point(16-way) and band(1-way)
 Perturbation    2 (of    6): H     5 X at q=(-0.400, 0.000,-0.200):   1895.54s
 Perturbation    3 (of    6): H     1 Y at q=(-0.400, 0.000,-0.200):   1949.33s
 Perturbation    4 (of    6): H     5 Y at q=(-0.400, 0.000,-0.200):   1998.87s
 Perturbation    5 (of    6): H     1 Z at q=(-0.400, 0.000,-0.200):   2071.01s
 Perturbation    6 (of    6): H     5 Z at q=(-0.400, 0.000,-0.200):   2165.64s

 Phonon calculation: q-point   5 (of   27) (-0.400, 0.000, 0.000):     2262.23s
 -------------------------------------------------------------------------------
 Perturbation    1 (of    6): H     1 X at q=(-0.400, 0.000, 0.000):   2262.43s
  Parallel strategy changed for perturbation using 256 k-points
  Data is distributed by G-vector(1-way) and k-point(16-way) and band(1-way)
 Perturbation    2 (of    6): H     5 X at q=(-0.400, 0.000, 0.000):   2346.67s
 Perturbation    3 (of    6): H     1 Y at q=(-0.400, 0.000, 0.000):   2436.54s
 Perturbation    4 (of    6): H     5 Y at q=(-0.400, 0.000, 0.000):   2520.26s
  Parallel strategy changed for perturbation using 512 k-points
  Data is distributed by G-vector(1-way) and k-point(16-way) and band(1-way)
 Perturbation    5 (of    6): H     1 Z at q=(-0.400, 0.000, 0.000):   2665.34s
 Perturbation    6 (of    6): H     5 Z at q=(-0.400, 0.000, 0.000):   2760.59s

 Phonon calculation: q-point   6 (of   27) (-0.400, 0.200,-0.400):     2854.40s
 -------------------------------------------------------------------------------
 Perturbation    1 (of   12): H     1 X at q=(-0.400, 0.200,-0.400):   2854.60s
  Parallel strategy changed for perturbation using 512 k-points
  Data is distributed by G-vector(1-way) and k-point(16-way) and band(1-way)
 Perturbation    2 (of   12): H     2 X at q=(-0.400, 0.200,-0.400):   3009.15s
 Perturbation    3 (of   12): H     5 X at q=(-0.400, 0.200,-0.400):   3115.65s
 Perturbation    4 (of   12): H     7 X at q=(-0.400, 0.200,-0.400):   3227.62s
 Perturbation    5 (of   12): H     1 Y at q=(-0.400, 0.200,-0.400):   3340.59s
 Perturbation    6 (of   12): H     2 Y at q=(-0.400, 0.200,-0.400):   3447.67s
 Perturbation    7 (of   12): H     5 Y at q=(-0.400, 0.200,-0.400):   3560.10s
 Perturbation    8 (of   12): H     7 Y at q=(-0.400, 0.200,-0.400):   3663.76s
 Perturbation    9 (of   12): H     1 Z at q=(-0.400, 0.200,-0.400):   3768.26s
 Perturbation   10 (of   12): H     2 Z at q=(-0.400, 0.200,-0.400):   3873.95s
 Perturbation   11 (of   12): H     5 Z at q=(-0.400, 0.200,-0.400):   3977.61s
 Perturbation   12 (of   12): H     7 Z at q=(-0.400, 0.200,-0.400):   4081.13s

 Phonon calculation: q-point   7 (of   27) (-0.400, 0.200,-0.200):     4186.43s
 -------------------------------------------------------------------------------
 Perturbation    1 (of   12): H     1 X at q=(-0.400, 0.200,-0.200):   4186.62s
  Parallel strategy changed for perturbation using 512 k-points
  Data is distributed by G-vector(1-way) and k-point(16-way) and band(1-way)
 Perturbation    2 (of   12): H     2 X at q=(-0.400, 0.200,-0.200):   4342.69s
 Perturbation    3 (of   12): H     5 X at q=(-0.400, 0.200,-0.200):   4448.04s
 Perturbation    4 (of   12): H     7 X at q=(-0.400, 0.200,-0.200):   4561.89s
 Perturbation    5 (of   12): H     1 Y at q=(-0.400, 0.200,-0.200):   4678.11s
 Perturbation    6 (of   12): H     2 Y at q=(-0.400, 0.200,-0.200):   4782.05s
 Perturbation    7 (of   12): H     5 Y at q=(-0.400, 0.200,-0.200):   4886.59s
 Perturbation    8 (of   12): H     7 Y at q=(-0.400, 0.200,-0.200):   4990.05s
 Perturbation    9 (of   12): H     1 Z at q=(-0.400, 0.200,-0.200):   5094.31s
 Perturbation   10 (of   12): H     2 Z at q=(-0.400, 0.200,-0.200):   5198.74s
 Perturbation   11 (of   12): H     5 Z at q=(-0.400, 0.200,-0.200):   5307.15s
 Perturbation   12 (of   12): H     7 Z at q=(-0.400, 0.200,-0.200):   5412.19s

 Phonon calculation: q-point   8 (of   27) (-0.200,-0.400, 0.000):     5514.39s
 -------------------------------------------------------------------------------
 Perturbation    1 (of    9): H     1 X at q=(-0.200,-0.400, 0.000):   5514.58s
  Parallel strategy changed for perturbation using 256 k-points
  Data is distributed by G-vector(1-way) and k-point(16-way) and band(1-way)
 Perturbation    2 (of    9): H     2 X at q=(-0.200,-0.400, 0.000):   5598.30s
 Perturbation    3 (of    9): H     5 X at q=(-0.200,-0.400, 0.000):   5655.96s
  Parallel strategy changed for perturbation using 512 k-points
  Data is distributed by G-vector(1-way) and k-point(16-way) and band(1-way)
 Perturbation    4 (of    9): H     1 Y at q=(-0.200,-0.400, 0.000):   5811.96s
  Parallel strategy changed for perturbation using 256 k-points
  Data is distributed by G-vector(1-way) and k-point(16-way) and band(1-way)
 Perturbation    5 (of    9): H     2 Y at q=(-0.200,-0.400, 0.000):   5894.77s
 Perturbation    6 (of    9): H     5 Y at q=(-0.200,-0.400, 0.000):   5951.94s
  Parallel strategy changed for perturbation using 512 k-points
  Data is distributed by G-vector(1-way) and k-point(16-way) and band(1-way)
 Perturbation    7 (of    9): H     1 Z at q=(-0.200,-0.400, 0.000):   6106.95s
 Perturbation    8 (of    9): H     2 Z at q=(-0.200,-0.400, 0.000):   6202.58s
 Perturbation    9 (of    9): H     5 Z at q=(-0.200,-0.400, 0.000):   6300.55s

 Phonon calculation: q-point   9 (of   27) (-0.200,-0.400, 0.200):     6408.59s
 -------------------------------------------------------------------------------
 Perturbation    1 (of   12): H     1 X at q=(-0.200,-0.400, 0.200):   6408.78s
  Parallel strategy changed for perturbation using 512 k-points
  Data is distributed by G-vector(1-way) and k-point(16-way) and band(1-way)
  +---------------- MEMORY AND SCRATCH DISK ESTIMATES PER PROCESS --------------+
  |                                                     Memory          Disk    |
  | Baseline code, static data and system overhead      415.0 MB         0.0 MB |
  | BLAS internal memory storage                          0.0 MB         0.0 MB |
  | Model and support data                               40.3 MB         0.0 MB |
  | DFPT phonon calculation requirements                189.4 MB         0.0 MB |
  |                                               ----------------------------- |
  | Approx. total storage required per process          644.6 MB         0.0 MB |
  |                                                                             |
  | Requirements will fluctuate during execution and may exceed these estimates |
  +-----------------------------------------------------------------------------+
 Perturbation    2 (of   12): H     2 X at q=(-0.200,-0.400, 0.200):   6565.82s
 Perturbation    3 (of   12): H     5 X at q=(-0.200,-0.400, 0.200):   6673.33s
 Perturbation    4 (of   12): H     7 X at q=(-0.200,-0.400, 0.200):   6780.78s
 Perturbation    5 (of   12): H     1 Y at q=(-0.200,-0.400, 0.200):   6887.03s
 Perturbation    6 (of   12): H     2 Y at q=(-0.200,-0.400, 0.200):   6993.84s
 Perturbation    7 (of   12): H     5 Y at q=(-0.200,-0.400, 0.200):   7101.40s
 Perturbation    8 (of   12): H     7 Y at q=(-0.200,-0.400, 0.200):   7204.72s
 Perturbation    9 (of   12): H     1 Z at q=(-0.200,-0.400, 0.200):   7308.85s
 Perturbation   10 (of   12): H     2 Z at q=(-0.200,-0.400, 0.200):   7412.40s
 Perturbation   11 (of   12): H     5 Z at q=(-0.200,-0.400, 0.200):   7517.04s
 Perturbation   12 (of   12): H     7 Z at q=(-0.200,-0.400, 0.200):   7620.92s

 Phonon calculation: q-point  10 (of   27) (-0.200,-0.400, 0.400):     7725.31s
 -------------------------------------------------------------------------------
 Perturbation    1 (of   12): H     1 X at q=(-0.200,-0.400, 0.400):   7725.51s
  Parallel strategy changed for perturbation using 512 k-points
  Data is distributed by G-vector(1-way) and k-point(16-way) and band(1-way)
 Perturbation    2 (of   12): H     2 X at q=(-0.200,-0.400, 0.400):   7879.56s
 Perturbation    3 (of   12): H     5 X at q=(-0.200,-0.400, 0.400):   7983.47s
 Perturbation    4 (of   12): H     7 X at q=(-0.200,-0.400, 0.400):   8098.33s
 Perturbation    5 (of   12): H     1 Y at q=(-0.200,-0.400, 0.400):   8210.46s
 Perturbation    6 (of   12): H     2 Y at q=(-0.200,-0.400, 0.400):   8318.88s
 Perturbation    7 (of   12): H     5 Y at q=(-0.200,-0.400, 0.400):   8421.28s
 Perturbation    8 (of   12): H     7 Y at q=(-0.200,-0.400, 0.400):   8519.54s
 Perturbation    9 (of   12): H     1 Z at q=(-0.200,-0.400, 0.400):   8617.69s
 Perturbation   10 (of   12): H     2 Z at q=(-0.200,-0.400, 0.400):   8717.28s
 Perturbation   11 (of   12): H     5 Z at q=(-0.200,-0.400, 0.400):   8815.34s
 Perturbation   12 (of   12): H     7 Z at q=(-0.200,-0.400, 0.400):   8912.40s

 Phonon calculation: q-point  11 (of   27) (-0.200,-0.200,-0.200):     9010.92s
 -------------------------------------------------------------------------------
 Perturbation    1 (of   12): H     1 X at q=(-0.200,-0.200,-0.200):   9011.11s
  Parallel strategy changed for perturbation using 512 k-points
  Data is distributed by G-vector(1-way) and k-point(16-way) and band(1-way)
 Perturbation    2 (of   12): H     2 X at q=(-0.200,-0.200,-0.200):   9166.45s
 Perturbation    3 (of   12): H     5 X at q=(-0.200,-0.200,-0.200):   9275.06s
 Perturbation    4 (of   12): H     7 X at q=(-0.200,-0.200,-0.200):   9382.55s
 Perturbation    5 (of   12): H     1 Y at q=(-0.200,-0.200,-0.200):   9490.38s
 Perturbation    6 (of   12): H     2 Y at q=(-0.200,-0.200,-0.200):   9598.35s
 Perturbation    7 (of   12): H     5 Y at q=(-0.200,-0.200,-0.200):   9706.39s
 Perturbation    8 (of   12): H     7 Y at q=(-0.200,-0.200,-0.200):   9806.96s
 Perturbation    9 (of   12): H     1 Z at q=(-0.200,-0.200,-0.200):   9907.57s
 Perturbation   10 (of   12): H     2 Z at q=(-0.200,-0.200,-0.200):  10005.73s
 Perturbation   11 (of   12): H     5 Z at q=(-0.200,-0.200,-0.200):  10104.77s
 Perturbation   12 (of   12): H     7 Z at q=(-0.200,-0.200,-0.200):  10201.81s

 Phonon calculation: q-point  12 (of   27) (-0.200,-0.200, 0.000):    10296.58s
 -------------------------------------------------------------------------------
 Perturbation    1 (of    9): H     1 X at q=(-0.200,-0.200, 0.000):  10296.81s
  Parallel strategy changed for perturbation using 256 k-points
  Data is distributed by G-vector(1-way) and k-point(16-way) and band(1-way)
 Perturbation    2 (of    9): H     2 X at q=(-0.200,-0.200, 0.000):  10373.77s
 Perturbation    3 (of    9): H     5 X at q=(-0.200,-0.200, 0.000):  10426.67s
  Parallel strategy changed for perturbation using 512 k-points
  Data is distributed by G-vector(1-way) and k-point(16-way) and band(1-way)
 Perturbation    4 (of    9): H     1 Y at q=(-0.200,-0.200, 0.000):  10583.35s
  Parallel strategy changed for perturbation using 256 k-points
  Data is distributed by G-vector(1-way) and k-point(16-way) and band(1-way)
 Perturbation    5 (of    9): H     2 Y at q=(-0.200,-0.200, 0.000):  10667.61s
 Perturbation    6 (of    9): H     5 Y at q=(-0.200,-0.200, 0.000):  10709.58s
  Parallel strategy changed for perturbation using 512 k-points
  Data is distributed by G-vector(1-way) and k-point(16-way) and band(1-way)
 Perturbation    7 (of    9): H     1 Z at q=(-0.200,-0.200, 0.000):  10785.35s
 Perturbation    8 (of    9): H     2 Z at q=(-0.200,-0.200, 0.000):  10830.19s
 Perturbation    9 (of    9): H     5 Z at q=(-0.200,-0.200, 0.000):  10874.90s

 Phonon calculation: q-point  13 (of   27) (-0.200,-0.200, 0.400):    10923.64s
 -------------------------------------------------------------------------------
 Perturbation    1 (of   12): H     1 X at q=(-0.200,-0.200, 0.400):  10923.76s
  Parallel strategy changed for perturbation using 512 k-points
  Data is distributed by G-vector(1-way) and k-point(16-way) and band(1-way)
 Perturbation    2 (of   12): H     2 X at q=(-0.200,-0.200, 0.400):  10999.60s
 Perturbation    3 (of   12): H     5 X at q=(-0.200,-0.200, 0.400):  11048.92s
 Perturbation    4 (of   12): H     7 X at q=(-0.200,-0.200, 0.400):  11102.65s
 Perturbation    5 (of   12): H     1 Y at q=(-0.200,-0.200, 0.400):  11155.88s
 Perturbation    6 (of   12): H     2 Y at q=(-0.200,-0.200, 0.400):  11209.03s
 Perturbation    7 (of   12): H     5 Y at q=(-0.200,-0.200, 0.400):  11262.14s
 Perturbation    8 (of   12): H     7 Y at q=(-0.200,-0.200, 0.400):  11311.22s
 Perturbation    9 (of   12): H     1 Z at q=(-0.200,-0.200, 0.400):  11360.52s
 Perturbation   10 (of   12): H     2 Z at q=(-0.200,-0.200, 0.400):  11409.77s
 Perturbation   11 (of   12): H     5 Z at q=(-0.200,-0.200, 0.400):  11458.89s
 Perturbation   12 (of   12): H     7 Z at q=(-0.200,-0.200, 0.400):  11507.93s

 Phonon calculation: q-point  14 (of   27) (-0.200, 0.000,-0.400):    11556.97s
 -------------------------------------------------------------------------------
 Perturbation    1 (of    6): H     1 X at q=(-0.200, 0.000,-0.400):  11557.09s
  Parallel strategy changed for perturbation using 512 k-points
  Data is distributed by G-vector(1-way) and k-point(16-way) and band(1-way)
 Perturbation    2 (of    6): H     5 X at q=(-0.200, 0.000,-0.400):  11637.16s
 Perturbation    3 (of    6): H     1 Y at q=(-0.200, 0.000,-0.400):  11690.38s
 Perturbation    4 (of    6): H     5 Y at q=(-0.200, 0.000,-0.400):  11743.58s
 Perturbation    5 (of    6): H     1 Z at q=(-0.200, 0.000,-0.400):  11792.63s
 Perturbation    6 (of    6): H     5 Z at q=(-0.200, 0.000,-0.400):  11841.56s

 Phonon calculation: q-point  15 (of   27) (-0.200, 0.000,-0.200):    11890.56s
 -------------------------------------------------------------------------------
 Perturbation    1 (of    6): H     1 X at q=(-0.200, 0.000,-0.200):  11890.69s
  Parallel strategy changed for perturbation using 512 k-points
  Data is distributed by G-vector(1-way) and k-point(16-way) and band(1-way)
 Perturbation    2 (of    6): H     5 X at q=(-0.200, 0.000,-0.200):  11970.44s
 Perturbation    3 (of    6): H     1 Y at q=(-0.200, 0.000,-0.200):  12023.67s
 Perturbation    4 (of    6): H     5 Y at q=(-0.200, 0.000,-0.200):  12076.82s
 Perturbation    5 (of    6): H     1 Z at q=(-0.200, 0.000,-0.200):  12125.87s
 Perturbation    6 (of    6): H     5 Z at q=(-0.200, 0.000,-0.200):  12174.76s

 Phonon calculation: q-point  16 (of   27) (-0.200, 0.000, 0.000):    12223.54s
 -------------------------------------------------------------------------------
 Perturbation    1 (of    6): H     1 X at q=(-0.200, 0.000, 0.000):  12223.66s
  Parallel strategy changed for perturbation using 256 k-points
  Data is distributed by G-vector(1-way) and k-point(16-way) and band(1-way)
 Perturbation    2 (of    6): H     5 X at q=(-0.200, 0.000, 0.000):  12263.59s
 Perturbation    3 (of    6): H     1 Y at q=(-0.200, 0.000, 0.000):  12307.03s
 Perturbation    4 (of    6): H     5 Y at q=(-0.200, 0.000, 0.000):  12350.09s
  Parallel strategy changed for perturbation using 512 k-points
  Data is distributed by G-vector(1-way) and k-point(16-way) and band(1-way)
 Perturbation    5 (of    6): H     1 Z at q=(-0.200, 0.000, 0.000):  12424.80s
 Perturbation    6 (of    6): H     5 Z at q=(-0.200, 0.000, 0.000):  12469.59s

 Phonon calculation: q-point  17 (of   27) ( 0.000, 0.000, 0.000):    12514.40s
 -------------------------------------------------------------------------------

 Phonon calculation: q-point  18 (of   27) ( 0.000, 0.000, 0.200):    12514.40s
 -------------------------------------------------------------------------------
 Perturbation    1 (of    6): H     1 X at q=( 0.000, 0.000, 0.200):  12514.53s
  Parallel strategy changed for perturbation using 512 k-points
  Data is distributed by G-vector(1-way) and k-point(16-way) and band(1-way)
 Perturbation    2 (of    6): H     5 X at q=( 0.000, 0.000, 0.200):  12593.92s
 Perturbation    3 (of    6): H     1 Y at q=( 0.000, 0.000, 0.200):  12646.97s
 Perturbation    4 (of    6): H     5 Y at q=( 0.000, 0.000, 0.200):  12700.06s
 Perturbation    5 (of    6): H     1 Z at q=( 0.000, 0.000, 0.200):  12748.99s
 Perturbation    6 (of    6): H     5 Z at q=( 0.000, 0.000, 0.200):  12797.82s

 Phonon calculation: q-point  19 (of   27) ( 0.000, 0.000, 0.400):    12846.63s
 -------------------------------------------------------------------------------
 Perturbation    1 (of    6): H     1 X at q=( 0.000, 0.000, 0.400):  12846.77s
  Parallel strategy changed for perturbation using 512 k-points
  Data is distributed by G-vector(1-way) and k-point(16-way) and band(1-way)
 Perturbation    2 (of    6): H     5 X at q=( 0.000, 0.000, 0.400):  12926.12s
 Perturbation    3 (of    6): H     1 Y at q=( 0.000, 0.000, 0.400):  12979.17s
 Perturbation    4 (of    6): H     5 Y at q=( 0.000, 0.000, 0.400):  13031.97s
 Perturbation    5 (of    6): H     1 Z at q=( 0.000, 0.000, 0.400):  13080.73s
 Perturbation    6 (of    6): H     5 Z at q=( 0.000, 0.000, 0.400):  13129.54s

 Phonon calculation: q-point  20 (of   27) ( 0.000, 0.200,-0.400):    13178.23s
 -------------------------------------------------------------------------------
 Perturbation    1 (of    9): H     1 X at q=( 0.000, 0.200,-0.400):  13178.35s
  Parallel strategy changed for perturbation using 512 k-points
  Data is distributed by G-vector(1-way) and k-point(16-way) and band(1-way)
 Perturbation    2 (of    9): H     5 X at q=( 0.000, 0.200,-0.400):  13254.01s
 Perturbation    3 (of    9): H     7 X at q=( 0.000, 0.200,-0.400):  13307.12s
 Perturbation    4 (of    9): H     1 Y at q=( 0.000, 0.200,-0.400):  13360.15s
 Perturbation    5 (of    9): H     5 Y at q=( 0.000, 0.200,-0.400):  13413.22s
 Perturbation    6 (of    9): H     7 Y at q=( 0.000, 0.200,-0.400):  13462.15s
 Perturbation    7 (of    9): H     1 Z at q=( 0.000, 0.200,-0.400):  13511.08s
 Perturbation    8 (of    9): H     5 Z at q=( 0.000, 0.200,-0.400):  13560.05s
 Perturbation    9 (of    9): H     7 Z at q=( 0.000, 0.200,-0.400):  13608.96s

 Phonon calculation: q-point  21 (of   27) ( 0.000, 0.200,-0.200):    13657.67s
 -------------------------------------------------------------------------------
 Perturbation    1 (of    9): H     1 X at q=( 0.000, 0.200,-0.200):  13657.80s
  Parallel strategy changed for perturbation using 512 k-points
  Data is distributed by G-vector(1-way) and k-point(16-way) and band(1-way)
 Perturbation    2 (of    9): H     5 X at q=( 0.000, 0.200,-0.200):  13733.47s
 Perturbation    3 (of    9): H     7 X at q=( 0.000, 0.200,-0.200):  13786.63s
 Perturbation    4 (of    9): H     1 Y at q=( 0.000, 0.200,-0.200):  13839.83s
 Perturbation    5 (of    9): H     5 Y at q=( 0.000, 0.200,-0.200):  13892.97s
 Perturbation    6 (of    9): H     7 Y at q=( 0.000, 0.200,-0.200):  13941.79s
 Perturbation    7 (of    9): H     1 Z at q=( 0.000, 0.200,-0.200):  13990.72s
 Perturbation    8 (of    9): H     5 Z at q=( 0.000, 0.200,-0.200):  14039.65s
 Perturbation    9 (of    9): H     7 Z at q=( 0.000, 0.200,-0.200):  14088.37s

 Phonon calculation: q-point  22 (of   27) ( 0.000, 0.200, 0.000):    14137.21s
 -------------------------------------------------------------------------------
 Perturbation    1 (of    6): H     1 X at q=( 0.000, 0.200, 0.000):  14137.34s
  Parallel strategy changed for perturbation using 256 k-points
  Data is distributed by G-vector(1-way) and k-point(16-way) and band(1-way)
 Perturbation    2 (of    6): H     5 X at q=( 0.000, 0.200, 0.000):  14178.11s
  Parallel strategy changed for perturbation using 512 k-points
  Data is distributed by G-vector(1-way) and k-point(16-way) and band(1-way)
 Perturbation    3 (of    6): H     1 Y at q=( 0.000, 0.200, 0.000):  14257.20s
  Parallel strategy changed for perturbation using 256 k-points
  Data is distributed by G-vector(1-way) and k-point(16-way) and band(1-way)
 Perturbation    4 (of    6): H     5 Y at q=( 0.000, 0.200, 0.000):  14300.08s
  Parallel strategy changed for perturbation using 512 k-points
  Data is distributed by G-vector(1-way) and k-point(16-way) and band(1-way)
 Perturbation    5 (of    6): H     1 Z at q=( 0.000, 0.200, 0.000):  14375.01s

Writing analysis data to Hibam.castep_bin

Writing model to Hibam.check
 Perturbation    6 (of    6): H     5 Z at q=( 0.000, 0.200, 0.000):  14420.84s

 Phonon calculation: q-point  23 (of   27) ( 0.000, 0.400,-0.400):    14469.57s
 -------------------------------------------------------------------------------
 Perturbation    1 (of    9): H     1 X at q=( 0.000, 0.400,-0.400):  14469.70s
  Parallel strategy changed for perturbation using 512 k-points
  Data is distributed by G-vector(1-way) and k-point(16-way) and band(1-way)
 Perturbation    2 (of    9): H     5 X at q=( 0.000, 0.400,-0.400):  14545.19s
 Perturbation    3 (of    9): H     7 X at q=( 0.000, 0.400,-0.400):  14598.37s
 Perturbation    4 (of    9): H     1 Y at q=( 0.000, 0.400,-0.400):  14651.35s
 Perturbation    5 (of    9): H     5 Y at q=( 0.000, 0.400,-0.400):  14704.37s
 Perturbation    6 (of    9): H     7 Y at q=( 0.000, 0.400,-0.400):  14753.27s
 Perturbation    7 (of    9): H     1 Z at q=( 0.000, 0.400,-0.400):  14802.17s
 Perturbation    8 (of    9): H     5 Z at q=( 0.000, 0.400,-0.400):  14850.88s
 Perturbation    9 (of    9): H     7 Z at q=( 0.000, 0.400,-0.400):  14899.51s

 Phonon calculation: q-point  24 (of   27) ( 0.000, 0.400,-0.200):    14948.02s
 -------------------------------------------------------------------------------
 Perturbation    1 (of    9): H     1 X at q=( 0.000, 0.400,-0.200):  14948.14s
  Parallel strategy changed for perturbation using 512 k-points
  Data is distributed by G-vector(1-way) and k-point(16-way) and band(1-way)
 Perturbation    2 (of    9): H     5 X at q=( 0.000, 0.400,-0.200):  15023.46s
 Perturbation    3 (of    9): H     7 X at q=( 0.000, 0.400,-0.200):  15072.30s
 Perturbation    4 (of    9): H     1 Y at q=( 0.000, 0.400,-0.200):  15121.24s
 Perturbation    5 (of    9): H     5 Y at q=( 0.000, 0.400,-0.200):  15174.29s
 Perturbation    6 (of    9): H     7 Y at q=( 0.000, 0.400,-0.200):  15223.40s
 Perturbation    7 (of    9): H     1 Z at q=( 0.000, 0.400,-0.200):  15272.27s
 Perturbation    8 (of    9): H     5 Z at q=( 0.000, 0.400,-0.200):  15321.05s
 Perturbation    9 (of    9): H     7 Z at q=( 0.000, 0.400,-0.200):  15369.69s

 Phonon calculation: q-point  25 (of   27) ( 0.000, 0.400, 0.000):    15418.33s
 -------------------------------------------------------------------------------
 Perturbation    1 (of    6): H     1 X at q=( 0.000, 0.400, 0.000):  15418.46s
  Parallel strategy changed for perturbation using 256 k-points
  Data is distributed by G-vector(1-way) and k-point(16-way) and band(1-way)
 Perturbation    2 (of    6): H     5 X at q=( 0.000, 0.400, 0.000):  15459.40s
  Parallel strategy changed for perturbation using 512 k-points
  Data is distributed by G-vector(1-way) and k-point(16-way) and band(1-way)
 Perturbation    3 (of    6): H     1 Y at q=( 0.000, 0.400, 0.000):  15534.44s
  Parallel strategy changed for perturbation using 256 k-points
  Data is distributed by G-vector(1-way) and k-point(16-way) and band(1-way)
 Perturbation    4 (of    6): H     5 Y at q=( 0.000, 0.400, 0.000):  15577.28s
  Parallel strategy changed for perturbation using 512 k-points
  Data is distributed by G-vector(1-way) and k-point(16-way) and band(1-way)
 Perturbation    5 (of    6): H     1 Z at q=( 0.000, 0.400, 0.000):  15652.56s
 Perturbation    6 (of    6): H     5 Z at q=( 0.000, 0.400, 0.000):  15697.33s

 Phonon calculation: q-point  26 (of   27) ( 0.400,-0.400, 0.000):    15745.86s
 -------------------------------------------------------------------------------
 Perturbation    1 (of    9): H     1 X at q=( 0.400,-0.400, 0.000):  15746.00s
  Parallel strategy changed for perturbation using 256 k-points
  Data is distributed by G-vector(1-way) and k-point(16-way) and band(1-way)
 Perturbation    2 (of    9): H     2 X at q=( 0.400,-0.400, 0.000):  15786.92s
 Perturbation    3 (of    9): H     5 X at q=( 0.400,-0.400, 0.000):  15814.45s
  Parallel strategy changed for perturbation using 512 k-points
  Data is distributed by G-vector(1-way) and k-point(16-way) and band(1-way)
 Perturbation    4 (of    9): H     1 Y at q=( 0.400,-0.400, 0.000):  15889.92s
  Parallel strategy changed for perturbation using 256 k-points
  Data is distributed by G-vector(1-way) and k-point(16-way) and band(1-way)
 Perturbation    5 (of    9): H     2 Y at q=( 0.400,-0.400, 0.000):  15930.71s
 Perturbation    6 (of    9): H     5 Y at q=( 0.400,-0.400, 0.000):  15958.25s
  Parallel strategy changed for perturbation using 512 k-points
  Data is distributed by G-vector(1-way) and k-point(16-way) and band(1-way)
 Perturbation    7 (of    9): H     1 Z at q=( 0.400,-0.400, 0.000):  16029.36s
 Perturbation    8 (of    9): H     2 Z at q=( 0.400,-0.400, 0.000):  16074.06s
 Perturbation    9 (of    9): H     5 Z at q=( 0.400,-0.400, 0.000):  16118.71s

 Phonon calculation: q-point  27 (of   27) ( 0.400, 0.000, 0.400):    16163.31s
 -------------------------------------------------------------------------------
 Perturbation    1 (of    6): H     1 X at q=( 0.400, 0.000, 0.400):  16163.44s
  Parallel strategy changed for perturbation using 512 k-points
  Data is distributed by G-vector(1-way) and k-point(16-way) and band(1-way)
 Perturbation    2 (of    6): H     5 X at q=( 0.400, 0.000, 0.400):  16242.89s
 Perturbation    3 (of    6): H     1 Y at q=( 0.400, 0.000, 0.400):  16296.00s
 Perturbation    4 (of    6): H     5 Y at q=( 0.400, 0.000, 0.400):  16349.16s
 Perturbation    5 (of    6): H     1 Z at q=( 0.400, 0.000, 0.400):  16398.16s
 Perturbation    6 (of    6): H     5 Z at q=( 0.400, 0.000, 0.400):  16446.92s
 
 ==============================================================================
 +                           Vibrational Frequencies                          +
 +                           -----------------------                          +
 +                                                                            +
 + Performing frequency calculation at  27 wavevectors (q-pts)                +
 + ========================================================================== +
 +                                                                            +
 +============================================================================+
 +                       Raman Intensity Progress Report                      +
 +----------------------------------------------------------------------------+
 + RAMAN: Not a continuation; generating Raman intensities from beginning     +
 +----------------------------------------------------------------------------+
 + Mode     1: not Raman active; calculation not required                     +
 + Mode     2: not Raman active; calculation not required                     +
 + Mode     3: not Raman active; calculation not required                     +
 + Mode     4: frequency out of range; calculation not required               +
 + Mode     5: not Raman active; calculation not required                     +
 + Mode     6: not Raman active; calculation not required                     +
 + Mode     7: not Raman active; calculation not required                     +
 + Mode     8: not Raman active; calculation not required                     +
 + Mode     9: not Raman active; calculation not required                     +
 + Mode    10: performing Raman intensity calculation                         +

 Efield perturbation    1:  X                                         16512.55s

 Efield perturbation    2:  Y                                         16524.25s

 Efield perturbation    3:  Z                                         16535.78s

 Efield perturbation    1:  X                                         16554.97s

 Efield perturbation    2:  Y                                         16566.96s

 Efield perturbation    3:  Z                                         16578.51s
 + Mode number:  10 completed;                   time taken:    85.93 seconds +
 + Mode    11: performing Raman intensity calculation                         +

 Efield perturbation    1:  X                                         16602.66s

 Efield perturbation    2:  Y                                         16620.18s

 Efield perturbation    3:  Z                                         16641.91s

 Efield perturbation    1:  X                                         16666.48s

 Efield perturbation    2:  Y                                         16683.67s

 Efield perturbation    3:  Z                                         16704.69s
 + Mode number:  11 completed;                   time taken:   127.60 seconds +
 + Mode    12: not Raman active; calculation not required                     +
 + Mode    13: performing Raman intensity calculation                         +

 Efield perturbation    1:  X                                         16730.38s

 Efield perturbation    2:  Y                                         16756.20s

 Efield perturbation    3:  Z                                         16769.26s

 Efield perturbation    1:  X                                         16793.81s

 Efield perturbation    2:  Y                                         16819.95s

 Efield perturbation    3:  Z                                         16833.10s
 + Mode number:  13 completed;                   time taken:   128.40 seconds +
 + Mode    14: not Raman active; calculation not required                     +
 + Mode    15: performing Raman intensity calculation                         +

 Efield perturbation    1:  X                                         16857.85s

 Efield perturbation    2:  Y                                         16882.59s

 Efield perturbation    3:  Z                                         16895.39s

 Efield perturbation    1:  X                                         16918.75s

 Efield perturbation    2:  Y                                         16943.47s

 Efield perturbation    3:  Z                                         16956.24s
 + Mode number:  15 completed;                   time taken:   122.84 seconds +
 + Mode    16: not Raman active; calculation not required                     +
 + Mode    17: not Raman active; calculation not required                     +
 + Mode    18: not Raman active; calculation not required                     +
 + Mode    19: not Raman active; calculation not required                     +
 + Mode    20: not Raman active; calculation not required                     +
 + Mode    21: not Raman active; calculation not required                     +
 + Mode    22: performing Raman intensity calculation                         +

 Efield perturbation    1:  X                                         16981.49s

 Efield perturbation    2:  Y                                         17006.11s

 Efield perturbation    3:  Z                                         17018.88s

 Efield perturbation    1:  X                                         17042.76s

 Efield perturbation    2:  Y                                         17067.97s

 Efield perturbation    3:  Z                                         17080.72s
 + Mode number:  22 completed;                   time taken:   124.44 seconds +
 + Mode    23: not Raman active; calculation not required                     +
 + Mode    24: not Raman active; calculation not required                     +
 + Mode    25: not Raman active; calculation not required                     +
 + Mode    26: not Raman active; calculation not required                     +
 + Mode    27: not Raman active; calculation not required                     +
 + Mode    28: not Raman active; calculation not required                     +
 + Mode    29: not Raman active; calculation not required                     +
 + Mode    30: performing Raman intensity calculation                         +

 Efield perturbation    1:  X                                         17106.74s

 Efield perturbation    2:  Y                                         17124.43s

 Efield perturbation    3:  Z                                         17145.25s

 Efield perturbation    1:  X                                         17170.32s

 Efield perturbation    2:  Y                                         17188.18s

 Efield perturbation    3:  Z                                         17208.94s
 + Mode number:  30 completed;                   time taken:   128.51 seconds +
 + Mode    31: not Raman active; calculation not required                     +
 + Mode    32: not Raman active; calculation not required                     +
 + Mode    33: not Raman active; calculation not required                     +
 + Mode    34: not Raman active; calculation not required                     +
 + Mode    35: performing Raman intensity calculation                         +

 Efield perturbation    1:  X                                         17233.65s

 Efield perturbation    2:  Y                                         17258.21s

 Efield perturbation    3:  Z                                         17270.95s

 Efield perturbation    1:  X                                         17294.75s

 Efield perturbation    2:  Y                                         17321.01s

 Efield perturbation    3:  Z                                         17333.73s
 + Mode number:  35 completed;                   time taken:   124.50 seconds +
 + Mode    36: not Raman active; calculation not required                     +
 + Mode    37: not Raman active; calculation not required                     +
 + Mode    38: performing Raman intensity calculation                         +

 Efield perturbation    1:  X                                         17359.48s

 Efield perturbation    2:  Y                                         17386.55s

 Efield perturbation    3:  Z                                         17399.70s

 Efield perturbation    1:  X                                         17424.26s

 Efield perturbation    2:  Y                                         17449.13s

 Efield perturbation    3:  Z                                         17462.26s
 + Mode number:  38 completed;                   time taken:   128.87 seconds +
 + Mode    39: not Raman active; calculation not required                     +
 + Mode    40: not Raman active; calculation not required                     +
 + Mode    41: performing Raman intensity calculation                         +

 Efield perturbation    1:  X                                         17482.92s

 Efield perturbation    2:  Y                                         17494.62s

 Efield perturbation    3:  Z                                         17505.97s

 Efield perturbation    1:  X                                         17524.55s

 Efield perturbation    2:  Y                                         17536.23s

 Efield perturbation    3:  Z                                         17547.55s
 + Mode number:  41 completed;                   time taken:    84.01 seconds +
 + Mode    42: not Raman active; calculation not required                     +
 + Mode    43: not Raman active; calculation not required                     +
 + Mode    44: performing Raman intensity calculation                         +

 Efield perturbation    1:  X                                         17566.91s

 Efield perturbation    2:  Y                                         17578.55s

 Efield perturbation    3:  Z                                         17589.85s

 Efield perturbation    1:  X                                         17609.43s

 Efield perturbation    2:  Y                                         17621.06s

 Efield perturbation    3:  Z                                         17633.26s
 + Mode number:  44 completed;                   time taken:    85.56 seconds +
 + Mode    45: not Raman active; calculation not required                     +
 + Mode    46: performing Raman intensity calculation                         +

 Efield perturbation    1:  X                                         17658.56s

 Efield perturbation    2:  Y                                         17685.29s

 Efield perturbation    3:  Z                                         17698.08s

 Efield perturbation    1:  X                                         17721.42s

 Efield perturbation    2:  Y                                         17745.98s

 Efield perturbation    3:  Z                                         17758.82s
 + Mode number:  46 completed;                   time taken:   126.74 seconds +
 + Mode    47: not Raman active; calculation not required                     +
 + Mode    48: not Raman active; calculation not required                     +
 +----------------------------------------------------------------------------+
 +   E N D    O F    R A M A N    I N T E N S I T Y    C A L C U L A T I O N  +
 +         Raman intensity calculation completed in    1267.43 seconds        +
 +============================================================================+
 + -------------------------------------------------------------------------- +
 +  q-pt=    1 ( -0.400000 -0.400000 -0.400000)     0.0640000000              +
 + -------------------------------------------------------------------------- +
 +  Acoustic sum rule correction <   0.012045 cm-1 applied                    +
 +     N      Frequency irrep.                                                + 
 +                (cm-1)                                                      + 
 +                                                                            +
 +     1     242.633368   a                                                   + 
 +     2     253.551054   b                                                   + 
 +     3     275.520880   b                                                   + 
 +     4     291.058868   a                                                   + 
 +     5     310.540601   b                                                   + 
 +     6     325.400511   a                                                   + 
 +     7     342.389516   a                                                   + 
 +     8     352.572378   b                                                   + 
 +     9     447.462130   b                                                   + 
 +    10     452.440674   a                                                   + 
 +    11     475.474207   b                                                   + 
 +    12     487.506592   a                                                   + 
 +    13     505.738356   b                                                   + 
 +    14     526.798487   a                                                   + 
 +    15     538.490590   b                                                   + 
 +    16     544.669605   a                                                   + 
 +    17     545.320155   a                                                   + 
 +    18     560.489857   b                                                   + 
 +    19     597.185404   a                                                   + 
 +    20     608.492892   b                                                   + 
 +    21     612.299196   a                                                   + 
 +    22     617.388872   b                                                   + 
 +    23     627.804760   a                                                   + 
 +    24     641.502215   b                                                   + 
 +    25     653.657015   a                                                   + 
 +    26     661.840094   b                                                   + 
 +    27     692.418263   b                                                   + 
 +    28     726.888575   b                                                   + 
 +    29     743.401218   a                                                   + 
 +    30     760.205411   a                                                   + 
 +    31     769.324858   a                                                   + 
 +    32     829.303700   b                                                   + 
 +    33    1072.848110   b                                                   + 
 +    34    1115.206477   a                                                   + 
 +    35    1118.968182   a                                                   + 
 +    36    1134.218910   a                                                   + 
 +    37    1140.676800   b                                                   + 
 +    38    1152.549181   b                                                   + 
 +    39    1169.592259   b                                                   + 
 +    40    1173.421816   a                                                   + 
 +    41    4438.174176   b                                                   + 
 +    42    4439.461640   a                                                   + 
 +    43    4456.718628   a                                                   + 
 +    44    4457.592696   b                                                   + 
 +    45    4463.851517   a                                                   + 
 +    46    4468.043025   b                                                   + 
 +    47    4475.936962   b                                                   + 
 +    48    4479.385612   a                                                   + 
 + .......................................................................... +
 +        Character table from group theory analysis of eigenvectors          +
 +                           Point Group =   8, D2h                           +
 + .......................................................................... +
 +  Rep  Mul |    E                                                           +
 +           | ----                                                           +
 + a      24 |    1                                                           +
 + b      24 |    1                                                           +
 + -------------------------------------------------------------------------- +
 +  q-pt=    2 ( -0.400000 -0.400000 -0.200000)     0.0640000000              +
 + -------------------------------------------------------------------------- +
 +  Acoustic sum rule correction <   0.018705 cm-1 applied                    +
 +     N      Frequency irrep.                                                + 
 +                (cm-1)                                                      + 
 +                                                                            +
 +     1     208.479317   a                                                   + 
 +     2     222.427631   b                                                   + 
 +     3     271.784735   b                                                   + 
 +     4     317.275820   a                                                   + 
 +     5     325.819950   b                                                   + 
 +     6     326.024807   a                                                   + 
 +     7     357.300216   a                                                   + 
 +     8     357.616584   b                                                   + 
 +     9     419.470877   b                                                   + 
 +    10     439.988710   a                                                   + 
 +    11     484.574084   b                                                   + 
 +    12     502.349662   a                                                   + 
 +    13     504.267471   b                                                   + 
 +    14     520.858536   a                                                   + 
 +    15     526.896359   b                                                   + 
 +    16     542.769192   a                                                   + 
 +    17     558.424168   a                                                   + 
 +    18     561.613523   b                                                   + 
 +    19     576.566277   a                                                   + 
 +    20     587.346527   b                                                   + 
 +    21     603.285687   b                                                   + 
 +    22     604.791271   a                                                   + 
 +    23     611.396372   a                                                   + 
 +    24     635.403866   b                                                   + 
 +    25     653.494977   a                                                   + 
 +    26     662.876157   b                                                   + 
 +    27     685.960009   b                                                   + 
 +    28     689.482635   a                                                   + 
 +    29     730.384876   b                                                   + 
 +    30     820.694678   a                                                   + 
 +    31     824.695025   a                                                   + 
 +    32     910.094921   b                                                   + 
 +    33    1031.870065   b                                                   + 
 +    34    1074.372004   a                                                   + 
 +    35    1094.998143   b                                                   + 
 +    36    1095.605828   a                                                   + 
 +    37    1156.604432   a                                                   + 
 +    38    1176.322929   b                                                   + 
 +    39    1188.197083   a                                                   + 
 +    40    1192.365764   b                                                   + 
 +    41    4437.372100   b                                                   + 
 +    42    4440.920882   a                                                   + 
 +    43    4456.397695   a                                                   + 
 +    44    4458.694782   b                                                   + 
 +    45    4459.818605   a                                                   + 
 +    46    4471.024860   b                                                   + 
 +    47    4472.892245   b                                                   + 
 +    48    4481.999056   a                                                   + 
 + .......................................................................... +
 +        Character table from group theory analysis of eigenvectors          +
 +                           Point Group =   8, D2h                           +
 + .......................................................................... +
 +  Rep  Mul |    E                                                           +
 +           | ----                                                           +
 + a      24 |    1                                                           +
[...]
 +                                                                            +
 + Mode number:  28 Raman tensor       Depolarisation Ratio                   +
 +     0.0000    0.0000    0.0000      0.000000                               +
 +     0.0000    0.0000    0.0000                                             +
 +     0.0000    0.0000    0.0000                                             +
 +                                                                            +
 + Mode number:  29 Raman tensor       Depolarisation Ratio                   +
 +     0.0000    0.0000    0.0000      0.000000                               +
 +     0.0000    0.0000    0.0000                                             +
 +     0.0000    0.0000    0.0000                                             +
 +                                                                            +
 + Mode number:  30 Raman tensor       Depolarisation Ratio                   +
 +    -0.0000    0.0000    0.0000      0.750000                               +
 +     0.0000   -0.0000   -0.0927                                             +
 +     0.0000   -0.0927    0.0000                                             +
 +                                                                            +
 + Mode number:  31 Raman tensor       Depolarisation Ratio                   +
 +     0.0000    0.0000    0.0000      0.000000                               +
 +     0.0000    0.0000    0.0000                                             +
 +     0.0000    0.0000    0.0000                                             +
 +                                                                            +
 + Mode number:  32 Raman tensor       Depolarisation Ratio                   +
 +     0.0000    0.0000    0.0000      0.000000                               +
 +     0.0000    0.0000    0.0000                                             +
 +     0.0000    0.0000    0.0000                                             +
 +                                                                            +
 + Mode number:  33 Raman tensor       Depolarisation Ratio                   +
 +     0.0000    0.0000    0.0000      0.000000                               +
 +     0.0000    0.0000    0.0000                                             +
 +     0.0000    0.0000    0.0000                                             +
 +                                                                            +
 + Mode number:  34 Raman tensor       Depolarisation Ratio                   +
 +     0.0000    0.0000    0.0000      0.000000                               +
 +     0.0000    0.0000    0.0000                                             +
 +     0.0000    0.0000    0.0000                                             +
 +                                                                            +
 + Mode number:  35 Raman tensor       Depolarisation Ratio                   +
 +    -0.0000   -0.1139    0.0000      0.750000                               +
 +    -0.1139   -0.0000    0.0000                                             +
 +     0.0000    0.0000    0.0000                                             +
 +                                                                            +
 + Mode number:  36 Raman tensor       Depolarisation Ratio                   +
 +     0.0000    0.0000    0.0000      0.000000                               +
 +     0.0000    0.0000    0.0000                                             +
 +     0.0000    0.0000    0.0000                                             +
 +                                                                            +
 + Mode number:  37 Raman tensor       Depolarisation Ratio                   +
 +     0.0000    0.0000    0.0000      0.000000                               +
 +     0.0000    0.0000    0.0000                                             +
 +     0.0000    0.0000    0.0000                                             +
 +                                                                            +
 + Mode number:  38 Raman tensor       Depolarisation Ratio                   +
 +    -0.0000    0.0000    0.1089      0.750000                               +
 +     0.0000   -0.0000    0.0000                                             +
 +     0.1089    0.0000    0.0000                                             +
 +                                                                            +
 + Mode number:  39 Raman tensor       Depolarisation Ratio                   +
 +     0.0000    0.0000    0.0000      0.000000                               +
 +     0.0000    0.0000    0.0000                                             +
 +     0.0000    0.0000    0.0000                                             +
 +                                                                            +
 + Mode number:  40 Raman tensor       Depolarisation Ratio                   +
 +     0.0000    0.0000    0.0000      0.000000                               +
 +     0.0000    0.0000    0.0000                                             +
 +     0.0000    0.0000    0.0000                                             +
 +                                                                            +
 + Mode number:  41 Raman tensor       Depolarisation Ratio                   +
 +     3.3644    0.0000    0.0000      0.020417                               +
 +     0.0000    2.5132    0.0000                                             +
 +     0.0000    0.0000    1.7232                                             +
 +                                                                            +
 + Mode number:  42 Raman tensor       Depolarisation Ratio                   +
 +     0.0000    0.0000    0.0000      0.000000                               +
 +     0.0000    0.0000    0.0000                                             +
 +     0.0000    0.0000    0.0000                                             +
 +                                                                            +
 + Mode number:  43 Raman tensor       Depolarisation Ratio                   +
 +     0.0000    0.0000    0.0000      0.000000                               +
 +     0.0000    0.0000    0.0000                                             +
 +     0.0000    0.0000    0.0000                                             +
 +                                                                            +
 + Mode number:  44 Raman tensor       Depolarisation Ratio                   +
 +     1.0633    0.0000    0.0000      0.201484                               +
 +     0.0000    0.0104    0.0000                                             +
 +     0.0000    0.0000    0.3122                                             +
 +                                                                            +
 + Mode number:  45 Raman tensor       Depolarisation Ratio                   +
 +     0.0000    0.0000    0.0000      0.000000                               +
 +     0.0000    0.0000    0.0000                                             +
 +     0.0000    0.0000    0.0000                                             +
 +                                                                            +
 + Mode number:  46 Raman tensor       Depolarisation Ratio                   +
 +    -0.0000   -0.6115    0.0000      0.750000                               +
 +    -0.6115   -0.0000    0.0000                                             +
 +     0.0000    0.0000   -0.0000                                             +
 +                                                                            +
 + Mode number:  47 Raman tensor       Depolarisation Ratio                   +
 +     0.0000    0.0000    0.0000      0.000000                               +
 +     0.0000    0.0000    0.0000                                             +
 +     0.0000    0.0000    0.0000                                             +
 +                                                                            +
 + Mode number:  48 Raman tensor       Depolarisation Ratio                   +
 +     0.0000    0.0000    0.0000      0.000000                               +
 +     0.0000    0.0000    0.0000                                             +
 +     0.0000    0.0000    0.0000                                             +
 +                                                                            +
 +----------------------------------------------------------------------------+
  

 ******************** Symmetrised Forces ********************
 *                                                          *
 *               Cartesian components (eV/A)                *
 * -------------------------------------------------------- *
 *                         x            y            z      *
 *                                                          *
 * H               1     -0.00000     -0.00000      0.00000 *
 * H               2      0.00000     -0.00000      0.00000 *
 * H               3     -0.00000      0.00000      0.00000 *
 * H               4      0.00000      0.00000      0.00000 *
 * H               5     -0.00000     -0.00000     -0.00000 *
 * H               6      0.00000     -0.00000     -0.00000 *
 * H               7     -0.00000      0.00000     -0.00000 *
 * H               8      0.00000      0.00000      0.00000 *
 * H               9     -0.00000     -0.00000      0.00000 *
 * H              10      0.00000     -0.00000      0.00000 *
 * H              11     -0.00000      0.00000      0.00000 *
 * H              12      0.00000      0.00000      0.00000 *
 * H              13     -0.00000      0.00000      0.00000 *
 * H              14      0.00000     -0.00000      0.00000 *
 * H              15     -0.00000     -0.00000      0.00000 *
 * H              16      0.00000      0.00000     -0.00000 *
 *                                                          *
 ************************************************************

 *********** Symmetrised Stress Tensor ***********
 *                                               *
 *          Cartesian components (GPa)           *
 * --------------------------------------------- *
 *             x             y             z     *
 *                                               *
 *  x    -49.999555      0.000000      0.000000  *
 *  y      0.000000    -49.999554      0.000000  *
 *  z      0.000000      0.000000    -49.999547  *
 *                                               *
 *  Pressure:   49.9996                          *
 *                                               *
 *************************************************

 Pseudo atomic calculation performed for H 1s1

 Converged in 24 iterations to a total energy of -12.4843 eV

Charge spilling parameter for spin component 1 = 0.65%

            Orbital Populations       
     Ion    Atom   Orbital             Charge
  -------------------------------------------
      H     1      S                    0.998
      H     2      S                    1.001
      H     3      S                    1.001
      H     4      S                    0.998
      H     5      S                    1.001
      H     6      S                    1.001
      H     7      S                    1.001
      H     8      S                    1.001
      H     9      S                    0.998
      H    10      S                    1.001
      H    11      S                    1.001
      H    12      S                    0.998
      H    13      S                    1.001
      H    14      S                    1.001
      H    15      S                    1.001
      H    16      S                    1.001
  -------------------------------------------
                           Total:      16.000
  -------------------------------------------

     Atomic Populations (Mulliken)
     -----------------------------
Species          Ion     s      p      d      f     Total  Charge (e)
=====================================================================
  H               1     1.00   0.00   0.00   0.00   1.00     0.00
  H               2     1.00   0.00   0.00   0.00   1.00     0.00
  H               3     1.00   0.00   0.00   0.00   1.00     0.00
  H               4     1.00   0.00   0.00   0.00   1.00     0.00
  H               5     1.00   0.00   0.00   0.00   1.00    -0.00
  H               6     1.00   0.00   0.00   0.00   1.00    -0.00
  H               7     1.00   0.00   0.00   0.00   1.00    -0.00
  H               8     1.00   0.00   0.00   0.00   1.00    -0.00
  H               9     1.00   0.00   0.00   0.00   1.00     0.00
  H              10     1.00   0.00   0.00   0.00   1.00     0.00
  H              11     1.00   0.00   0.00   0.00   1.00     0.00
  H              12     1.00   0.00   0.00   0.00   1.00     0.00
  H              13     1.00   0.00   0.00   0.00   1.00    -0.00
  H              14     1.00   0.00   0.00   0.00   1.00    -0.00
  H              15     1.00   0.00   0.00   0.00   1.00    -0.00
  H              16     1.00   0.00   0.00   0.00   1.00    -0.00
=====================================================================

                 Bond                   Population      Length (A)
======================================================================
              H 6  -- H 7                    1.42        0.73326
              H 5  -- H 8                    1.42        0.73326
              H 14 -- H 15                   1.42        0.73326
              H 13 -- H 16                   1.42        0.73326
              H 10 -- H 11                   1.41        0.73520
              H 9  -- H 12                   1.41        0.73520
              H 2  -- H 3                    1.41        0.73520
              H 1  -- H 4                    1.41        0.73520
              H 8  -- H 15                  -0.21        1.62053
              H 7  -- H 16                  -0.21        1.62053
              H 6  -- H 13                  -0.21        1.62053
              H 5  -- H 14                  -0.21        1.62053
              H 4  -- H 10                  -0.23        1.68127
              H 3  -- H 9                   -0.23        1.68127
              H 2  -- H 12                  -0.23        1.68127
              H 1  -- H 11                  -0.23        1.68127
              H 4  -- H 13                  -0.10        1.71446
              H 3  -- H 14                  -0.10        1.71446
              H 2  -- H 15                  -0.10        1.71446
              H 1  -- H 16                  -0.10        1.71446
              H 4  -- H 15                  -0.10        1.71446
              H 3  -- H 16                  -0.10        1.71446
              H 2  -- H 13                  -0.10        1.71446
              H 1  -- H 14                  -0.10        1.71446
              H 8  -- H 11                  -0.10        1.71446
              H 7  -- H 12                  -0.10        1.71446
              H 6  -- H 9                   -0.10        1.71446
              H 5  -- H 10                  -0.10        1.71446
              H 8  -- H 9                   -0.10        1.71446
              H 7  -- H 10                  -0.10        1.71446
              H 6  -- H 11                  -0.10        1.71446
              H 5  -- H 12                  -0.10        1.71446
              H 4  -- H 11                  -0.26        1.78750
              H 3  -- H 12                  -0.26        1.78750
              H 2  -- H 9                   -0.26        1.78750
              H 1  -- H 10                  -0.26        1.78750
              H 4  -- H 6                   -0.11        1.84521
              H 3  -- H 5                   -0.11        1.84521
              H 2  -- H 8                   -0.11        1.84521
              H 1  -- H 7                   -0.11        1.84521
              H 4  -- H 8                   -0.11        1.84521
              H 3  -- H 7                   -0.11        1.84521
              H 2  -- H 6                   -0.11        1.84521
              H 1  -- H 5                   -0.11        1.84521
              H 10 -- H 16                  -0.11        1.84521
              H 9  -- H 15                  -0.11        1.84521
              H 12 -- H 14                  -0.11        1.84521
              H 11 -- H 13                  -0.11        1.84521
              H 10 -- H 14                  -0.11        1.84521
              H 9  -- H 13                  -0.11        1.84521
              H 12 -- H 16                  -0.11        1.84521
              H 11 -- H 15                  -0.11        1.84521
              H 4  -- H 7                   -0.11        1.92519
              H 3  -- H 8                   -0.11        1.92519
              H 2  -- H 5                   -0.11        1.92519
              H 1  -- H 6                   -0.11        1.92519
              H 4  -- H 5                   -0.11        1.92519
              H 3  -- H 6                   -0.11        1.92519
              H 2  -- H 7                   -0.11        1.92519
              H 1  -- H 8                   -0.11        1.92519
              H 10 -- H 13                  -0.11        1.92519
              H 9  -- H 14                  -0.11        1.92519
              H 12 -- H 15                  -0.11        1.92519
              H 11 -- H 16                  -0.11        1.92519
              H 10 -- H 15                  -0.11        1.92519
              H 9  -- H 16                  -0.11        1.92519
              H 12 -- H 13                  -0.11        1.92519
              H 11 -- H 14                  -0.11        1.92519
              H 4  -- H 16                  -0.12        1.95834
              H 3  -- H 15                  -0.12        1.95834
              H 2  -- H 14                  -0.12        1.95834
              H 1  -- H 13                  -0.12        1.95834
              H 4  -- H 14                  -0.12        1.95834
              H 3  -- H 13                  -0.12        1.95834
              H 2  -- H 16                  -0.12        1.95834
              H 1  -- H 15                  -0.12        1.95834
              H 8  -- H 10                  -0.12        1.95834
              H 7  -- H 9                   -0.12        1.95834
              H 6  -- H 12                  -0.12        1.95834
              H 5  -- H 11                  -0.12        1.95834
              H 8  -- H 12                  -0.12        1.95834
              H 7  -- H 11                  -0.12        1.95834
              H 6  -- H 10                  -0.12        1.95834
              H 5  -- H 9                   -0.12        1.95834
              H 8  -- H 14                  -0.28        2.05507
              H 7  -- H 13                  -0.28        2.05507
              H 6  -- H 16                  -0.28        2.05507
              H 5  -- H 15                  -0.28        2.05507
              H 14 -- H 16                   0.02        2.87467
              H 13 -- H 15                   0.02        2.87467
              H 6  -- H 8                    0.02        2.87467
              H 5  -- H 7                    0.02        2.87467
======================================================================


Writing analysis data to Hibam.castep_bin

Writing model to Hibam.check
 
 A BibTeX formatted list of references used in this run has been written to 
 Hibam.bib
 
Initialisation time =      1.21 s
Calculation time    =  17776.69 s
Finalisation time   =      0.67 s
Total time          =  17778.57 s
Peak Memory Use     = 664444 kB
  
Overall parallel efficiency rating: Excellent (93%)                             
  
Data was distributed by:-
k-point (16-way); efficiency rating: Excellent (94%)                            
