 +-------------------------------------------------+
 |                                                 |
 |      CCC   AA    SSS  TTTTT  EEEEE  PPPP        |
 |     C     A  A  S       T    E      P   P       |
 |     C     AAAA   SS     T    EEE    PPPP        |
 |     C     A  A     S    T    E      P           |
 |      CCC  A  A  SSS     T    EEEEE  P           |
 |                                                 |
 +-------------------------------------------------+
 |                                                 |
 | Welcome to Academic Release CASTEP version 18.1 |          
 | Ab Initio Total Energy Program                  |
 |                                                 |
 | Authors:                                        |
 | M. Segall, M. Probert, C. Pickard, P. Hasnip,   |
 | S. Clark, K. Refson, J. R. Yates, M. Payne      |
 |                                                 |
 | Contributors:                                   |
 | P. Lindan, P. Haynes, J. White, V. Milman,      |
 | N. Govind, M. Gibson, P. Tulip, V. Cocula,      |
 | B. Montanari, D. Quigley, M. Glover,            |
 | L. Bernasconi, A. Perlov, M. Plummer,           |
 | E. McNellis, J. Meyer, J. Gale, D. Jochym       |
 | J. Aarons, B. Walker, R. Gillen, D. Jones       |
 | T. Green, I. J. Bush, C. J. Armstrong,          |
 | E. J. Higgins, E. L. Brown, M. S. McFly,        |
 | J. Wilkins, B-C. Shih, P. J. P. Byrne           |
 |                                                 |
 | Copyright (c) 2000 - 2017                       |
 |                                                 |
 |     Distributed under the terms of an           |
 |     Agreement between the United Kingdom        |
 |     Car-Parrinello (UKCP) Consortium,           |
 |     Daresbury Laboratory and Accelrys, Inc.     |
 |                                                 |
 | Please cite                                     |
 |                                                 |
 |     "First principles methods using CASTEP"     |
 |                                                 |
 |         Zeitschrift fuer Kristallographie       |
 |           220(5-6) pp. 567-570 (2005)           |
 |                                                 |
 | S. J. Clark, M. D. Segall, C. J. Pickard,       |
 | P. J. Hasnip, M. J. Probert, K. Refson,         |
 | M. C. Payne                                     |
 |                                                 |
 |       in all publications arising from          |
 |              your use of CASTEP                 |
 |                                                 |
 +-------------------------------------------------+


 Compiled for linux_x86_64_gfortran4.8 on Thu, 19 Jul 2018 15:42:32 +0100
 from code version 70483bd0ad64+  Sun, 10 Dec 2017 12:18:29 +0000
 Compiler: GNU Fortran 4.8.5; Optimisation: fast
 MATHLIBS: Intel MKL(2018.0.0) (LAPACK version 3.7.0)
 FFT Lib : mkl
 Fundamental constants values: CODATA 2014

 Run started: Fri, 07 Aug 2020 20:28:00 +0100

 Atomic calculation performed for H: 1s1

 Converged in 41 iterations to an ae energy of -12.488 eV

   ============================================================                
   | Pseudopotential Report - Date of generation  7-08-2020   |                
   ------------------------------------------------------------                
   | Element: H Ionic charge:  1.00 Level of theory: PBE      |                
   | Atomic Solver: Koelling-Harmon                           |                
   |                                                          |                
   |               Reference Electronic Structure             |                
   |         Orbital         Occupation         Energy        |                
   |            1s              1.000           -0.239        |                
   |                                                          |                
   |                 Pseudopotential Definition               |                
   |        Beta     l      e      Rc     scheme   norm       |                
   |         loc     0   -0.239   0.702     qc      1         |                
   |                                                          |                
   | No charge augmentation                                   |                
   | No partial core correction                               |                
   ------------------------------------------------------------                
   | "0|0.7|2|6|8|10L(qc=10)"                                 |                
   ------------------------------------------------------------                
   |      Author: Chris J. Pickard, Cambridge University      |                
   ============================================================                

 Pseudo atomic calculation performed for H 1s1

 Converged in 24 iterations to a total energy of -12.4843 eV

 Calculation parallelised over 16 processes.
 Data is distributed by k-point(16-way)

 ************************************ Title ************************************
 

 ***************************** General Parameters ******************************
  
 output verbosity                               : normal  (1)
 write checkpoint data to                       : Pbcn.check
 type of calculation                            : geometry optimization
 stress calculation                             : on
 density difference calculation                 : off
 electron localisation func (ELF) calculation   : off
 Hirshfeld analysis                             : off
 unlimited duration calculation
 timing information                             : on
 memory usage estimate                          : on
 write extra output files                       : on
 write final potential to formatted file        : off
 write final density to formatted file          : off
 write structure in CELL formatted file         : on
 write BibTeX reference list                    : on
 write OTFG pseudopotential files               : on
 write electrostatic potential file             : on
 write bands file                               : on
 checkpoint writing                             : both castep_bin and check files
  
 output         length unit                     : A
 output           mass unit                     : amu
 output           time unit                     : ps
 output         charge unit                     : e
 output           spin unit                     : hbar/2
 output         energy unit                     : eV
 output          force unit                     : eV/A
 output       velocity unit                     : A/ps
 output       pressure unit                     : GPa
 output     inv_length unit                     : 1/A
 output      frequency unit                     : cm-1
 output force constant unit                     : eV/A**2
 output         volume unit                     : A**3
 output   IR intensity unit                     : (D/A)**2/amu
 output         dipole unit                     : D
 output         efield unit                     : eV/A/e
 output        entropy unit                     : J/mol/K
  
 wavefunctions paging                           : none
 random number generator seed                   : randomised (202800459)
 data distribution                              : optimal for this architecture
 optimization strategy                          : maximize speed(+++)

 *********************** Exchange-Correlation Parameters ***********************
  
 using functional                               : Perdew Burke Ernzerhof
 relativistic treatment                         : Koelling-Harmon
 DFT+D: Semi-empirical dispersion correction    : off

 ************************* Pseudopotential Parameters **************************
  
 pseudopotential representation                 : reciprocal space
 <beta|phi> representation                      : reciprocal space
 spin-orbit coupling                            : off

 **************************** Basis Set Parameters *****************************
  
 plane wave basis set cut-off                   :  1200.0000   eV
 size of standard grid                          :     2.0000
 size of   fine   gmax                          :    35.4943   1/A
 finite basis set correction                    : automatic
 number of sample energies                      :          3
           sample  spacing                      :     5.0000   eV

 **************************** Electronic Parameters ****************************
  
 number of  electrons                           :  48.00    
 net charge of system                           :  0.000    
 treating system as non-spin-polarized
 number of bands                                :         24

 ********************* Electronic Minimization Parameters **********************
  
 Method: Treating system as non-metallic,
         and number of  SD  steps               :          1
         and number of  CG  steps               :          4
  
 total energy / atom convergence tol.           : 0.1000E-10   eV
 eigen-energy convergence tolerance             : 0.2000E-10   eV
 max force / atom convergence tol.              : ignored
 convergence tolerance window                   :          3   cycles
 max. number of SCF cycles                      :        100
 periodic dipole correction                     : NONE

 ************************** Density Mixing Parameters **************************
  
 density-mixing scheme                          : Broyden
 max. length of mixing history                  :         20
 charge density mixing amplitude                : 0.8000    
 cut-off energy for mixing                      :  1200.       eV

 *********************** Population Analysis Parameters ************************
  
 Population analysis with cutoff                :  3.000       A
 Population analysis output                     : summary and pdos components

 ********************** Geometry Optimization Parameters ***********************
  
 optimization method                            : LBFGS
 max. no. of LBFGS updates                      : unbounded
 variable cell method                           : fixed basis quality
 max. number of steps                           :         60
 estimated bulk modulus                         :  500.0       GPa
 estimated <frequency>                          :  1668.       cm-1
 geom line minimiser                            : on
 with line minimiser tolerance                  :     0.4000
 total energy convergence tolerance             : 0.1000E-08   eV/atom
        max ionic |force| tolerance             : 0.1000E-04   eV/A
 max ionic |displacement| tolerance             : 0.1000E-04   A
   max |stress component| tolerance             : 0.1000E-04   GPa
 convergence tolerance window                   :          2   steps
 backup results every                           :      14400   seconds
 write geom trajectory file                     : on

 *******************************************************************************
  

                           -------------------------------
                                      Unit Cell
                           -------------------------------
        Real Lattice(A)                      Reciprocal Lattice(1/A)
     3.6349022    -0.0000000     0.0000000        1.728570683   0.000000000   0.000000000
    -0.0000000     6.3143505     0.0000000        0.000000000   0.995064391   0.000000000
     0.0000000     0.0000000     6.2273369        0.000000000   0.000000000   1.008968257

                       Lattice parameters(A)       Cell Angles
                    a =      3.634902          alpha =   90.000000
                    b =      6.314350          beta  =   90.000000
                    c =      6.227337          gamma =   90.000000

                       Current cell volume =           142.930125       A**3
                                   density =             0.338495   AMU/A**3
                                           =             0.562084     g/cm^3

                           -------------------------------
                                     Cell Contents
                           -------------------------------
                         Total number of ions in cell =   48
                      Total number of species in cell =    1
                        Max number of any one species =   48

            xxxxxxxxxxxxxxxxxxxxxxxxxxxxxxxxxxxxxxxxxxxxxxxxxxxxxxxxxxxx
            x  Element    Atom        Fractional coordinates of atoms  x
            x            Number           u          v          w      x
            x----------------------------------------------------------x
            x  H            1         0.416205   0.126398   0.027189   x 
            x  H            2         0.565400   0.202630   0.052078   x 
            x  H            3         0.561553   0.545651   0.004578   x 
            x  H            4         0.102409   0.168973   0.244135   x 
            x  H            5         0.296410   0.365661   0.236054   x 
            x  H            6         0.194551   0.465993   0.258929   x 
            x  H            7         0.194551   0.534007   0.758929   x 
            x  H            8         0.296410   0.634339   0.736054   x 
            x  H            9         0.102409   0.831027   0.744135   x 
            x  H           10         0.561553   0.454349   0.504578   x 
            x  H           11         0.565400   0.797370   0.552078   x 
            x  H           12         0.416205   0.873602   0.527189   x 
            x  H           13         0.305449   0.965993   0.258929   x 
            x  H           14         0.203590   0.865661   0.236054   x 
            x  H           15         0.397591   0.668973   0.244135   x 
            x  H           16        -0.061553   0.045651   0.004578   x 
            x  H           17        -0.065400   0.702630   0.052078   x 
            x  H           18         0.083795   0.626398   0.027189   x 
            x  H           19         0.694551   0.965993   0.241071   x 
            x  H           20         0.796410   0.865661   0.263946   x 
            x  H           21         0.602409   0.668973   0.255865   x 
            x  H           22         1.061553   0.045651   0.495422   x 
            x  H           23         1.065400   0.702630   0.447922   x 
            x  H           24         0.916205   0.626398   0.472811   x 
            x  H           25         0.805449   0.534007   0.741071   x 
            x  H           26         0.703590   0.634339   0.763946   x 
            x  H           27         0.897591   0.831027   0.755865   x 
            x  H           28         0.438447   0.454349  -0.004578   x 
            x  H           29         0.434600   0.797370   0.947922   x 
            x  H           30         0.583795   0.873602   0.972811   x 
            x  H           31         0.805449   0.465993   0.241071   x 
            x  H           32         0.703590   0.365661   0.263946   x 
            x  H           33         0.897591   0.168973   0.255865   x 
            x  H           34         0.438447   0.545651   0.495422   x 
            x  H           35         0.434600   0.202630   0.447922   x 
            x  H           36         0.583795   0.126398   0.472811   x 
            x  H           37         0.694551   0.034007   0.741071   x 
            x  H           38         0.796410   0.134339   0.763946   x 
            x  H           39         0.602409   0.331027   0.755865   x 
            x  H           40         0.061553  -0.045651  -0.004578   x 
            x  H           41         1.065400   0.297370   0.947922   x 
            x  H           42         0.916205   0.373602   0.972811   x 
            x  H           43         0.305449   0.034007   0.758929   x 
            x  H           44         0.203590   0.134339   0.736054   x 
            x  H           45         0.397591   0.331027   0.744135   x 
            x  H           46         0.938447  -0.045651   0.504578   x 
            x  H           47        -0.065400   0.297370   0.552078   x 
            x  H           48         0.083795   0.373602   0.527189   x 
            xxxxxxxxxxxxxxxxxxxxxxxxxxxxxxxxxxxxxxxxxxxxxxxxxxxxxxxxxxxx


                         No user defined ionic velocities

                           -------------------------------
                                   Details of Species
                           -------------------------------

                               Mass of species in AMU
                                    H    1.0078250

                          Electric Quadrupole Moment (Barn)
                                    H    0.0028600 Isotope  2

                          Files used for pseudopotentials:
                                    H 0|0.7|2|6|8|10L(qc=10)

                           -------------------------------
                              k-Points For BZ Sampling
                           -------------------------------
                       MP grid size for SCF calculation is  7  7  7
                            with an offset of   0.000  0.000  0.000
                       Number of kpoints used =            64

                           -------------------------------
                               Symmetry and Constraints
                           -------------------------------

                      Maximum deviation from symmetry = 0.189279E-13     ANG

                      Number of symmetry operations   =           8
                      Number of ionic constraints     =           3
                      Point group of crystal =     8: D2h, mmm, 2/m 2/m 2/m
                      Space group of crystal =    60: Pbcn, -P 2n 2ab

             Set iprint > 1 for details on symmetry rotations/translations

                         Centre of mass is constrained
             Set iprint > 1 for details of linear ionic constraints

                         Number of cell constraints= 3
                         Cell constraints are:  1 2 3 0 0 0

                         External pressure/stress (GPa)
                         50.00000   0.00000   0.00000
                                   50.00000   0.00000
                                             50.00000
  
+---------------- MEMORY AND SCRATCH DISK ESTIMATES PER PROCESS --------------+
|                                                     Memory          Disk    |
| Baseline code, static data and system overhead      415.0 MB         0.0 MB |
| BLAS internal memory storage                          0.0 MB         0.0 MB |
| Model and support data                               87.2 MB         0.0 MB |
| Electronic energy minimisation requirements         110.3 MB         0.0 MB |
| Force calculation requirements                       26.7 MB         0.0 MB |
| Stress calculation requirements                      33.8 MB         0.0 MB |
|                                               ----------------------------- |
| Approx. total storage required per process          612.5 MB         0.0 MB |
|                                                                             |
| Requirements will fluctuate during execution and may exceed these estimates |
+-----------------------------------------------------------------------------+
Calculating finite basis set correction with  3 cut-off energies.
Calculating total energy with cut-off of 1190.000 eV.
------------------------------------------------------------------------ <-- SCF
SCF loop      Energy                           Energy gain       Timer   <-- SCF
                                               per atom          (sec)   <-- SCF
------------------------------------------------------------------------ <-- SCF
Initial   1.24267614E+003                                         13.21  <-- SCF
      1  -5.94234341E+002                    3.82689683E+001      25.79  <-- SCF
      2  -7.41603294E+002                    3.07018652E+000      34.47  <-- SCF
      3  -7.45195880E+002                    7.48455345E-002      41.51  <-- SCF
      4  -7.40230357E+002                   -1.03448396E-001      55.30  <-- SCF
      5  -7.40059618E+002                   -3.55707033E-003      68.77  <-- SCF
      6  -7.40066842E+002                    1.50496488E-004      82.11  <-- SCF
      7  -7.40067624E+002                    1.63033011E-005      95.84  <-- SCF
      8  -7.40067628E+002                    7.32007532E-008     109.52  <-- SCF
      9  -7.40067628E+002                    4.52366672E-009     122.57  <-- SCF
     10  -7.40067628E+002                    3.19133828E-010     134.20  <-- SCF
     11  -7.40067628E+002                    1.13995069E-012     143.04  <-- SCF
     12  -7.40067628E+002                    7.69366012E-013     151.88  <-- SCF
------------------------------------------------------------------------ <-- SCF
 
Final energy =  -740.0676278988     eV
(energy not corrected for finite basis set)
 
Calculating total energy with cut-off of 1195.000 eV.
------------------------------------------------------------------------ <-- SCF
SCF loop      Energy                           Energy gain       Timer   <-- SCF
                                               per atom          (sec)   <-- SCF
------------------------------------------------------------------------ <-- SCF
Initial  -7.40067628E+002                                        157.80  <-- SCF
      1  -7.40070970E+002                    6.96207735E-005     167.08  <-- SCF
      2  -7.40070970E+002                    9.52946410E-011     179.48  <-- SCF
      3  -7.40070971E+002                    3.29761068E-008     192.06  <-- SCF
      4  -7.40070971E+002                    1.80461243E-009     204.71  <-- SCF
      5  -7.40070971E+002                    1.17884194E-010     213.89  <-- SCF
      6  -7.40070971E+002                    6.79942319E-012     223.44  <-- SCF
      7  -7.40070971E+002                    3.10163262E-013     232.47  <-- SCF
------------------------------------------------------------------------ <-- SCF
 
Final energy =  -740.0709713759     eV
(energy not corrected for finite basis set)
 
Calculating total energy with cut-off of 1200.000 eV.
------------------------------------------------------------------------ <-- SCF
SCF loop      Energy                           Energy gain       Timer   <-- SCF
                                               per atom          (sec)   <-- SCF
------------------------------------------------------------------------ <-- SCF
Initial  -7.40070971E+002                                        238.36  <-- SCF
      1  -7.40074291E+002                    6.91636854E-005     247.70  <-- SCF
      2  -7.40074291E+002                    9.34658862E-011     260.14  <-- SCF
      3  -7.40074293E+002                    3.36375461E-008     272.51  <-- SCF
      4  -7.40074293E+002                    1.79597620E-009     284.96  <-- SCF
      5  -7.40074293E+002                    1.17352485E-010     294.05  <-- SCF
      6  -7.40074293E+002                    6.99075767E-012     303.60  <-- SCF
      7  -7.40074293E+002                    2.90022790E-013     312.94  <-- SCF
------------------------------------------------------------------------ <-- SCF
 
Final energy =  -740.0742929440     eV
(energy not corrected for finite basis set)
 
 For future reference: finite basis dEtot/dlog(Ecut) =      -0.794444eV
 Total energy corrected for finite basis set =    -740.074259 eV
 
+---------------- MEMORY AND SCRATCH DISK ESTIMATES PER PROCESS --------------+
|                                                     Memory          Disk    |
| Model and support data                               87.5 MB         0.0 MB |
| Electronic energy minimisation requirements         110.3 MB         0.0 MB |
| Geometry minimisation requirements                  133.9 MB         0.0 MB |
|                                               ----------------------------- |
| Approx. total storage required per process          331.7 MB         0.0 MB |
|                                                                             |
| Requirements will fluctuate during execution and may exceed these estimates |
+-----------------------------------------------------------------------------+
 

 ******************************** Symmetrised Forces ********************************
 *                                                                                  *
 *                           Cartesian components (eV/A)                            *
 * -------------------------------------------------------------------------------- *
 *                         x                    y                    z              *
 *                                                                                  *
 * H               1      0.00001              0.00000              0.00000         *
 * H               2     -0.00001             -0.00001             -0.00000         *
 * H               3     -0.00001             -0.00001             -0.00000         *
 * H               4      0.00001              0.00000              0.00001         *
 * H               5      0.00001              0.00000              0.00000         *
 * H               6     -0.00000             -0.00001             -0.00001         *
 * H               7     -0.00000              0.00001             -0.00001         *
 * H               8      0.00001             -0.00000              0.00000         *
 * H               9      0.00001             -0.00000              0.00001         *
 * H              10     -0.00001              0.00001             -0.00000         *
 * H              11     -0.00001              0.00001             -0.00000         *
 * H              12      0.00001             -0.00000              0.00000         *
 * H              13      0.00000             -0.00001             -0.00001         *
 * H              14     -0.00001              0.00000              0.00000         *
 * H              15     -0.00001              0.00000              0.00001         *
 * H              16      0.00001             -0.00001             -0.00000         *
 * H              17      0.00001             -0.00001             -0.00000         *
 * H              18     -0.00001              0.00000              0.00000         *
 * H              19     -0.00000             -0.00001              0.00001         *
 * H              20      0.00001              0.00000             -0.00000         *
 * H              21      0.00001              0.00000             -0.00001         *
 * H              22     -0.00001             -0.00001              0.00000         *
 * H              23     -0.00001             -0.00001              0.00000         *
 * H              24      0.00001              0.00000             -0.00000         *
 * H              25      0.00000              0.00001              0.00001         *
 * H              26     -0.00001             -0.00000             -0.00000         *
 * H              27     -0.00001             -0.00000             -0.00001         *
 * H              28      0.00001              0.00001              0.00000         *
 * H              29      0.00001              0.00001              0.00000         *
 * H              30     -0.00001             -0.00000             -0.00000         *
 * H              31      0.00000             -0.00001              0.00001         *
 * H              32     -0.00001              0.00000             -0.00000         *
 * H              33     -0.00001              0.00000             -0.00001         *
 * H              34      0.00001             -0.00001              0.00000         *
 * H              35      0.00001             -0.00001              0.00000         *
 * H              36     -0.00001              0.00000             -0.00000         *
 * H              37     -0.00000              0.00001              0.00001         *
 * H              38      0.00001             -0.00000             -0.00000         *
 * H              39      0.00001             -0.00000             -0.00001         *
 * H              40     -0.00001              0.00001              0.00000         *
 * H              41     -0.00001              0.00001              0.00000         *
 * H              42      0.00001             -0.00000             -0.00000         *
 * H              43      0.00000              0.00001             -0.00001         *
 * H              44     -0.00001             -0.00000              0.00000         *
 * H              45     -0.00001             -0.00000              0.00001         *
 * H              46      0.00001              0.00001             -0.00000         *
 * H              47      0.00001              0.00001             -0.00000         *
 * H              48     -0.00001             -0.00000              0.00000         *
 *                                                                                  *
 ************************************************************************************

 *********** Symmetrised Stress Tensor ***********
 *                                               *
 *          Cartesian components (GPa)           *
 * --------------------------------------------- *
 *             x             y             z     *
 *                                               *
 *  x    -49.999153      0.000000      0.000000  *
 *  y      0.000000    -49.998527      0.000000  *
 *  z      0.000000      0.000000    -49.999591  *
 *                                               *
 *  Pressure:   49.9991                          *
 *                                               *
 *************************************************
 LBFGS: finished iteration     0 with enthalpy= -6.95469275E+002 eV
  
 +-----------+-----------------+-----------------+------------+-----+ <-- LBFGS
 | Parameter |      value      |    tolerance    |    units   | OK? | <-- LBFGS
 +-----------+-----------------+-----------------+------------+-----+ <-- LBFGS
 |  dE/ion   |   0.000000E+000 |   1.000000E-009 |         eV | No  | <-- LBFGS
 |  |F|max   |   1.567613E-005 |   1.000000E-005 |       eV/A | No  | <-- LBFGS
 |  |dR|max  |   0.000000E+000 |   1.000000E-005 |          A | No  | <-- LBFGS
 |   Smax    |   1.472658E-003 |   1.000000E-005 |        GPa | No  | <-- LBFGS
 +-----------+-----------------+-----------------+------------+-----+ <-- LBFGS
  

================================================================================
 Starting LBFGS iteration          1 ...
================================================================================
  
 +------------+-------------+-------------+-----------------+ <-- min LBFGS
 |    Step    |   lambda    |   F.delta'  |    enthalpy     | <-- min LBFGS
 +------------+-------------+-------------+-----------------+ <-- min LBFGS
 |  previous  |    0.000000 |    0.000046 |     -695.469275 | <-- min LBFGS
 +------------+-------------+-------------+-----------------+ <-- min LBFGS
  

--------------------------------------------------------------------------------
 LBFGS: starting iteration         1 with trial guess (lambda=  1.000000)
--------------------------------------------------------------------------------

                           -------------------------------
                                      Unit Cell
                           -------------------------------
        Real Lattice(A)              Reciprocal Lattice(1/A)
     3.6349001    -0.0000000     0.0000000        1.728571659   0.000000000   0.000000000
    -0.0000000     6.3143443     0.0000000        0.000000000   0.995065368   0.000000000
     0.0000000     0.0000000     6.2273352        0.000000000   0.000000000   1.008968533

                       Lattice parameters(A)       Cell Angles
                    a =      3.634900          alpha =   90.000000
                    b =      6.314344          beta  =   90.000000
                    c =      6.227335          gamma =   90.000000

                Current cell volume =           142.929865 A**3

                           -------------------------------
                                     Cell Contents
                           -------------------------------

            xxxxxxxxxxxxxxxxxxxxxxxxxxxxxxxxxxxxxxxxxxxxxxxxxxxxxxxxxxxxxxxxx
            x  Element         Atom        Fractional coordinates of atoms  x
            x                 Number           u          v          w      x
            x---------------------------------------------------------------x
            x  H                 1         0.416205   0.126398   0.027189   x
            x  H                 2         0.565400   0.202630   0.052078   x
            x  H                 3         0.561553   0.545650   0.004578   x
            x  H                 4         0.102410   0.168973   0.244135   x
            x  H                 5         0.296410   0.365661   0.236054   x
            x  H                 6         0.194551   0.465993   0.258929   x
            x  H                 7         0.194551   0.534007   0.758929   x
            x  H                 8         0.296410   0.634339   0.736054   x
            x  H                 9         0.102410   0.831027   0.744135   x
            x  H                10         0.561553   0.454350   0.504578   x
            x  H                11         0.565400   0.797370   0.552078   x
            x  H                12         0.416205   0.873602   0.527189   x
            x  H                13         0.305449   0.965993   0.258929   x
            x  H                14         0.203590   0.865661   0.236054   x
            x  H                15         0.397590   0.668973   0.244135   x
            x  H                16        -0.061553   0.045650   0.004578   x
            x  H                17        -0.065400   0.702630   0.052078   x
            x  H                18         0.083795   0.626398   0.027189   x
            x  H                19         0.694551   0.965993   0.241071   x
            x  H                20         0.796410   0.865661   0.263946   x
            x  H                21         0.602410   0.668973   0.255865   x
            x  H                22         1.061553   0.045650   0.495422   x
            x  H                23         1.065400   0.702630   0.447922   x
            x  H                24         0.916205   0.626398   0.472811   x
            x  H                25         0.805449   0.534007   0.741071   x
            x  H                26         0.703590   0.634339   0.763946   x
            x  H                27         0.897590   0.831027   0.755865   x
            x  H                28         0.438447   0.454350  -0.004578   x
            x  H                29         0.434600   0.797370   0.947922   x
            x  H                30         0.583795   0.873602   0.972811   x
            x  H                31         0.805449   0.465993   0.241071   x
            x  H                32         0.703590   0.365661   0.263946   x
            x  H                33         0.897590   0.168973   0.255865   x
            x  H                34         0.438447   0.545650   0.495422   x
            x  H                35         0.434600   0.202630   0.447922   x
            x  H                36         0.583795   0.126398   0.472811   x
            x  H                37         0.694551   0.034007   0.741071   x
            x  H                38         0.796410   0.134339   0.763946   x
            x  H                39         0.602410   0.331027   0.755865   x
            x  H                40         0.061553  -0.045650  -0.004578   x
            x  H                41         1.065400   0.297370   0.947922   x
            x  H                42         0.916205   0.373602   0.972811   x
            x  H                43         0.305449   0.034007   0.758929   x
            x  H                44         0.203590   0.134339   0.736054   x
            x  H                45         0.397590   0.331027   0.744135   x
            x  H                46         0.938447  -0.045650   0.504578   x
            x  H                47        -0.065400   0.297370   0.552078   x
            x  H                48         0.083795   0.373602   0.527189   x
            xxxxxxxxxxxxxxxxxxxxxxxxxxxxxxxxxxxxxxxxxxxxxxxxxxxxxxxxxxxxxxxxx


------------------------------------------------------------------------ <-- SCF
SCF loop      Energy                           Energy gain       Timer   <-- SCF
                                               per atom          (sec)   <-- SCF
------------------------------------------------------------------------ <-- SCF
Initial  -7.40074213E+002                                        331.47  <-- SCF
      1  -7.40074213E+002                    9.18687468E-011     340.84  <-- SCF
      2  -7.40074213E+002                    2.15503045E-013     349.93  <-- SCF
      3  -7.40074213E+002                   -3.99184146E-012     359.00  <-- SCF
      4  -7.40074213E+002                   -5.49834873E-013     367.94  <-- SCF
------------------------------------------------------------------------ <-- SCF
 
Final energy =  -740.0742127549     eV
(energy not corrected for finite basis set)
 

 ******************************** Symmetrised Forces ********************************
 *                                                                                  *
 *                           Cartesian components (eV/A)                            *
 * -------------------------------------------------------------------------------- *
 *                         x                    y                    z              *
 *                                                                                  *
 * H               1     -0.00005             -0.00005             -0.00001         *
 * H               2      0.00005              0.00004              0.00001         *
 * H               3      0.00007              0.00008              0.00001         *
 * H               4     -0.00002             -0.00000              0.00001         *
 * H               5      0.00003             -0.00004             -0.00001         *
 * H               6     -0.00002              0.00003              0.00000         *
 * H               7     -0.00002             -0.00003              0.00000         *
 * H               8      0.00003              0.00004             -0.00001         *
 * H               9     -0.00002              0.00000              0.00001         *
 * H              10      0.00007             -0.00008              0.00001         *
 * H              11      0.00005             -0.00004              0.00001         *
 * H              12     -0.00005              0.00005             -0.00001         *
 * H              13      0.00002              0.00003              0.00000         *
 * H              14     -0.00003             -0.00004             -0.00001         *
 * H              15      0.00002             -0.00000              0.00001         *
 * H              16     -0.00007              0.00008              0.00001         *
 * H              17     -0.00005              0.00004              0.00001         *
 * H              18      0.00005             -0.00005             -0.00001         *
 * H              19     -0.00002              0.00003             -0.00000         *
 * H              20      0.00003             -0.00004              0.00001         *
 * H              21     -0.00002             -0.00000             -0.00001         *
 * H              22      0.00007              0.00008             -0.00001         *
 * H              23      0.00005              0.00004             -0.00001         *
 * H              24     -0.00005             -0.00005              0.00001         *
 * H              25      0.00002             -0.00003             -0.00000         *
 * H              26     -0.00003              0.00004              0.00001         *
 * H              27      0.00002              0.00000             -0.00001         *
 * H              28     -0.00007             -0.00008             -0.00001         *
 * H              29     -0.00005             -0.00004             -0.00001         *
 * H              30      0.00005              0.00005              0.00001         *
 * H              31      0.00002              0.00003             -0.00000         *
 * H              32     -0.00003             -0.00004              0.00001         *
 * H              33      0.00002             -0.00000             -0.00001         *
 * H              34     -0.00007              0.00008             -0.00001         *
 * H              35     -0.00005              0.00004             -0.00001         *
 * H              36      0.00005             -0.00005              0.00001         *
 * H              37     -0.00002             -0.00003             -0.00000         *
 * H              38      0.00003              0.00004              0.00001         *
 * H              39     -0.00002              0.00000             -0.00001         *
 * H              40      0.00007             -0.00008             -0.00001         *
 * H              41      0.00005             -0.00004             -0.00001         *
 * H              42     -0.00005              0.00005              0.00001         *
 * H              43      0.00002             -0.00003              0.00000         *
 * H              44     -0.00003              0.00004             -0.00001         *
 * H              45      0.00002              0.00000              0.00001         *
 * H              46     -0.00007             -0.00008              0.00001         *
 * H              47     -0.00005             -0.00004              0.00001         *
 * H              48      0.00005              0.00005             -0.00001         *
 *                                                                                  *
 ************************************************************************************

 *********** Symmetrised Stress Tensor ***********
 *                                               *
 *          Cartesian components (GPa)           *
 * --------------------------------------------- *
 *             x             y             z     *
 *                                               *
 *  x    -49.999788      0.000000      0.000000  *
 *  y      0.000000    -49.999526      0.000000  *
 *  z      0.000000      0.000000    -49.999773  *
 *                                               *
 *  Pressure:   49.9997                          *
 *                                               *
 *************************************************
  
 +------------+-------------+-------------+-----------------+ <-- min LBFGS
 |    Step    |   lambda    |   F.delta'  |    enthalpy     | <-- min LBFGS
 +------------+-------------+-------------+-----------------+ <-- min LBFGS
 |  previous  |    0.000000 |    0.000046 |     -695.469275 | <-- min LBFGS
 | trial step |    1.000000 |   -0.000031 |     -695.469275 | <-- min LBFGS
 +------------+-------------+-------------+-----------------+ <-- min LBFGS
  

--------------------------------------------------------------------------------
 LBFGS: improving iteration         1 with line minimization (lambda=  0.595982)
--------------------------------------------------------------------------------

                           -------------------------------
                                      Unit Cell
                           -------------------------------
        Real Lattice(A)              Reciprocal Lattice(1/A)
     3.6349009    -0.0000000     0.0000000        1.728571265   0.000000000   0.000000000
    -0.0000000     6.3143468     0.0000000        0.000000000   0.995064973   0.000000000
     0.0000000     0.0000000     6.2273359        0.000000000   0.000000000   1.008968421

                       Lattice parameters(A)       Cell Angles
                    a =      3.634901          alpha =   90.000000
                    b =      6.314347          beta  =   90.000000
                    c =      6.227336          gamma =   90.000000

                Current cell volume =           142.929970 A**3

                           -------------------------------
                                     Cell Contents
                           -------------------------------

            xxxxxxxxxxxxxxxxxxxxxxxxxxxxxxxxxxxxxxxxxxxxxxxxxxxxxxxxxxxxxxxxx
            x  Element         Atom        Fractional coordinates of atoms  x
            x                 Number           u          v          w      x
            x---------------------------------------------------------------x
            x  H                 1         0.416205   0.126398   0.027189   x
            x  H                 2         0.565400   0.202630   0.052078   x
            x  H                 3         0.561553   0.545651   0.004578   x
            x  H                 4         0.102409   0.168973   0.244135   x
            x  H                 5         0.296410   0.365661   0.236054   x
            x  H                 6         0.194551   0.465993   0.258929   x
            x  H                 7         0.194551   0.534007   0.758929   x
            x  H                 8         0.296410   0.634339   0.736054   x
            x  H                 9         0.102409   0.831027   0.744135   x
            x  H                10         0.561553   0.454349   0.504578   x
            x  H                11         0.565400   0.797370   0.552078   x
            x  H                12         0.416205   0.873602   0.527189   x
            x  H                13         0.305449   0.965993   0.258929   x
            x  H                14         0.203590   0.865661   0.236054   x
            x  H                15         0.397591   0.668973   0.244135   x
            x  H                16        -0.061553   0.045651   0.004578   x
            x  H                17        -0.065400   0.702630   0.052078   x
            x  H                18         0.083795   0.626398   0.027189   x
            x  H                19         0.694551   0.965993   0.241071   x
            x  H                20         0.796410   0.865661   0.263946   x
            x  H                21         0.602409   0.668973   0.255865   x
            x  H                22         1.061553   0.045651   0.495422   x
            x  H                23         1.065400   0.702630   0.447922   x
            x  H                24         0.916205   0.626398   0.472811   x
            x  H                25         0.805449   0.534007   0.741071   x
            x  H                26         0.703590   0.634339   0.763946   x
            x  H                27         0.897591   0.831027   0.755865   x
            x  H                28         0.438447   0.454349  -0.004578   x
            x  H                29         0.434600   0.797370   0.947922   x
            x  H                30         0.583795   0.873602   0.972811   x
            x  H                31         0.805449   0.465993   0.241071   x
            x  H                32         0.703590   0.365661   0.263946   x
            x  H                33         0.897591   0.168973   0.255865   x
            x  H                34         0.438447   0.545651   0.495422   x
            x  H                35         0.434600   0.202630   0.447922   x
            x  H                36         0.583795   0.126398   0.472811   x
            x  H                37         0.694551   0.034007   0.741071   x
            x  H                38         0.796410   0.134339   0.763946   x
            x  H                39         0.602409   0.331027   0.755865   x
            x  H                40         0.061553  -0.045651  -0.004578   x
            x  H                41         1.065400   0.297370   0.947922   x
            x  H                42         0.916205   0.373602   0.972811   x
            x  H                43         0.305449   0.034007   0.758929   x
            x  H                44         0.203590   0.134339   0.736054   x
            x  H                45         0.397591   0.331027   0.744135   x
            x  H                46         0.938447  -0.045651   0.504578   x
            x  H                47        -0.065400   0.297370   0.552078   x
            x  H                48         0.083795   0.373602   0.527189   x
            xxxxxxxxxxxxxxxxxxxxxxxxxxxxxxxxxxxxxxxxxxxxxxxxxxxxxxxxxxxxxxxxx


------------------------------------------------------------------------ <-- SCF
SCF loop      Energy                           Energy gain       Timer   <-- SCF
                                               per atom          (sec)   <-- SCF
------------------------------------------------------------------------ <-- SCF
Initial  -7.40074245E+002                                        386.40  <-- SCF
      1  -7.40074245E+002                    1.51073677E-011     392.90  <-- SCF
      2  -7.40074245E+002                    4.08851572E-013     401.86  <-- SCF
      3  -7.40074245E+002                   -8.11661003E-013     410.84  <-- SCF
      4  -7.40074245E+002                   -4.63230845E-014     419.79  <-- SCF
------------------------------------------------------------------------ <-- SCF
 
Final energy =  -740.0742451532     eV
(energy not corrected for finite basis set)
 

 ******************************** Symmetrised Forces ********************************
 *                                                                                  *
 *                           Cartesian components (eV/A)                            *
 * -------------------------------------------------------------------------------- *
 *                         x                    y                    z              *
 *                                                                                  *
 * H               1     -0.00002             -0.00003             -0.00001         *
 * H               2      0.00003              0.00002              0.00001         *
 * H               3      0.00004              0.00004              0.00000         *
 * H               4     -0.00001              0.00000              0.00002         *
 * H               5      0.00002             -0.00002             -0.00000         *
 * H               6     -0.00001              0.00002             -0.00000         *
 * H               7     -0.00001             -0.00002             -0.00000         *
 * H               8      0.00002              0.00002             -0.00000         *
 * H               9     -0.00001             -0.00000              0.00002         *
 * H              10      0.00004             -0.00004              0.00000         *
 * H              11      0.00003             -0.00002              0.00001         *
 * H              12     -0.00002              0.00003             -0.00001         *
 * H              13      0.00001              0.00002             -0.00000         *
 * H              14     -0.00002             -0.00002             -0.00000         *
 * H              15      0.00001              0.00000              0.00002         *
 * H              16     -0.00004              0.00004              0.00000         *
 * H              17     -0.00003              0.00002              0.00001         *
 * H              18      0.00002             -0.00003             -0.00001         *
 * H              19     -0.00001              0.00002              0.00000         *
 * H              20      0.00002             -0.00002              0.00000         *
 * H              21     -0.00001              0.00000             -0.00002         *
 * H              22      0.00004              0.00004             -0.00000         *
 * H              23      0.00003              0.00002             -0.00001         *
 * H              24     -0.00002             -0.00003              0.00001         *
 * H              25      0.00001             -0.00002              0.00000         *
 * H              26     -0.00002              0.00002              0.00000         *
 * H              27      0.00001             -0.00000             -0.00002         *
 * H              28     -0.00004             -0.00004             -0.00000         *
 * H              29     -0.00003             -0.00002             -0.00001         *
 * H              30      0.00002              0.00003              0.00001         *
 * H              31      0.00001              0.00002              0.00000         *
 * H              32     -0.00002             -0.00002              0.00000         *
 * H              33      0.00001              0.00000             -0.00002         *
 * H              34     -0.00004              0.00004             -0.00000         *
 * H              35     -0.00003              0.00002             -0.00001         *
 * H              36      0.00002             -0.00003              0.00001         *
 * H              37     -0.00001             -0.00002              0.00000         *
 * H              38      0.00002              0.00002              0.00000         *
 * H              39     -0.00001             -0.00000             -0.00002         *
 * H              40      0.00004             -0.00004             -0.00000         *
 * H              41      0.00003             -0.00002             -0.00001         *
 * H              42     -0.00002              0.00003              0.00001         *
 * H              43      0.00001             -0.00002             -0.00000         *
 * H              44     -0.00002              0.00002             -0.00000         *
 * H              45      0.00001             -0.00000              0.00002         *
 * H              46     -0.00004             -0.00004              0.00000         *
 * H              47     -0.00003             -0.00002              0.00001         *
 * H              48      0.00002              0.00003             -0.00001         *
 *                                                                                  *
 ************************************************************************************

 *********** Symmetrised Stress Tensor ***********
 *                                               *
 *          Cartesian components (GPa)           *
 * --------------------------------------------- *
 *             x             y             z     *
 *                                               *
 *  x    -49.999532      0.000000      0.000000  *
 *  y      0.000000    -49.999123      0.000000  *
 *  z      0.000000      0.000000    -49.999703  *
 *                                               *
 *  Pressure:   49.9995                          *
 *                                               *
 *************************************************
  
 +------------+-------------+-------------+-----------------+ <-- min LBFGS
 |    Step    |   lambda    |   F.delta'  |    enthalpy     | <-- min LBFGS
 +------------+-------------+-------------+-----------------+ <-- min LBFGS
 |  previous  |    0.000000 |    0.000046 |     -695.469275 | <-- min LBFGS
 | trial step |    1.000000 |   -0.000031 |     -695.469275 | <-- min LBFGS
 |  line step |    0.595982 |  8.903E-007 |     -695.469275 | <-- min LBFGS
 +------------+-------------+-------------+-----------------+ <-- min LBFGS
  
 LBFGS: finished iteration     1 with enthalpy= -6.95469275E+002 eV
  
 +-----------+-----------------+-----------------+------------+-----+ <-- LBFGS
 | Parameter |      value      |    tolerance    |    units   | OK? | <-- LBFGS
 +-----------+-----------------+-----------------+------------+-----+ <-- LBFGS
 |  dE/ion   |   1.589990E-011 |   1.000000E-009 |         eV | Yes | <-- LBFGS
 |  |F|max   |   5.646305E-005 |   1.000000E-005 |       eV/A | No  | <-- LBFGS
 |  |dR|max  |   9.062506E-007 |   1.000000E-005 |          A | Yes | <-- LBFGS
 |   Smax    |   8.765359E-004 |   1.000000E-005 |        GPa | No  | <-- LBFGS
 +-----------+-----------------+-----------------+------------+-----+ <-- LBFGS
  

================================================================================
 Starting LBFGS iteration          2 ...
================================================================================
  
 +------------+-------------+-------------+-----------------+ <-- min LBFGS
 |    Step    |   lambda    |   F.delta'  |    enthalpy     | <-- min LBFGS
 +------------+-------------+-------------+-----------------+ <-- min LBFGS
 |  previous  |    0.000000 |    0.000040 |     -695.469275 | <-- min LBFGS
 +------------+-------------+-------------+-----------------+ <-- min LBFGS
  

--------------------------------------------------------------------------------
 LBFGS: starting iteration         2 with trial guess (lambda=  1.000000)
--------------------------------------------------------------------------------

                           -------------------------------
                                      Unit Cell
                           -------------------------------
        Real Lattice(A)              Reciprocal Lattice(1/A)
     3.6348944    -0.0000000     0.0000000        1.728574393   0.000000000   0.000000000
    -0.0000000     6.3143266     0.0000000        0.000000000   0.995068147   0.000000000
     0.0000000     0.0000000     6.2273302        0.000000000   0.000000000   1.008969353

                       Lattice parameters(A)       Cell Angles
                    a =      3.634894          alpha =   90.000000
                    b =      6.314327          beta  =   90.000000
                    c =      6.227330          gamma =   90.000000

                Current cell volume =           142.929124 A**3

                           -------------------------------
                                     Cell Contents
                           -------------------------------

            xxxxxxxxxxxxxxxxxxxxxxxxxxxxxxxxxxxxxxxxxxxxxxxxxxxxxxxxxxxxxxxxx
            x  Element         Atom        Fractional coordinates of atoms  x
            x                 Number           u          v          w      x
            x---------------------------------------------------------------x
            x  H                 1         0.416205   0.126398   0.027189   x
            x  H                 2         0.565400   0.202630   0.052079   x
            x  H                 3         0.561554   0.545651   0.004578   x
            x  H                 4         0.102410   0.168973   0.244136   x
            x  H                 5         0.296411   0.365661   0.236054   x
            x  H                 6         0.194551   0.465993   0.258929   x
            x  H                 7         0.194551   0.534007   0.758929   x
            x  H                 8         0.296411   0.634339   0.736054   x
            x  H                 9         0.102410   0.831027   0.744136   x
            x  H                10         0.561554   0.454349   0.504578   x
            x  H                11         0.565400   0.797370   0.552079   x
            x  H                12         0.416205   0.873602   0.527189   x
            x  H                13         0.305449   0.965993   0.258929   x
            x  H                14         0.203589   0.865661   0.236054   x
            x  H                15         0.397590   0.668973   0.244136   x
            x  H                16        -0.061554   0.045651   0.004578   x
            x  H                17        -0.065400   0.702630   0.052079   x
            x  H                18         0.083795   0.626398   0.027189   x
            x  H                19         0.694551   0.965993   0.241071   x
            x  H                20         0.796411   0.865661   0.263946   x
            x  H                21         0.602410   0.668973   0.255864   x
            x  H                22         1.061554   0.045651   0.495422   x
            x  H                23         1.065400   0.702630   0.447921   x
            x  H                24         0.916205   0.626398   0.472811   x
            x  H                25         0.805449   0.534007   0.741071   x
            x  H                26         0.703589   0.634339   0.763946   x
            x  H                27         0.897590   0.831027   0.755864   x
            x  H                28         0.438446   0.454349  -0.004578   x
            x  H                29         0.434600   0.797370   0.947921   x
            x  H                30         0.583795   0.873602   0.972811   x
            x  H                31         0.805449   0.465993   0.241071   x
            x  H                32         0.703589   0.365661   0.263946   x
            x  H                33         0.897590   0.168973   0.255864   x
            x  H                34         0.438446   0.545651   0.495422   x
            x  H                35         0.434600   0.202630   0.447921   x
            x  H                36         0.583795   0.126398   0.472811   x
            x  H                37         0.694551   0.034007   0.741071   x
            x  H                38         0.796411   0.134339   0.763946   x
            x  H                39         0.602410   0.331027   0.755864   x
            x  H                40         0.061554  -0.045651  -0.004578   x
            x  H                41         1.065400   0.297370   0.947921   x
            x  H                42         0.916205   0.373602   0.972811   x
            x  H                43         0.305449   0.034007   0.758929   x
            x  H                44         0.203589   0.134339   0.736054   x
            x  H                45         0.397590   0.331027   0.744136   x
            x  H                46         0.938446  -0.045651   0.504578   x
            x  H                47        -0.065400   0.297370   0.552079   x
            x  H                48         0.083795   0.373602   0.527189   x
            xxxxxxxxxxxxxxxxxxxxxxxxxxxxxxxxxxxxxxxxxxxxxxxxxxxxxxxxxxxxxxxxx


------------------------------------------------------------------------ <-- SCF
SCF loop      Energy                           Energy gain       Timer   <-- SCF
                                               per atom          (sec)   <-- SCF
------------------------------------------------------------------------ <-- SCF
Initial  -7.40073980E+002                                        438.18  <-- SCF
      1  -7.40073980E+002                    6.74858864E-010     447.67  <-- SCF
      2  -7.40073980E+002                    2.00599096E-012     457.22  <-- SCF
      3  -7.40073980E+002                   -2.87344107E-011     467.24  <-- SCF
      4  -7.40073980E+002                   -1.81264244E-013     476.74  <-- SCF
      5  -7.40073980E+002                    2.69882319E-013     486.22  <-- SCF
------------------------------------------------------------------------ <-- SCF
 
Final energy =  -740.0739797182     eV
(energy not corrected for finite basis set)
 

 ******************************** Symmetrised Forces ********************************
 *                                                                                  *
 *                           Cartesian components (eV/A)                            *
 * -------------------------------------------------------------------------------- *
 *                         x                    y                    z              *
 *                                                                                  *
 * H               1     -0.00001             -0.00001             -0.00000         *
 * H               2      0.00001              0.00001             -0.00000         *
 * H               3     -0.00001             -0.00002             -0.00000         *
 * H               4      0.00002             -0.00000              0.00001         *
 * H               5      0.00001             -0.00002             -0.00000         *
 * H               6     -0.00002              0.00002             -0.00000         *
 * H               7     -0.00002             -0.00002             -0.00000         *
 * H               8      0.00001              0.00002             -0.00000         *
 * H               9      0.00002              0.00000              0.00001         *
 * H              10     -0.00001              0.00002             -0.00000         *
 * H              11      0.00001             -0.00001             -0.00000         *
 * H              12     -0.00001              0.00001             -0.00000         *
 * H              13      0.00002              0.00002             -0.00000         *
 * H              14     -0.00001             -0.00002             -0.00000         *
 * H              15     -0.00002             -0.00000              0.00001         *
 * H              16      0.00001             -0.00002             -0.00000         *
 * H              17     -0.00001              0.00001             -0.00000         *
 * H              18      0.00001             -0.00001             -0.00000         *
 * H              19     -0.00002              0.00002              0.00000         *
 * H              20      0.00001             -0.00002              0.00000         *
 * H              21      0.00002             -0.00000             -0.00001         *
 * H              22     -0.00001             -0.00002              0.00000         *
 * H              23      0.00001              0.00001              0.00000         *
 * H              24     -0.00001             -0.00001              0.00000         *
 * H              25      0.00002             -0.00002              0.00000         *
 * H              26     -0.00001              0.00002              0.00000         *
 * H              27     -0.00002              0.00000             -0.00001         *
 * H              28      0.00001              0.00002              0.00000         *
 * H              29     -0.00001             -0.00001              0.00000         *
 * H              30      0.00001              0.00001              0.00000         *
 * H              31      0.00002              0.00002              0.00000         *
 * H              32     -0.00001             -0.00002              0.00000         *
 * H              33     -0.00002             -0.00000             -0.00001         *
 * H              34      0.00001             -0.00002              0.00000         *
 * H              35     -0.00001              0.00001              0.00000         *
 * H              36      0.00001             -0.00001              0.00000         *
 * H              37     -0.00002             -0.00002              0.00000         *
 * H              38      0.00001              0.00002              0.00000         *
 * H              39      0.00002              0.00000             -0.00001         *
 * H              40     -0.00001              0.00002              0.00000         *
 * H              41      0.00001             -0.00001              0.00000         *
 * H              42     -0.00001              0.00001              0.00000         *
 * H              43      0.00002             -0.00002             -0.00000         *
 * H              44     -0.00001              0.00002             -0.00000         *
 * H              45     -0.00002              0.00000              0.00001         *
 * H              46      0.00001              0.00002             -0.00000         *
 * H              47     -0.00001             -0.00001             -0.00000         *
 * H              48      0.00001              0.00001             -0.00000         *
 *                                                                                  *
 ************************************************************************************

 *********** Symmetrised Stress Tensor ***********
 *                                               *
 *          Cartesian components (GPa)           *
 * --------------------------------------------- *
 *             x             y             z     *
 *                                               *
 *  x    -50.000152     -0.000000      0.000000  *
 *  y     -0.000000    -49.999905      0.000000  *
 *  z      0.000000      0.000000    -50.000351  *
 *                                               *
 *  Pressure:   50.0001                          *
 *                                               *
 *************************************************
  
 +------------+-------------+-------------+-----------------+ <-- min LBFGS
 |    Step    |   lambda    |   F.delta'  |    enthalpy     | <-- min LBFGS
 +------------+-------------+-------------+-----------------+ <-- min LBFGS
 |  previous  |    0.000000 |    0.000040 |     -695.469275 | <-- min LBFGS
 | trial step |    1.000000 |  4.720E-006 |     -695.469275 | <-- min LBFGS
 +------------+-------------+-------------+-----------------+ <-- min LBFGS
  
 LBFGS: finished iteration     2 with enthalpy= -6.95469275E+002 eV
  
 +-----------+-----------------+-----------------+------------+-----+ <-- LBFGS
 | Parameter |      value      |    tolerance    |    units   | OK? | <-- LBFGS
 +-----------+-----------------+-----------------+------------+-----+ <-- LBFGS
 |  dE/ion   |   3.733306E-009 |   1.000000E-009 |         eV | No  | <-- LBFGS
 |  |F|max   |   2.585980E-005 |   1.000000E-005 |       eV/A | No  | <-- LBFGS
 |  |dR|max  |   5.306589E-006 |   1.000000E-005 |          A | Yes | <-- LBFGS
 |   Smax    |   3.508640E-004 |   1.000000E-005 |        GPa | No  | <-- LBFGS
 +-----------+-----------------+-----------------+------------+-----+ <-- LBFGS
  

================================================================================
 Starting LBFGS iteration          3 ...
================================================================================
  
 +------------+-------------+-------------+-----------------+ <-- min LBFGS
 |    Step    |   lambda    |   F.delta'  |    enthalpy     | <-- min LBFGS
 +------------+-------------+-------------+-----------------+ <-- min LBFGS
 |  previous  |    0.000000 |    0.000019 |     -695.469275 | <-- min LBFGS
 +------------+-------------+-------------+-----------------+ <-- min LBFGS
  

--------------------------------------------------------------------------------
 LBFGS: starting iteration         3 with trial guess (lambda=  1.000000)
--------------------------------------------------------------------------------

                           -------------------------------
                                      Unit Cell
                           -------------------------------
        Real Lattice(A)              Reciprocal Lattice(1/A)
     3.6348918    -0.0000000     0.0000000        1.728575599   0.000000000   0.000000000
    -0.0000000     6.3143172     0.0000000        0.000000000   0.995069638   0.000000000
     0.0000000     0.0000000     6.2273293        0.000000000   0.000000000   1.008969498

                       Lattice parameters(A)       Cell Angles
                    a =      3.634892          alpha =   90.000000
                    b =      6.314317          beta  =   90.000000
                    c =      6.227329          gamma =   90.000000

                Current cell volume =           142.928789 A**3

                           -------------------------------
                                     Cell Contents
                           -------------------------------

            xxxxxxxxxxxxxxxxxxxxxxxxxxxxxxxxxxxxxxxxxxxxxxxxxxxxxxxxxxxxxxxxx
            x  Element         Atom        Fractional coordinates of atoms  x
            x                 Number           u          v          w      x
            x---------------------------------------------------------------x
            x  H                 1         0.416205   0.126398   0.027189   x
            x  H                 2         0.565400   0.202630   0.052078   x
            x  H                 3         0.561553   0.545650   0.004578   x
            x  H                 4         0.102410   0.168973   0.244136   x
            x  H                 5         0.296411   0.365661   0.236054   x
            x  H                 6         0.194550   0.465993   0.258929   x
            x  H                 7         0.194550   0.534007   0.758929   x
            x  H                 8         0.296411   0.634339   0.736054   x
            x  H                 9         0.102410   0.831027   0.744136   x
            x  H                10         0.561553   0.454350   0.504578   x
            x  H                11         0.565400   0.797370   0.552078   x
            x  H                12         0.416205   0.873602   0.527189   x
            x  H                13         0.305450   0.965993   0.258929   x
            x  H                14         0.203589   0.865661   0.236054   x
            x  H                15         0.397590   0.668973   0.244136   x
            x  H                16        -0.061553   0.045650   0.004578   x
            x  H                17        -0.065400   0.702630   0.052078   x
            x  H                18         0.083795   0.626398   0.027189   x
            x  H                19         0.694550   0.965993   0.241071   x
            x  H                20         0.796411   0.865661   0.263946   x
            x  H                21         0.602410   0.668973   0.255864   x
            x  H                22         1.061553   0.045650   0.495422   x
            x  H                23         1.065400   0.702630   0.447922   x
            x  H                24         0.916205   0.626398   0.472811   x
            x  H                25         0.805450   0.534007   0.741071   x
            x  H                26         0.703589   0.634339   0.763946   x
            x  H                27         0.897590   0.831027   0.755864   x
            x  H                28         0.438447   0.454350  -0.004578   x
            x  H                29         0.434600   0.797370   0.947922   x
            x  H                30         0.583795   0.873602   0.972811   x
            x  H                31         0.805450   0.465993   0.241071   x
            x  H                32         0.703589   0.365661   0.263946   x
            x  H                33         0.897590   0.168973   0.255864   x
            x  H                34         0.438447   0.545650   0.495422   x
            x  H                35         0.434600   0.202630   0.447922   x
            x  H                36         0.583795   0.126398   0.472811   x
            x  H                37         0.694550   0.034007   0.741071   x
            x  H                38         0.796411   0.134339   0.763946   x
            x  H                39         0.602410   0.331027   0.755864   x
            x  H                40         0.061553  -0.045650  -0.004578   x
            x  H                41         1.065400   0.297370   0.947922   x
            x  H                42         0.916205   0.373602   0.972811   x
            x  H                43         0.305450   0.034007   0.758929   x
            x  H                44         0.203589   0.134339   0.736054   x
            x  H                45         0.397590   0.331027   0.744136   x
            x  H                46         0.938447  -0.045650   0.504578   x
            x  H                47        -0.065400   0.297370   0.552078   x
            x  H                48         0.083795   0.373602   0.527189   x
            xxxxxxxxxxxxxxxxxxxxxxxxxxxxxxxxxxxxxxxxxxxxxxxxxxxxxxxxxxxxxxxxx


------------------------------------------------------------------------ <-- SCF
SCF loop      Energy                           Energy gain       Timer   <-- SCF
                                               per atom          (sec)   <-- SCF
------------------------------------------------------------------------ <-- SCF
Initial  -7.40073877E+002                                        505.60  <-- SCF
      1  -7.40073877E+002                    6.45032840E-010     515.33  <-- SCF
      2  -7.40073877E+002                    2.57798036E-012     524.89  <-- SCF
      3  -7.40073877E+002                   -4.96442483E-011     534.64  <-- SCF
      4  -7.40073877E+002                   -1.31114470E-012     544.61  <-- SCF
      5  -7.40073877E+002                   -2.85994696E-013     553.95  <-- SCF
------------------------------------------------------------------------ <-- SCF
 
Final energy =  -740.0738765741     eV
(energy not corrected for finite basis set)
 

 ******************************** Symmetrised Forces ********************************
 *                                                                                  *
 *                           Cartesian components (eV/A)                            *
 * -------------------------------------------------------------------------------- *
 *                         x                    y                    z              *
 *                                                                                  *
 * H               1      0.00005              0.00005              0.00001         *
 * H               2     -0.00005             -0.00005             -0.00003         *
 * H               3      0.00010              0.00013              0.00001         *
 * H               4     -0.00008             -0.00000              0.00002         *
 * H               5     -0.00006              0.00009              0.00003         *
 * H               6      0.00005             -0.00009             -0.00003         *
 * H               7      0.00005              0.00009             -0.00003         *
 * H               8     -0.00006             -0.00009              0.00003         *
 * H               9     -0.00008              0.00000              0.00002         *
 * H              10      0.00010             -0.00013              0.00001         *
 * H              11     -0.00005              0.00005             -0.00003         *
 * H              12      0.00005             -0.00005              0.00001         *
 * H              13     -0.00005             -0.00009             -0.00003         *
 * H              14      0.00006              0.00009              0.00003         *
 * H              15      0.00008             -0.00000              0.00002         *
 * H              16     -0.00010              0.00013              0.00001         *
 * H              17      0.00005             -0.00005             -0.00003         *
 * H              18     -0.00005              0.00005              0.00001         *
 * H              19      0.00005             -0.00009              0.00003         *
 * H              20     -0.00006              0.00009             -0.00003         *
 * H              21     -0.00008             -0.00000             -0.00002         *
 * H              22      0.00010              0.00013             -0.00001         *
 * H              23     -0.00005             -0.00005              0.00003         *
 * H              24      0.00005              0.00005             -0.00001         *
 * H              25     -0.00005              0.00009              0.00003         *
 * H              26      0.00006             -0.00009             -0.00003         *
 * H              27      0.00008              0.00000             -0.00002         *
 * H              28     -0.00010             -0.00013             -0.00001         *
 * H              29      0.00005              0.00005              0.00003         *
[...]
              H 13 -- H 30                  -0.05        2.13046
              H 12 -- H 19                  -0.05        2.13046
              H 25 -- H 28                  -0.10        2.13106
              H 37 -- H 40                  -0.10        2.13106
              H 19 -- H 22                  -0.10        2.13106
              H 7  -- H 10                  -0.10        2.13106
              H 13 -- H 16                  -0.10        2.13106
              H 31 -- H 34                  -0.10        2.13106
              H 43 -- H 46                  -0.10        2.13106
              H 3  -- H 6                   -0.10        2.13106
              H 17 -- H 42                  -0.05        2.13648
              H 23 -- H 48                  -0.05        2.13648
              H 11 -- H 36                  -0.05        2.13648
              H 1  -- H 29                  -0.05        2.13648
              H 24 -- H 47                  -0.05        2.13648
              H 18 -- H 41                  -0.05        2.13648
              H 2  -- H 30                  -0.05        2.13648
              H 12 -- H 35                  -0.05        2.13648
              H 36 -- H 44                  -0.05        2.14478
              H 8  -- H 24                  -0.05        2.14478
              H 18 -- H 26                  -0.05        2.14478
              H 1  -- H 38                  -0.05        2.14478
              H 14 -- H 30                  -0.05        2.14478
              H 5  -- H 42                  -0.05        2.14478
              H 32 -- H 48                  -0.05        2.14478
              H 12 -- H 20                  -0.05        2.14478
              H 9  -- H 25                  -0.15        2.16400
              H 7  -- H 27                  -0.15        2.16400
              H 13 -- H 21                  -0.15        2.16400
              H 15 -- H 19                  -0.15        2.16400
              H 4  -- H 31                  -0.15        2.16400
              H 6  -- H 33                  -0.15        2.16400
              H 39 -- H 43                  -0.15        2.16400
              H 37 -- H 45                  -0.15        2.16400
              H 35 -- H 39                  -0.04        2.16936
              H 9  -- H 17                  -0.04        2.16936
              H 2  -- H 45                  -0.04        2.16936
              H 23 -- H 27                  -0.04        2.16936
              H 4  -- H 47                  -0.04        2.16936
              H 33 -- H 41                  -0.04        2.16936
              H 21 -- H 29                  -0.04        2.16936
              H 11 -- H 15                  -0.04        2.16936
              H 34 -- H 35                  -0.05        2.18603
              H 2  -- H 3                   -0.05        2.18603
              H 46 -- H 47                  -0.05        2.18603
              H 40 -- H 41                  -0.05        2.18603
              H 28 -- H 29                  -0.05        2.18603
              H 10 -- H 11                  -0.05        2.18603
              H 16 -- H 17                  -0.05        2.18603
              H 22 -- H 23                  -0.05        2.18603
              H 24 -- H 27                  -0.04        2.18658
              H 36 -- H 39                  -0.04        2.18658
              H 9  -- H 18                  -0.04        2.18658
              H 1  -- H 45                  -0.04        2.18658
              H 12 -- H 15                  -0.04        2.18658
              H 21 -- H 30                  -0.04        2.18658
              H 4  -- H 48                  -0.04        2.18658
              H 33 -- H 42                  -0.04        2.18658
              H 23 -- H 31                  -0.04        2.18747
              H 6  -- H 17                  -0.04        2.18747
              H 29 -- H 37                  -0.04        2.18747
              H 11 -- H 43                  -0.04        2.18747
              H 25 -- H 41                  -0.04        2.18747
              H 7  -- H 47                  -0.04        2.18747
              H 19 -- H 35                  -0.04        2.18747
              H 2  -- H 13                  -0.04        2.18747
              H 34 -- H 39                  -0.09        2.19590
              H 3  -- H 45                  -0.09        2.19590
              H 22 -- H 27                  -0.09        2.19590
              H 21 -- H 28                  -0.09        2.19590
              H 9  -- H 16                  -0.09        2.19590
              H 10 -- H 15                  -0.09        2.19590
              H 33 -- H 40                  -0.09        2.19590
              H 4  -- H 46                  -0.09        2.19590
              H 6  -- H 35                  -0.03        2.21631
              H 2  -- H 31                  -0.03        2.21631
              H 41 -- H 43                  -0.03        2.21631
              H 13 -- H 23                  -0.03        2.21631
              H 37 -- H 47                  -0.03        2.21631
              H 7  -- H 29                  -0.03        2.21631
              H 17 -- H 19                  -0.03        2.21631
              H 11 -- H 25                  -0.03        2.21631
              H 8  -- H 39                  -0.11        2.21820
              H 26 -- H 45                  -0.11        2.21820
              H 14 -- H 33                  -0.11        2.21820
              H 4  -- H 20                  -0.11        2.21820
              H 27 -- H 44                  -0.11        2.21820
              H 9  -- H 38                  -0.11        2.21820
              H 5  -- H 21                  -0.11        2.21820
              H 15 -- H 32                  -0.11        2.21820
              H 9  -- H 24                  -0.04        2.23228
              H 36 -- H 45                  -0.04        2.23228
              H 18 -- H 27                  -0.04        2.23228
              H 15 -- H 30                  -0.04        2.23228
              H 12 -- H 21                  -0.04        2.23228
              H 1  -- H 39                  -0.04        2.23228
              H 4  -- H 42                  -0.04        2.23228
              H 33 -- H 48                  -0.04        2.23228
              H 26 -- H 42                  -0.04        2.23593
              H 8  -- H 48                  -0.04        2.23593
              H 12 -- H 44                  -0.04        2.23593
              H 30 -- H 38                  -0.04        2.23593
              H 5  -- H 18                  -0.04        2.23593
              H 1  -- H 14                  -0.04        2.23593
              H 24 -- H 32                  -0.04        2.23593
              H 20 -- H 36                  -0.04        2.23593
              H 11 -- H 19                  -0.03        2.25937
              H 13 -- H 29                  -0.03        2.25937
              H 17 -- H 25                  -0.03        2.25937
              H 31 -- H 47                  -0.03        2.25937
              H 7  -- H 23                  -0.03        2.25937
              H 6  -- H 41                  -0.03        2.25937
              H 2  -- H 37                  -0.03        2.25937
              H 35 -- H 43                  -0.03        2.25937
              H 42 -- H 45                  -0.09        2.27188
              H 9  -- H 30                  -0.09        2.27188
              H 39 -- H 48                  -0.09        2.27188
              H 12 -- H 27                  -0.09        2.27188
              H 15 -- H 24                  -0.09        2.27188
              H 18 -- H 21                  -0.09        2.27188
              H 4  -- H 36                  -0.09        2.27188
              H 1  -- H 33                  -0.09        2.27188
              H 19 -- H 29                  -0.05        2.31492
              H 31 -- H 41                  -0.05        2.31492
              H 11 -- H 13                  -0.05        2.31492
              H 23 -- H 25                  -0.05        2.31492
              H 7  -- H 17                  -0.05        2.31492
              H 6  -- H 47                  -0.05        2.31492
              H 35 -- H 37                  -0.05        2.31492
              H 2  -- H 43                  -0.05        2.31492
              H 18 -- H 20                  -0.04        2.35526
              H 8  -- H 30                  -0.04        2.35526
              H 1  -- H 32                  -0.04        2.35526
              H 5  -- H 36                  -0.04        2.35526
              H 14 -- H 24                  -0.04        2.35526
              H 12 -- H 26                  -0.04        2.35526
              H 42 -- H 44                  -0.04        2.35526
              H 38 -- H 48                  -0.04        2.35526
              H 20 -- H 29                  -0.05        2.40587
              H 32 -- H 41                  -0.05        2.40587
              H 5  -- H 47                  -0.05        2.40587
              H 11 -- H 14                  -0.05        2.40587
              H 23 -- H 26                  -0.05        2.40587
              H 8  -- H 17                  -0.05        2.40587
              H 35 -- H 38                  -0.05        2.40587
              H 2  -- H 44                  -0.05        2.40587
              H 11 -- H 22                  -0.11        2.41554
              H 17 -- H 28                  -0.11        2.41554
              H 16 -- H 29                  -0.11        2.41554
              H 10 -- H 23                  -0.11        2.41554
              H 34 -- H 47                  -0.11        2.41554
              H 2  -- H 40                  -0.11        2.41554
              H 3  -- H 41                  -0.11        2.41554
              H 35 -- H 46                  -0.11        2.41554
              H 12 -- H 24                  -0.09        2.41961
              H 18 -- H 30                  -0.09        2.41961
              H 1  -- H 42                  -0.09        2.41961
              H 36 -- H 48                  -0.09        2.41961
              H 2  -- H 6                   -0.04        2.49837
              H 31 -- H 35                  -0.04        2.49837
              H 43 -- H 47                  -0.04        2.49837
              H 37 -- H 41                  -0.04        2.49837
              H 13 -- H 17                  -0.04        2.49837
              H 19 -- H 23                  -0.04        2.49837
              H 7  -- H 11                  -0.04        2.49837
              H 25 -- H 29                  -0.04        2.49837
              H 17 -- H 23                  -0.01        2.51065
              H 2  -- H 35                  -0.01        2.51065
              H 41 -- H 47                  -0.01        2.51065
              H 11 -- H 29                  -0.01        2.51065
              H 8  -- H 43                  -0.01        2.52786
              H 6  -- H 14                  -0.01        2.52786
              H 26 -- H 37                  -0.01        2.52786
              H 20 -- H 31                  -0.01        2.52786
              H 5  -- H 13                  -0.01        2.52786
              H 19 -- H 32                  -0.01        2.52786
              H 7  -- H 44                  -0.01        2.52786
              H 25 -- H 38                  -0.01        2.52786
              H 26 -- H 48                  -0.03        2.60653
              H 8  -- H 42                  -0.03        2.60653
              H 30 -- H 44                  -0.03        2.60653
              H 18 -- H 32                  -0.03        2.60653
              H 12 -- H 38                  -0.03        2.60653
              H 5  -- H 24                  -0.03        2.60653
              H 1  -- H 20                  -0.03        2.60653
              H 14 -- H 36                  -0.03        2.60653
              H 17 -- H 32                  -0.02        2.64073
              H 5  -- H 23                  -0.02        2.64073
              H 11 -- H 38                  -0.02        2.64073
              H 29 -- H 44                  -0.02        2.64073
              H 2  -- H 20                  -0.02        2.64073
              H 14 -- H 35                  -0.02        2.64073
              H 26 -- H 47                  -0.02        2.64073
              H 8  -- H 41                  -0.02        2.64073
              H 12 -- H 29                  -0.00        2.66476
              H 11 -- H 30                  -0.00        2.66476
              H 42 -- H 47                  -0.00        2.66476
              H 41 -- H 48                  -0.00        2.66476
              H 18 -- H 23                  -0.00        2.66476
              H 1  -- H 35                  -0.00        2.66476
              H 17 -- H 24                  -0.00        2.66476
              H 2  -- H 36                  -0.00        2.66476
              H 21 -- H 46                  -0.00        2.67173
              H 15 -- H 40                  -0.00        2.67173
              H 3  -- H 27                  -0.00        2.67173
              H 10 -- H 33                  -0.00        2.67173
              H 16 -- H 39                  -0.00        2.67173
              H 22 -- H 45                  -0.00        2.67173
              H 9  -- H 34                  -0.00        2.67173
              H 4  -- H 28                  -0.00        2.67173
              H 17 -- H 41                  -0.03        2.68235
              H 23 -- H 47                  -0.03        2.68235
              H 11 -- H 35                  -0.03        2.68235
              H 2  -- H 29                  -0.03        2.68235
              H 28 -- H 30                  -0.04        2.70318
              H 34 -- H 36                  -0.04        2.70318
              H 10 -- H 12                  -0.04        2.70318
              H 1  -- H 3                   -0.04        2.70318
              H 22 -- H 24                  -0.04        2.70318
              H 16 -- H 18                  -0.04        2.70318
              H 40 -- H 42                  -0.04        2.70318
              H 46 -- H 48                  -0.04        2.70318
              H 7  -- H 12                  -0.02        2.70733
              H 25 -- H 30                  -0.02        2.70733
              H 1  -- H 6                   -0.02        2.70733
              H 13 -- H 18                  -0.02        2.70733
              H 43 -- H 48                  -0.02        2.70733
              H 31 -- H 36                  -0.02        2.70733
              H 37 -- H 42                  -0.02        2.70733
              H 19 -- H 24                  -0.02        2.70733
              H 16 -- H 32                  -0.01        2.72406
              H 3  -- H 20                  -0.01        2.72406
              H 14 -- H 34                  -0.01        2.72406
              H 5  -- H 22                  -0.01        2.72406
              H 26 -- H 46                  -0.01        2.72406
              H 8  -- H 40                  -0.01        2.72406
              H 10 -- H 38                  -0.01        2.72406
              H 28 -- H 44                  -0.01        2.72406
              H 29 -- H 38                  -0.02        2.75133
              H 23 -- H 32                  -0.02        2.75133
              H 5  -- H 17                  -0.02        2.75133
              H 11 -- H 44                  -0.02        2.75133
              H 26 -- H 41                  -0.02        2.75133
              H 8  -- H 47                  -0.02        2.75133
              H 20 -- H 35                  -0.02        2.75133
              H 2  -- H 14                  -0.02        2.75133
              H 26 -- H 40                  -0.01        2.80250
              H 22 -- H 32                  -0.01        2.80250
              H 8  -- H 46                  -0.01        2.80250
              H 20 -- H 34                  -0.01        2.80250
              H 5  -- H 16                  -0.01        2.80250
              H 28 -- H 38                  -0.01        2.80250
              H 3  -- H 14                  -0.01        2.80250
              H 10 -- H 44                  -0.01        2.80250
              H 24 -- H 39                  -0.00        2.80826
              H 18 -- H 45                  -0.00        2.80826
              H 27 -- H 36                  -0.00        2.80826
              H 1  -- H 9                   -0.00        2.80826
              H 15 -- H 48                  -0.00        2.80826
              H 4  -- H 12                  -0.00        2.80826
              H 21 -- H 42                  -0.00        2.80826
              H 30 -- H 33                  -0.00        2.80826
              H 42 -- H 48                  -0.00        2.84098
              H 12 -- H 30                  -0.00        2.84098
              H 18 -- H 24                  -0.00        2.84098
              H 1  -- H 36                  -0.00        2.84098
              H 7  -- H 30                  -0.02        2.89376
              H 6  -- H 36                  -0.02        2.89376
              H 12 -- H 25                  -0.02        2.89376
              H 18 -- H 19                  -0.02        2.89376
              H 13 -- H 24                  -0.02        2.89376
              H 1  -- H 31                  -0.02        2.89376
              H 42 -- H 43                  -0.02        2.89376
              H 37 -- H 48                  -0.02        2.89376
              H 14 -- H 31                   0.00        2.90930
              H 8  -- H 37                   0.00        2.90930
              H 26 -- H 43                   0.00        2.90930
              H 6  -- H 20                   0.00        2.90930
              H 5  -- H 19                   0.00        2.90930
              H 25 -- H 44                   0.00        2.90930
              H 13 -- H 32                   0.00        2.90930
              H 7  -- H 38                   0.00        2.90930
              H 27 -- H 34                   0.00        2.94324
              H 22 -- H 39                   0.00        2.94324
              H 16 -- H 45                   0.00        2.94324
              H 15 -- H 46                   0.00        2.94324
              H 21 -- H 40                   0.00        2.94324
              H 3  -- H 9                    0.00        2.94324
              H 28 -- H 33                   0.00        2.94324
              H 4  -- H 10                   0.00        2.94324
              H 7  -- H 35                  -0.00        2.98163
              H 2  -- H 25                  -0.00        2.98163
              H 13 -- H 41                  -0.00        2.98163
              H 19 -- H 47                  -0.00        2.98163
              H 6  -- H 29                  -0.00        2.98163
              H 23 -- H 43                  -0.00        2.98163
              H 17 -- H 37                  -0.00        2.98163
              H 11 -- H 31                  -0.00        2.98163
======================================================================


Writing analysis data to Pbcn.castep_bin

Writing model to Pbcn.check
 
 A BibTeX formatted list of references used in this run has been written to 
 Pbcn.bib
 
Initialisation time =      5.39 s
Calculation time    =   3616.15 s
Finalisation time   =      4.57 s
Total time          =   3626.12 s
Peak Memory Use     = 676780 kB
  
Overall parallel efficiency rating: Excellent (94%)                             
  
Data was distributed by:-
k-point (16-way); efficiency rating: Excellent (94%)                            
