 +-------------------------------------------------+
 |                                                 |
 |      CCC   AA    SSS  TTTTT  EEEEE  PPPP        |
 |     C     A  A  S       T    E      P   P       |
 |     C     AAAA   SS     T    EEE    PPPP        |
 |     C     A  A     S    T    E      P           |
 |      CCC  A  A  SSS     T    EEEEE  P           |
 |                                                 |
 +-------------------------------------------------+
 |                                                 |
 | Welcome to Academic Release CASTEP version 18.1 |          
 | Ab Initio Total Energy Program                  |
 |                                                 |
 | Authors:                                        |
 | M. Segall, M. Probert, C. Pickard, P. Hasnip,   |
 | S. Clark, K. Refson, J. R. Yates, M. Payne      |
 |                                                 |
 | Contributors:                                   |
 | P. Lindan, P. Haynes, J. White, V. Milman,      |
 | N. Govind, M. Gibson, P. Tulip, V. Cocula,      |
 | B. Montanari, D. Quigley, M. Glover,            |
 | L. Bernasconi, A. Perlov, M. Plummer,           |
 | E. McNellis, J. Meyer, J. Gale, D. Jochym       |
 | J. Aarons, B. Walker, R. Gillen, D. Jones       |
 | T. Green, I. J. Bush, C. J. Armstrong,          |
 | E. J. Higgins, E. L. Brown, M. S. McFly,        |
 | J. Wilkins, B-C. Shih, P. J. P. Byrne           |
 |                                                 |
 | Copyright (c) 2000 - 2017                       |
 |                                                 |
 |     Distributed under the terms of an           |
 |     Agreement between the United Kingdom        |
 |     Car-Parrinello (UKCP) Consortium,           |
 |     Daresbury Laboratory and Accelrys, Inc.     |
 |                                                 |
 | Please cite                                     |
 |                                                 |
 |     "First principles methods using CASTEP"     |
 |                                                 |
 |         Zeitschrift fuer Kristallographie       |
 |           220(5-6) pp. 567-570 (2005)           |
 |                                                 |
 | S. J. Clark, M. D. Segall, C. J. Pickard,       |
 | P. J. Hasnip, M. J. Probert, K. Refson,         |
 | M. C. Payne                                     |
 |                                                 |
 |       in all publications arising from          |
 |              your use of CASTEP                 |
 |                                                 |
 +-------------------------------------------------+


 Compiled for linux_x86_64_gfortran4.8 on Thu, 19 Jul 2018 15:42:32 +0100
 from code version 70483bd0ad64+  Sun, 10 Dec 2017 12:18:29 +0000
 Compiler: GNU Fortran 4.8.5; Optimisation: fast
 MATHLIBS: Intel MKL(2018.0.0) (LAPACK version 3.7.0)
 FFT Lib : mkl
 Fundamental constants values: CODATA 2014

 Run started: Mon, 27 Jul 2020 15:45:30 +0100

 Atomic calculation performed for H: 1s1

 Converged in 41 iterations to an ae energy of -12.488 eV

   ============================================================                
   | Pseudopotential Report - Date of generation 27-07-2020   |                
   ------------------------------------------------------------                
   | Element: H Ionic charge:  1.00 Level of theory: PBE      |                
   | Atomic Solver: Koelling-Harmon                           |                
   |                                                          |                
   |               Reference Electronic Structure             |                
   |         Orbital         Occupation         Energy        |                
   |            1s              1.000           -0.239        |                
   |                                                          |                
   |                 Pseudopotential Definition               |                
   |        Beta     l      e      Rc     scheme   norm       |                
   |         loc     0   -0.239   0.702     qc      1         |                
   |                                                          |                
   | No charge augmentation                                   |                
   | No partial core correction                               |                
   ------------------------------------------------------------                
   | "0|0.7|2|6|8|10L(qc=10)"                                 |                
   ------------------------------------------------------------                
   |      Author: Chris J. Pickard, Cambridge University      |                
   ============================================================                

 Pseudo atomic calculation performed for H 1s1

 Converged in 20 iterations to a total energy of -12.4843 eV

 Calculation parallelised over 15 processes.
 Data is distributed by G-vector(5-way) and k-point(3-way)

 ************************************ Title ************************************
 

 ***************************** General Parameters ******************************
  
 output verbosity                               : normal  (1)
 write checkpoint data to                       : Pbcn.check
 type of calculation                            : geometry optimization
 stress calculation                             : off
 density difference calculation                 : off
 electron localisation func (ELF) calculation   : off
 Hirshfeld analysis                             : off
 unlimited duration calculation
 timing information                             : on
 memory usage estimate                          : on
 write extra output files                       : on
 write final potential to formatted file        : off
 write final density to formatted file          : off
 write structure in CELL formatted file         : on
 write BibTeX reference list                    : on
 write OTFG pseudopotential files               : on
 write electrostatic potential file             : on
 write bands file                               : on
 checkpoint writing                             : both castep_bin and check files
  
 output         length unit                     : A
 output           mass unit                     : amu
 output           time unit                     : ps
 output         charge unit                     : e
 output           spin unit                     : hbar/2
 output         energy unit                     : eV
 output          force unit                     : eV/A
 output       velocity unit                     : A/ps
 output       pressure unit                     : GPa
 output     inv_length unit                     : 1/A
 output      frequency unit                     : cm-1
 output force constant unit                     : eV/A**2
 output         volume unit                     : A**3
 output   IR intensity unit                     : (D/A)**2/amu
 output         dipole unit                     : D
 output         efield unit                     : eV/A/e
 output        entropy unit                     : J/mol/K
  
 wavefunctions paging                           : none
 random number generator seed                   : randomised (154530767)
 data distribution                              : optimal for this architecture
 optimization strategy                          : maximize speed(+++)

 *********************** Exchange-Correlation Parameters ***********************
  
 using functional                               : Perdew Burke Ernzerhof
 relativistic treatment                         : Koelling-Harmon
 DFT+D: Semi-empirical dispersion correction    : off

 ************************* Pseudopotential Parameters **************************
  
 pseudopotential representation                 : reciprocal space
 <beta|phi> representation                      : reciprocal space
 spin-orbit coupling                            : off

 **************************** Basis Set Parameters *****************************
  
 plane wave basis set cut-off                   :  1200.0000   eV
 size of standard grid                          :     2.0000
 size of   fine   gmax                          :    35.4943   1/A
 finite basis set correction                    : automatic
 number of sample energies                      :          3
           sample  spacing                      :     5.0000   eV

 **************************** Electronic Parameters ****************************
  
 number of  electrons                           :  48.00    
 net charge of system                           :  0.000    
 treating system as non-spin-polarized
 number of bands                                :         24

 ********************* Electronic Minimization Parameters **********************
  
 Method: Treating system as non-metallic,
         and number of  SD  steps               :          1
         and number of  CG  steps               :          4
  
 total energy / atom convergence tol.           : 0.1000E-08   eV
 max force / atom convergence tol.              : ignored
 convergence tolerance window                   :          3   cycles
 max. number of SCF cycles                      :        100
 periodic dipole correction                     : NONE

 *********************** Population Analysis Parameters ************************
  
 Population analysis with cutoff                :  3.000       A
 Population analysis output                     : summary and pdos components

 ********************** Geometry Optimization Parameters ***********************
  
 optimization method                            : LBFGS
 max. no. of LBFGS updates                      : unbounded
 variable cell method                           : fixed basis quality
 max. number of steps                           :        100
 estimated bulk modulus                         :  500.0       GPa
 estimated <frequency>                          :  1668.       cm-1
 geom line minimiser                            : on
 with line minimiser tolerance                  :     0.4000
 total energy convergence tolerance             : 0.1000E-08   eV/atom
        max ionic |force| tolerance             : 0.1000E-04   eV/A
 max ionic |displacement| tolerance             : 0.1000E-04   A
   max |stress component| tolerance             : 0.1000E-04   GPa
 convergence tolerance window                   :          2   steps
 backup results every                           :       7000   seconds
 write geom trajectory file                     : on

 *******************************************************************************
  

                           -------------------------------
                                      Unit Cell
                           -------------------------------
        Real Lattice(A)                      Reciprocal Lattice(1/A)
     2.9711502    -0.0000000     0.0000000        2.114731627   0.000000000   0.000000000
    -0.0000000     5.1670150     0.0000000        0.000000000   1.216018401   0.000000000
     0.0000000     0.0000000     5.2938407        0.000000000   0.000000000   1.186885983

                       Lattice parameters(A)       Cell Angles
                    a =      2.971150          alpha =   90.000000
                    b =      5.167015          beta  =   90.000000
                    c =      5.293841          gamma =   90.000000

                       Current cell volume =            81.270924       A**3
                                   density =             0.595307   AMU/A**3
                                           =             0.988530     g/cm^3

                           -------------------------------
                                     Cell Contents
                           -------------------------------
                         Total number of ions in cell =   48
                      Total number of species in cell =    1
                        Max number of any one species =   48

            xxxxxxxxxxxxxxxxxxxxxxxxxxxxxxxxxxxxxxxxxxxxxxxxxxxxxxxxxxxx
            x  Element    Atom        Fractional coordinates of atoms  x
            x            Number           u          v          w      x
            x----------------------------------------------------------x
            x  H            1         0.402230   0.115320   0.009509   x 
            x  H            2         0.577535   0.210703   0.029372   x 
            x  H            3         0.573242   0.555386   0.005022   x 
            x  H            4         0.134361   0.171828   0.248205   x 
            x  H            5         0.309958   0.348512   0.242829   x 
            x  H            6         0.175319   0.482097   0.250005   x 
            x  H            7         0.175319   0.517903   0.750005   x 
            x  H            8         0.309958   0.651488   0.742829   x 
            x  H            9         0.134361   0.828172   0.748205   x 
            x  H           10         0.573242   0.444614   0.505022   x 
            x  H           11         0.577535   0.789297   0.529372   x 
            x  H           12         0.402230   0.884680   0.509509   x 
            x  H           13         0.324681   0.982097   0.250005   x 
            x  H           14         0.190042   0.848512   0.242829   x 
            x  H           15         0.365639   0.671828   0.248205   x 
            x  H           16        -0.073242   0.055386   0.005022   x 
            x  H           17        -0.077535   0.710703   0.029372   x 
            x  H           18         0.097770   0.615320   0.009509   x 
            x  H           19         0.675319   0.982097   0.249995   x 
            x  H           20         0.809958   0.848512   0.257171   x 
            x  H           21         0.634361   0.671828   0.251795   x 
            x  H           22         1.073242   0.055386   0.494978   x 
            x  H           23         1.077535   0.710703   0.470628   x 
            x  H           24         0.902230   0.615320   0.490491   x 
            x  H           25         0.824681   0.517903   0.749995   x 
            x  H           26         0.690042   0.651488   0.757171   x 
            x  H           27         0.865639   0.828172   0.751795   x 
            x  H           28         0.426758   0.444614  -0.005022   x 
            x  H           29         0.422465   0.789297   0.970628   x 
            x  H           30         0.597770   0.884680   0.990491   x 
            x  H           31         0.824681   0.482097   0.249995   x 
            x  H           32         0.690042   0.348512   0.257171   x 
            x  H           33         0.865639   0.171828   0.251795   x 
            x  H           34         0.426758   0.555386   0.494978   x 
            x  H           35         0.422465   0.210703   0.470628   x 
            x  H           36         0.597770   0.115320   0.490491   x 
            x  H           37         0.675319   0.017903   0.749995   x 
            x  H           38         0.809958   0.151488   0.757171   x 
            x  H           39         0.634361   0.328172   0.751795   x 
            x  H           40         0.073242  -0.055386  -0.005022   x 
            x  H           41         1.077535   0.289297   0.970628   x 
            x  H           42         0.902230   0.384680   0.990491   x 
            x  H           43         0.324681   0.017903   0.750005   x 
            x  H           44         0.190042   0.151488   0.742829   x 
            x  H           45         0.365639   0.328172   0.748205   x 
            x  H           46         0.926758  -0.055386   0.505022   x 
            x  H           47        -0.077535   0.289297   0.529372   x 
            x  H           48         0.097770   0.384680   0.509509   x 
            xxxxxxxxxxxxxxxxxxxxxxxxxxxxxxxxxxxxxxxxxxxxxxxxxxxxxxxxxxxx


                         No user defined ionic velocities

                           -------------------------------
                                   Details of Species
                           -------------------------------

                               Mass of species in AMU
                                    H    1.0078250

                          Electric Quadrupole Moment (Barn)
                                    H    0.0028600 Isotope  2

                          Files used for pseudopotentials:
                                    H 0|0.7|2|6|8|10L(qc=10)

                           -------------------------------
                              k-Points For BZ Sampling
                           -------------------------------
                       MP grid size for SCF calculation is  5  5  5
                            with an offset of   0.000  0.000  0.000
                       Number of kpoints used =            27

                           -------------------------------
                               Symmetry and Constraints
                           -------------------------------

                      Maximum deviation from symmetry = 0.103258E-13     ANG

                      Number of symmetry operations   =           8
                      Number of ionic constraints     =           3
                      Point group of crystal =     8: D2h, mmm, 2/m 2/m 2/m
                      Space group of crystal =    60: Pbcn, -P 2n 2ab

             Set iprint > 1 for details on symmetry rotations/translations

                         Centre of mass is constrained
             Set iprint > 1 for details of linear ionic constraints

                         Number of cell constraints= 3
                         Cell constraints are:  1 2 3 0 0 0

                         External pressure/stress (GPa)
                        180.00000   0.00000   0.00000
                                  180.00000   0.00000
                                            180.00000
  
+---------------- MEMORY AND SCRATCH DISK ESTIMATES PER PROCESS --------------+
|                                                     Memory          Disk    |
| Baseline code, static data and system overhead      415.0 MB         0.0 MB |
| BLAS internal memory storage                          0.0 MB         0.0 MB |
| Model and support data                               16.6 MB         0.0 MB |
| Electronic energy minimisation requirements          29.8 MB         0.0 MB |
| Force calculation requirements                        3.1 MB         0.0 MB |
|                                               ----------------------------- |
| Approx. total storage required per process          461.4 MB         0.0 MB |
|                                                                             |
| Requirements will fluctuate during execution and may exceed these estimates |
+-----------------------------------------------------------------------------+
Calculating finite basis set correction with  3 cut-off energies.
Calculating total energy with cut-off of 1190.000 eV.
------------------------------------------------------------------------ <-- SCF
SCF loop      Energy                           Energy gain       Timer   <-- SCF
                                               per atom          (sec)   <-- SCF
------------------------------------------------------------------------ <-- SCF
Initial   1.33862637E+003                                          6.70  <-- SCF
      1  -6.44867615E+002                    4.13227914E+001      19.67  <-- SCF
      2  -6.97576255E+002                    1.09809666E+000      32.83  <-- SCF
      3  -6.99527832E+002                    4.06578730E-002      46.62  <-- SCF
      4  -6.99550222E+002                    4.66448712E-004      60.34  <-- SCF
      5  -6.99550328E+002                    2.21595249E-006      74.14  <-- SCF
      6  -6.99550329E+002                    1.68279561E-008      87.89  <-- SCF
      7  -6.99550329E+002                    1.37756797E-010     101.41  <-- SCF
      8  -6.99550329E+002                    1.18023163E-012     117.30  <-- SCF
------------------------------------------------------------------------ <-- SCF
 
Final energy =  -699.5503291418     eV
(energy not corrected for finite basis set)
 
Calculating total energy with cut-off of 1195.000 eV.
------------------------------------------------------------------------ <-- SCF
SCF loop      Energy                           Energy gain       Timer   <-- SCF
                                               per atom          (sec)   <-- SCF
------------------------------------------------------------------------ <-- SCF
Initial  -6.99550329E+002                                        122.38  <-- SCF
      1  -6.99553944E+002                    7.53061382E-005     135.35  <-- SCF
      2  -6.99553944E+002                    2.46116562E-012     149.09  <-- SCF
      3  -6.99553944E+002                    1.20842829E-013     168.00  <-- SCF
------------------------------------------------------------------------ <-- SCF
 
Final energy =  -699.5539438366     eV
(energy not corrected for finite basis set)
 
Calculating total energy with cut-off of 1200.000 eV.
------------------------------------------------------------------------ <-- SCF
SCF loop      Energy                           Energy gain       Timer   <-- SCF
                                               per atom          (sec)   <-- SCF
------------------------------------------------------------------------ <-- SCF
Initial  -6.99553944E+002                                        172.97  <-- SCF
      1  -6.99557720E+002                    7.86738683E-005     185.69  <-- SCF
      2  -6.99557720E+002                    1.98585049E-012     200.36  <-- SCF
      3  -6.99557720E+002                    1.45011395E-013     220.04  <-- SCF
------------------------------------------------------------------------ <-- SCF
 
Final energy =  -699.5577201823     eV
(energy not corrected for finite basis set)
 
 For future reference: finite basis dEtot/dlog(Ecut) =      -0.880345eV
 Total energy corrected for finite basis set =    -699.557704 eV
 
+---------------- MEMORY AND SCRATCH DISK ESTIMATES PER PROCESS --------------+
|                                                     Memory          Disk    |
| Model and support data                               35.4 MB         0.0 MB |
| Electronic energy minimisation requirements          29.8 MB         0.0 MB |
| Geometry minimisation requirements                   35.5 MB         0.0 MB |
|                                               ----------------------------- |
| Approx. total storage required per process          100.7 MB         0.0 MB |
|                                                                             |
| Requirements will fluctuate during execution and may exceed these estimates |
+-----------------------------------------------------------------------------+
 

 ******************************** Symmetrised Forces ********************************
 *                                                                                  *
 *                           Cartesian components (eV/A)                            *
 * -------------------------------------------------------------------------------- *
 *                         x                    y                    z              *
 *                                                                                  *
 * H               1      0.00000             -0.00000              0.00000         *
 * H               2      0.00000             -0.00000              0.00000         *
 * H               3      0.00000              0.00000             -0.00000         *
 * H               4      0.00000              0.00000              0.00000         *
 * H               5     -0.00000             -0.00000             -0.00000         *
 * H               6     -0.00000              0.00000             -0.00000         *
 * H               7     -0.00000             -0.00000             -0.00000         *
 * H               8     -0.00000              0.00000             -0.00000         *
 * H               9      0.00000             -0.00000              0.00000         *
 * H              10      0.00000             -0.00000             -0.00000         *
 * H              11      0.00000              0.00000              0.00000         *
 * H              12      0.00000              0.00000              0.00000         *
 * H              13      0.00000              0.00000             -0.00000         *
 * H              14      0.00000             -0.00000             -0.00000         *
 * H              15     -0.00000              0.00000              0.00000         *
 * H              16     -0.00000              0.00000             -0.00000         *
 * H              17     -0.00000             -0.00000              0.00000         *
 * H              18     -0.00000             -0.00000              0.00000         *
 * H              19     -0.00000              0.00000              0.00000         *
 * H              20     -0.00000             -0.00000              0.00000         *
 * H              21      0.00000              0.00000             -0.00000         *
 * H              22      0.00000              0.00000              0.00000         *
 * H              23      0.00000             -0.00000             -0.00000         *
 * H              24      0.00000             -0.00000             -0.00000         *
 * H              25      0.00000             -0.00000              0.00000         *
 * H              26      0.00000              0.00000              0.00000         *
 * H              27     -0.00000             -0.00000             -0.00000         *
 * H              28     -0.00000             -0.00000              0.00000         *
 * H              29     -0.00000              0.00000             -0.00000         *
 * H              30     -0.00000              0.00000             -0.00000         *
 * H              31      0.00000              0.00000              0.00000         *
 * H              32      0.00000             -0.00000              0.00000         *
 * H              33     -0.00000              0.00000             -0.00000         *
 * H              34     -0.00000              0.00000              0.00000         *
 * H              35     -0.00000             -0.00000             -0.00000         *
 * H              36     -0.00000             -0.00000             -0.00000         *
 * H              37     -0.00000             -0.00000              0.00000         *
 * H              38     -0.00000              0.00000              0.00000         *
 * H              39      0.00000             -0.00000             -0.00000         *
 * H              40      0.00000             -0.00000              0.00000         *
 * H              41      0.00000              0.00000             -0.00000         *
 * H              42      0.00000              0.00000             -0.00000         *
 * H              43      0.00000             -0.00000             -0.00000         *
 * H              44      0.00000              0.00000             -0.00000         *
 * H              45     -0.00000             -0.00000              0.00000         *
 * H              46     -0.00000             -0.00000             -0.00000         *
 * H              47     -0.00000              0.00000              0.00000         *
 * H              48     -0.00000              0.00000              0.00000         *
 *                                                                                  *
 ************************************************************************************

 *********** Symmetrised Stress Tensor ***********
 *                                               *
 *          Cartesian components (GPa)           *
 * --------------------------------------------- *
 *             x             y             z     *
 *                                               *
 *  x   -210.013415      0.000000      0.000000  *
 *  y      0.000000   -210.013387      0.000000  *
 *  z      0.000000      0.000000   -210.013394  *
 *                                               *
 *  Pressure:  210.0134                          *
 *                                               *
 *************************************************
 LBFGS: finished iteration     0 with enthalpy= -6.08252125E+002 eV
  
 +-----------+-----------------+-----------------+------------+-----+ <-- LBFGS
 | Parameter |      value      |    tolerance    |    units   | OK? | <-- LBFGS
 +-----------+-----------------+-----------------+------------+-----+ <-- LBFGS
 |  dE/ion   |   0.000000E+000 |   1.000000E-009 |         eV | No  | <-- LBFGS
 |  |F|max   |   3.438325E-007 |   1.000000E-005 |       eV/A | Yes | <-- LBFGS
 |  |dR|max  |   0.000000E+000 |   1.000000E-005 |          A | No  | <-- LBFGS
 |   Smax    |   3.001341E+001 |   1.000000E-005 |        GPa | No  | <-- LBFGS
 +-----------+-----------------+-----------------+------------+-----+ <-- LBFGS
  

================================================================================
 Starting LBFGS iteration          1 ...
================================================================================
  
 +------------+-------------+-------------+-----------------+ <-- min LBFGS
 |    Step    |   lambda    |   F.delta'  |    enthalpy     | <-- min LBFGS
 +------------+-------------+-------------+-----------------+ <-- min LBFGS
 |  previous  |    0.000000 |    0.969058 |     -608.252125 | <-- min LBFGS
 +------------+-------------+-------------+-----------------+ <-- min LBFGS
  

--------------------------------------------------------------------------------
 LBFGS: starting iteration         1 with trial guess (lambda=  1.000000)
--------------------------------------------------------------------------------
 
+---------------- MEMORY AND SCRATCH DISK ESTIMATES PER PROCESS --------------+
|                                                     Memory          Disk    |
| Model and support data                               36.1 MB         0.0 MB |
| Electronic energy minimisation requirements          32.0 MB         0.0 MB |
| Geometry minimisation requirements                   38.0 MB         0.0 MB |
|                                               ----------------------------- |
| Approx. total storage required per process          106.1 MB         0.0 MB |
|                                                                             |
| Requirements will fluctuate during execution and may exceed these estimates |
+-----------------------------------------------------------------------------+
 

                           -------------------------------
                                      Unit Cell
                           -------------------------------
        Real Lattice(A)              Reciprocal Lattice(1/A)
     3.0305998    -0.0000000     0.0000000        2.073248123   0.000000000   0.000000000
    -0.0000000     5.2704014     0.0000000        0.000000000   1.192164472   0.000000000
     0.0000000     0.0000000     5.3997648        0.000000000   0.000000000   1.163603522

                       Lattice parameters(A)       Cell Angles
                    a =      3.030600          alpha =   90.000000
                    b =      5.270401          beta  =   90.000000
                    c =      5.399765          gamma =   90.000000

                Current cell volume =            86.247621 A**3

                           -------------------------------
                                     Cell Contents
                           -------------------------------

            xxxxxxxxxxxxxxxxxxxxxxxxxxxxxxxxxxxxxxxxxxxxxxxxxxxxxxxxxxxxxxxxx
            x  Element         Atom        Fractional coordinates of atoms  x
            x                 Number           u          v          w      x
            x---------------------------------------------------------------x
            x  H                 1         0.402230   0.115320   0.009509   x
            x  H                 2         0.577535   0.210703   0.029372   x
            x  H                 3         0.573242   0.555386   0.005022   x
            x  H                 4         0.134361   0.171828   0.248205   x
            x  H                 5         0.309958   0.348512   0.242829   x
            x  H                 6         0.175319   0.482097   0.250005   x
            x  H                 7         0.175319   0.517903   0.750005   x
            x  H                 8         0.309958   0.651488   0.742829   x
            x  H                 9         0.134361   0.828172   0.748205   x
            x  H                10         0.573242   0.444614   0.505022   x
            x  H                11         0.577535   0.789297   0.529372   x
            x  H                12         0.402230   0.884680   0.509509   x
            x  H                13         0.324681   0.982097   0.250005   x
            x  H                14         0.190042   0.848512   0.242829   x
            x  H                15         0.365639   0.671828   0.248205   x
            x  H                16        -0.073242   0.055386   0.005022   x
            x  H                17        -0.077535   0.710703   0.029372   x
            x  H                18         0.097770   0.615320   0.009509   x
            x  H                19         0.675319   0.982097   0.249995   x
            x  H                20         0.809958   0.848512   0.257171   x
            x  H                21         0.634361   0.671828   0.251795   x
            x  H                22         1.073242   0.055386   0.494978   x
            x  H                23         1.077535   0.710703   0.470628   x
            x  H                24         0.902230   0.615320   0.490491   x
            x  H                25         0.824681   0.517903   0.749995   x
            x  H                26         0.690042   0.651488   0.757171   x
            x  H                27         0.865639   0.828172   0.751795   x
            x  H                28         0.426758   0.444614  -0.005022   x
            x  H                29         0.422465   0.789297   0.970628   x
            x  H                30         0.597770   0.884680   0.990491   x
            x  H                31         0.824681   0.482097   0.249995   x
            x  H                32         0.690042   0.348512   0.257171   x
            x  H                33         0.865639   0.171828   0.251795   x
            x  H                34         0.426758   0.555386   0.494978   x
            x  H                35         0.422465   0.210703   0.470628   x
            x  H                36         0.597770   0.115320   0.490491   x
            x  H                37         0.675319   0.017903   0.749995   x
            x  H                38         0.809958   0.151488   0.757171   x
            x  H                39         0.634361   0.328172   0.751795   x
            x  H                40         0.073242  -0.055386  -0.005022   x
            x  H                41         1.077535   0.289297   0.970628   x
            x  H                42         0.902230   0.384680   0.990491   x
            x  H                43         0.324681   0.017903   0.750005   x
            x  H                44         0.190042   0.151488   0.742829   x
            x  H                45         0.365639   0.328172   0.748205   x
            x  H                46         0.926758  -0.055386   0.505022   x
            x  H                47        -0.077535   0.289297   0.529372   x
            x  H                48         0.097770   0.384680   0.509509   x
            xxxxxxxxxxxxxxxxxxxxxxxxxxxxxxxxxxxxxxxxxxxxxxxxxxxxxxxxxxxxxxxxx


------------------------------------------------------------------------ <-- SCF
SCF loop      Energy                           Energy gain       Timer   <-- SCF
                                               per atom          (sec)   <-- SCF
------------------------------------------------------------------------ <-- SCF
Initial  -7.05395748E+002                                        227.37  <-- SCF
      1  -7.05553202E+002                    3.28028881E-003     241.75  <-- SCF
      2  -7.05553224E+002                    4.57720618E-007     255.60  <-- SCF
      3  -7.05553224E+002                    1.71812723E-009     269.65  <-- SCF
      4  -7.05553224E+002                    1.13471417E-011     285.05  <-- SCF
      5  -7.05553224E+002                    2.25573281E-013     306.25  <-- SCF
------------------------------------------------------------------------ <-- SCF
 
Final energy =  -705.5532238850     eV
(energy not corrected for finite basis set)
 

 ******************************** Symmetrised Forces ********************************
 *                                                                                  *
 *                           Cartesian components (eV/A)                            *
 * -------------------------------------------------------------------------------- *
 *                         x                    y                    z              *
 *                                                                                  *
 * H               1      0.26656              0.25622              0.05244         *
 * H               2     -0.27037             -0.25561             -0.05897         *
 * H               3     -0.23096             -0.30523             -0.02928         *
 * H               4     -0.24834              0.02133              0.00790         *
 * H               5     -0.14451              0.20498              0.01893         *
 * H               6      0.10426             -0.22783             -0.01316         *
 * H               7      0.10426              0.22783             -0.01316         *
 * H               8     -0.14451             -0.20498              0.01893         *
 * H               9     -0.24834             -0.02133              0.00790         *
 * H              10     -0.23096              0.30523             -0.02928         *
 * H              11     -0.27037              0.25561             -0.05897         *
 * H              12      0.26656             -0.25622              0.05244         *
 * H              13     -0.10426             -0.22783             -0.01316         *
 * H              14      0.14451              0.20498              0.01893         *
 * H              15      0.24834              0.02133              0.00790         *
 * H              16      0.23096             -0.30523             -0.02928         *
 * H              17      0.27037             -0.25561             -0.05897         *
 * H              18     -0.26656              0.25622              0.05244         *
 * H              19      0.10426             -0.22783              0.01316         *
 * H              20     -0.14451              0.20498             -0.01893         *
 * H              21     -0.24834              0.02133             -0.00790         *
 * H              22     -0.23096             -0.30523              0.02928         *
 * H              23     -0.27037             -0.25561              0.05897         *
 * H              24      0.26656              0.25622             -0.05244         *
 * H              25     -0.10426              0.22783              0.01316         *
 * H              26      0.14451             -0.20498             -0.01893         *
 * H              27      0.24834             -0.02133             -0.00790         *
 * H              28      0.23096              0.30523              0.02928         *
 * H              29      0.27037              0.25561              0.05897         *
 * H              30     -0.26656             -0.25622             -0.05244         *
 * H              31     -0.10426             -0.22783              0.01316         *
 * H              32      0.14451              0.20498             -0.01893         *
 * H              33      0.24834              0.02133             -0.00790         *
 * H              34      0.23096             -0.30523              0.02928         *
 * H              35      0.27037             -0.25561              0.05897         *
 * H              36     -0.26656              0.25622             -0.05244         *
 * H              37      0.10426              0.22783              0.01316         *
 * H              38     -0.14451             -0.20498             -0.01893         *
 * H              39     -0.24834             -0.02133             -0.00790         *
 * H              40     -0.23096              0.30523              0.02928         *
 * H              41     -0.27037              0.25561              0.05897         *
 * H              42      0.26656             -0.25622             -0.05244         *
 * H              43     -0.10426              0.22783             -0.01316         *
 * H              44      0.14451             -0.20498              0.01893         *
 * H              45      0.24834             -0.02133              0.00790         *
 * H              46      0.23096              0.30523             -0.02928         *
 * H              47      0.27037              0.25561             -0.05897         *
 * H              48     -0.26656             -0.25622              0.05244         *
 *                                                                                  *
 ************************************************************************************

 *********** Symmetrised Stress Tensor ***********
 *                                               *
 *          Cartesian components (GPa)           *
 * --------------------------------------------- *
 *             x             y             z     *
 *                                               *
 *  x   -174.773852      0.000000      0.000000  *
 *  y      0.000000   -174.503849      0.000000  *
 *  z      0.000000      0.000000   -182.197645  *
 *                                               *
 *  Pressure:  177.1584                          *
 *                                               *
 *************************************************
  
 +------------+-------------+-------------+-----------------+ <-- min LBFGS
 |    Step    |   lambda    |   F.delta'  |    enthalpy     | <-- min LBFGS
 +------------+-------------+-------------+-----------------+ <-- min LBFGS
 |  previous  |    0.000000 |    0.969058 |     -608.252125 | <-- min LBFGS
 | trial step |    1.000000 |   -0.095455 |     -608.656410 | <-- min LBFGS
 +------------+-------------+-------------+-----------------+ <-- min LBFGS
  
 LBFGS: finished iteration     1 with enthalpy= -6.08656410E+002 eV
  
 +-----------+-----------------+-----------------+------------+-----+ <-- LBFGS
 | Parameter |      value      |    tolerance    |    units   | OK? | <-- LBFGS
 +-----------+-----------------+-----------------+------------+-----+ <-- LBFGS
 |  dE/ion   |   8.422595E-003 |   1.000000E-009 |         eV | No  | <-- LBFGS
 |  |F|max   |   3.838800E-001 |   1.000000E-005 |       eV/A | No  | <-- LBFGS
 |  |dR|max  |   3.401945E-008 |   1.000000E-005 |          A | Yes | <-- LBFGS
 |   Smax    |   5.496151E+000 |   1.000000E-005 |        GPa | No  | <-- LBFGS
 +-----------+-----------------+-----------------+------------+-----+ <-- LBFGS
  

================================================================================
 Starting LBFGS iteration          2 ...
================================================================================
  
 +------------+-------------+-------------+-----------------+ <-- min LBFGS
 |    Step    |   lambda    |   F.delta'  |    enthalpy     | <-- min LBFGS
 +------------+-------------+-------------+-----------------+ <-- min LBFGS
 |  previous  |    0.000000 |    0.284811 |     -608.656410 | <-- min LBFGS
 +------------+-------------+-------------+-----------------+ <-- min LBFGS
  

--------------------------------------------------------------------------------
 LBFGS: starting iteration         2 with trial guess (lambda=  1.000000)
--------------------------------------------------------------------------------
 
+---------------- MEMORY AND SCRATCH DISK ESTIMATES PER PROCESS --------------+
|                                                     Memory          Disk    |
| Model and support data                               36.2 MB         0.0 MB |
| Electronic energy minimisation requirements          32.5 MB         0.0 MB |
| Geometry minimisation requirements                   38.7 MB         0.0 MB |
|                                               ----------------------------- |
| Approx. total storage required per process          107.5 MB         0.0 MB |
|                                                                             |
| Requirements will fluctuate during execution and may exceed these estimates |
+-----------------------------------------------------------------------------+
 

                           -------------------------------
                                      Unit Cell
                           -------------------------------
        Real Lattice(A)              Reciprocal Lattice(1/A)
     3.0484080    -0.0000000     0.0000000        2.061136586   0.000000000   0.000000000
    -0.0000000     5.3004901     0.0000000        0.000000000   1.185397044   0.000000000
     0.0000000     0.0000000     5.4563094        0.000000000   0.000000000   1.151544904

                       Lattice parameters(A)       Cell Angles
                    a =      3.048408          alpha =   90.000000
                    b =      5.300490          beta  =   90.000000
                    c =      5.456309          gamma =   90.000000

                Current cell volume =            88.163356 A**3

                           -------------------------------
                                     Cell Contents
                           -------------------------------

            xxxxxxxxxxxxxxxxxxxxxxxxxxxxxxxxxxxxxxxxxxxxxxxxxxxxxxxxxxxxxxxxx
            x  Element         Atom        Fractional coordinates of atoms  x
            x                 Number           u          v          w      x
            x---------------------------------------------------------------x
            x  H                 1         0.410311   0.119786   0.010401   x
            x  H                 2         0.569338   0.206247   0.028368   x
            x  H                 3         0.566240   0.550065   0.004524   x
            x  H                 4         0.126833   0.172200   0.248340   x
            x  H                 5         0.305577   0.352086   0.243151   x
            x  H                 6         0.178479   0.478126   0.249781   x
            x  H                 7         0.178479   0.521874   0.749781   x
            x  H                 8         0.305577   0.647914   0.743151   x
            x  H                 9         0.126833   0.827800   0.748340   x
            x  H                10         0.566240   0.449935   0.504524   x
            x  H                11         0.569338   0.793753   0.528368   x
            x  H                12         0.410311   0.880214   0.510401   x
            x  H                13         0.321521   0.978126   0.249781   x
            x  H                14         0.194423   0.852086   0.243151   x
            x  H                15         0.373167   0.672200   0.248340   x
            x  H                16        -0.066240   0.050065   0.004524   x
            x  H                17        -0.069338   0.706247   0.028368   x
            x  H                18         0.089689   0.619786   0.010401   x
            x  H                19         0.678479   0.978126   0.250219   x
            x  H                20         0.805577   0.852086   0.256849   x
            x  H                21         0.626833   0.672200   0.251660   x
            x  H                22         1.066240   0.050065   0.495476   x
            x  H                23         1.069338   0.706247   0.471632   x
            x  H                24         0.910311   0.619786   0.489599   x
            x  H                25         0.821521   0.521874   0.750219   x
            x  H                26         0.694423   0.647914   0.756849   x
            x  H                27         0.873167   0.827800   0.751660   x
            x  H                28         0.433760   0.449935  -0.004524   x
            x  H                29         0.430662   0.793753   0.971632   x
            x  H                30         0.589689   0.880214   0.989599   x
            x  H                31         0.821521   0.478126   0.250219   x
            x  H                32         0.694423   0.352086   0.256849   x
            x  H                33         0.873167   0.172200   0.251660   x
            x  H                34         0.433760   0.550065   0.495476   x
            x  H                35         0.430662   0.206247   0.471632   x
            x  H                36         0.589689   0.119786   0.489599   x
            x  H                37         0.678479   0.021874   0.750219   x
            x  H                38         0.805577   0.147914   0.756849   x
            x  H                39         0.626833   0.327800   0.751660   x
            x  H                40         0.066240  -0.050065  -0.004524   x
            x  H                41         1.069338   0.293753   0.971632   x
            x  H                42         0.910311   0.380214   0.989599   x
            x  H                43         0.321521   0.021874   0.749781   x
            x  H                44         0.194423   0.147914   0.743151   x
            x  H                45         0.373167   0.327800   0.748340   x
            x  H                46         0.933760  -0.050065   0.504524   x
            x  H                47        -0.069338   0.293753   0.528368   x
            x  H                48         0.089689   0.380214   0.510401   x
            xxxxxxxxxxxxxxxxxxxxxxxxxxxxxxxxxxxxxxxxxxxxxxxxxxxxxxxxxxxxxxxxx


------------------------------------------------------------------------ <-- SCF
SCF loop      Energy                           Energy gain       Timer   <-- SCF
                                               per atom          (sec)   <-- SCF
------------------------------------------------------------------------ <-- SCF
Initial  -7.02827493E+002                                        313.97  <-- SCF
      1  -7.07017701E+002                    8.72959821E-002     328.38  <-- SCF
      2  -7.07018655E+002                    1.98946033E-005     342.43  <-- SCF
      3  -7.07018657E+002                    3.50783854E-008     356.34  <-- SCF
      4  -7.07018657E+002                    1.04162491E-010     370.61  <-- SCF
      5  -7.07018657E+002                    5.19624165E-013     393.36  <-- SCF
------------------------------------------------------------------------ <-- SCF
 
Final energy =  -707.0186571421     eV
(energy not corrected for finite basis set)
 

 ******************************** Symmetrised Forces ********************************
 *                                                                                  *
 *                           Cartesian components (eV/A)                            *
 * -------------------------------------------------------------------------------- *
 *                         x                    y                    z              *
 *                                                                                  *
 * H               1     -1.56605             -1.45017             -0.24267         *
 * H               2      1.59925              1.50993              0.41613         *
 * H               3      1.37659              1.80826              0.17314         *
 * H               4      0.28080             -0.07299              0.00185         *
 * H               5      0.20156             -0.20482              0.00187         *
 * H               6     -0.05312              0.27141              0.02604         *
 * H               7     -0.05312             -0.27141              0.02604         *
 * H               8      0.20156              0.20482              0.00187         *
 * H               9      0.28080              0.07299              0.00185         *
 * H              10      1.37659             -1.80826              0.17314         *
 * H              11      1.59925             -1.50993              0.41613         *
 * H              12     -1.56605              1.45017             -0.24267         *
 * H              13      0.05312              0.27141              0.02604         *
 * H              14     -0.20156             -0.20482              0.00187         *
 * H              15     -0.28080             -0.07299              0.00185         *
 * H              16     -1.37659              1.80826              0.17314         *
 * H              17     -1.59925              1.50993              0.41613         *
 * H              18      1.56605             -1.45017             -0.24267         *
 * H              19     -0.05312              0.27141             -0.02604         *
 * H              20      0.20156             -0.20482             -0.00187         *
 * H              21      0.28080             -0.07299             -0.00185         *
 * H              22      1.37659              1.80826             -0.17314         *
 * H              23      1.59925              1.50993             -0.41613         *
 * H              24     -1.56605             -1.45017              0.24267         *
 * H              25      0.05312             -0.27141             -0.02604         *
 * H              26     -0.20156              0.20482             -0.00187         *
 * H              27     -0.28080              0.07299             -0.00185         *
 * H              28     -1.37659             -1.80826             -0.17314         *
 * H              29     -1.59925             -1.50993             -0.41613         *
 * H              30      1.56605              1.45017              0.24267         *
 * H              31      0.05312              0.27141             -0.02604         *
 * H              32     -0.20156             -0.20482             -0.00187         *
 * H              33     -0.28080             -0.07299             -0.00185         *
 * H              34     -1.37659              1.80826             -0.17314         *
 * H              35     -1.59925              1.50993             -0.41613         *
 * H              36      1.56605             -1.45017              0.24267         *
 * H              37     -0.05312             -0.27141             -0.02604         *
 * H              38      0.20156              0.20482             -0.00187         *
 * H              39      0.28080              0.07299             -0.00185         *
 * H              40      1.37659             -1.80826             -0.17314         *
 * H              41      1.59925             -1.50993             -0.41613         *
 * H              42     -1.56605              1.45017              0.24267         *
 * H              43      0.05312             -0.27141              0.02604         *
 * H              44     -0.20156              0.20482              0.00187         *
 * H              45     -0.28080              0.07299              0.00185         *
 * H              46     -1.37659             -1.80826              0.17314         *
 * H              47     -1.59925             -1.50993              0.41613         *
 * H              48      1.56605              1.45017             -0.24267         *
 *                                                                                  *
 ************************************************************************************

 *********** Symmetrised Stress Tensor ***********
 *                                               *
 *          Cartesian components (GPa)           *
 * --------------------------------------------- *
 *             x             y             z     *
 *                                               *
 *  x   -189.576658      0.000000      0.000000  *
 *  y      0.000000   -190.630426      0.000000  *
 *  z      0.000000      0.000000   -167.673364  *
 *                                               *
 *  Pressure:  182.6268                          *
 *                                               *
 *************************************************
  
 +------------+-------------+-------------+-----------------+ <-- min LBFGS
 |    Step    |   lambda    |   F.delta'  |    enthalpy     | <-- min LBFGS
 +------------+-------------+-------------+-----------------+ <-- min LBFGS
 |  previous  |    0.000000 |    0.284811 |     -608.656410 | <-- min LBFGS
 | trial step |    1.000000 |   -1.332905 |     -607.969653 | <-- min LBFGS
 +------------+-------------+-------------+-----------------+ <-- min LBFGS
  

--------------------------------------------------------------------------------
 LBFGS: improving iteration         2 with line minimization (lambda=  0.176058)
--------------------------------------------------------------------------------

                           -------------------------------
                                      Unit Cell
                           -------------------------------
        Real Lattice(A)              Reciprocal Lattice(1/A)
     3.0337351    -0.0000000     0.0000000        2.071105482   0.000000000   0.000000000
    -0.0000000     5.2756987     0.0000000        0.000000000   1.190967416   0.000000000
     0.0000000     0.0000000     5.4097199        0.000000000   0.000000000   1.161462228

                       Lattice parameters(A)       Cell Angles
                    a =      3.033735          alpha =   90.000000
                    b =      5.275699          beta  =   90.000000
                    c =      5.409720          gamma =   90.000000

                Current cell volume =            86.582958 A**3

                           -------------------------------
                                     Cell Contents
                           -------------------------------

            xxxxxxxxxxxxxxxxxxxxxxxxxxxxxxxxxxxxxxxxxxxxxxxxxxxxxxxxxxxxxxxxx
            x  Element         Atom        Fractional coordinates of atoms  x
            x                 Number           u          v          w      x
            x---------------------------------------------------------------x
            x  H                 1         0.403653   0.116106   0.009666   x
            x  H                 2         0.576092   0.209919   0.029195   x
            x  H                 3         0.572009   0.554449   0.004934   x
            x  H                 4         0.133036   0.171894   0.248229   x
            x  H                 5         0.309187   0.349142   0.242885   x
            x  H                 6         0.175875   0.481398   0.249966   x
            x  H                 7         0.175875   0.518602   0.749966   x
            x  H                 8         0.309187   0.650858   0.742885   x
            x  H                 9         0.133036   0.828106   0.748229   x
            x  H                10         0.572009   0.445551   0.504934   x
            x  H                11         0.576092   0.790081   0.529195   x
            x  H                12         0.403653   0.883894   0.509666   x
            x  H                13         0.324125   0.981398   0.249966   x
            x  H                14         0.190813   0.849142   0.242885   x
            x  H                15         0.366964   0.671894   0.248229   x
            x  H                16        -0.072009   0.054449   0.004934   x
            x  H                17        -0.076092   0.709919   0.029195   x
            x  H                18         0.096347   0.616106   0.009666   x
            x  H                19         0.675875   0.981398   0.250034   x
            x  H                20         0.809187   0.849142   0.257115   x
            x  H                21         0.633036   0.671894   0.251771   x
            x  H                22         1.072009   0.054449   0.495066   x
            x  H                23         1.076092   0.709919   0.470805   x
            x  H                24         0.903653   0.616106   0.490334   x
            x  H                25         0.824125   0.518602   0.750034   x
            x  H                26         0.690813   0.650858   0.757115   x
            x  H                27         0.866964   0.828106   0.751771   x
            x  H                28         0.427991   0.445551  -0.004934   x
            x  H                29         0.423908   0.790081   0.970805   x
            x  H                30         0.596347   0.883894   0.990334   x
            x  H                31         0.824125   0.481398   0.250034   x
            x  H                32         0.690813   0.349142   0.257115   x
            x  H                33         0.866964   0.171894   0.251771   x
            x  H                34         0.427991   0.554449   0.495066   x
            x  H                35         0.423908   0.209919   0.470805   x
            x  H                36         0.596347   0.116106   0.490334   x
            x  H                37         0.675875   0.018602   0.750034   x
            x  H                38         0.809187   0.150858   0.757115   x
            x  H                39         0.633036   0.328106   0.751771   x
            x  H                40         0.072009  -0.054449  -0.004934   x
            x  H                41         1.076092   0.290081   0.970805   x
            x  H                42         0.903653   0.383894   0.990334   x
            x  H                43         0.324125   0.018602   0.749966   x
            x  H                44         0.190813   0.150858   0.742885   x
            x  H                45         0.366964   0.328106   0.748229   x
            x  H                46         0.927991  -0.054449   0.504934   x
            x  H                47        -0.076092   0.290081   0.529195   x
            x  H                48         0.096347   0.383894   0.509666   x
            xxxxxxxxxxxxxxxxxxxxxxxxxxxxxxxxxxxxxxxxxxxxxxxxxxxxxxxxxxxxxxxxx


------------------------------------------------------------------------ <-- SCF
SCF loop      Energy                           Energy gain       Timer   <-- SCF
                                               per atom          (sec)   <-- SCF
------------------------------------------------------------------------ <-- SCF
Initial  -7.03029036E+002                                        401.16  <-- SCF
      1  -7.05975520E+002                    6.13850747E-002     415.37  <-- SCF
      2  -7.05976370E+002                    1.77166835E-005     429.58  <-- SCF
      3  -7.05976373E+002                    6.05858535E-008     446.90  <-- SCF
      4  -7.05976373E+002                    3.50158210E-010     466.98  <-- SCF
      5  -7.05976373E+002                    2.28795757E-012     483.46  <-- SCF
------------------------------------------------------------------------ <-- SCF
 
Final energy =  -705.9763730980     eV
(energy not corrected for finite basis set)
 

 ******************************** Symmetrised Forces ********************************
 *                                                                                  *
 *                           Cartesian components (eV/A)                            *
 * -------------------------------------------------------------------------------- *
 *                         x                    y                    z              *
 *                                                                                  *
 * H               1      0.01136              0.02022              0.01435         *
 * H               2     -0.00867             -0.00884              0.01221         *
 * H               3     -0.00944             -0.01409             -0.00097         *
 * H               4     -0.17525              0.00520              0.00749         *
 * H               5     -0.09510              0.15116              0.01701         *
 * H               6      0.08779             -0.15863             -0.00678         *
 * H               7      0.08779              0.15863             -0.00678         *
 * H               8     -0.09510             -0.15116              0.01701         *
 * H               9     -0.17525             -0.00520              0.00749         *
 * H              10     -0.00944              0.01409             -0.00097         *
 * H              11     -0.00867              0.00884              0.01221         *
 * H              12      0.01136             -0.02022              0.01435         *
 * H              13     -0.08779             -0.15863             -0.00678         *
 * H              14      0.09510              0.15116              0.01701         *
 * H              15      0.17525              0.00520              0.00749         *
 * H              16      0.00944             -0.01409             -0.00097         *
 * H              17      0.00867             -0.00884              0.01221         *
 * H              18     -0.01136              0.02022              0.01435         *
 * H              19      0.08779             -0.15863              0.00678         *
 * H              20     -0.09510              0.15116             -0.01701         *
 * H              21     -0.17525              0.00520             -0.00749         *
 * H              22     -0.00944             -0.01409              0.00097         *
 * H              23     -0.00867             -0.00884             -0.01221         *
 * H              24      0.01136              0.02022             -0.01435         *
 * H              25     -0.08779              0.15863              0.00678         *
 * H              26      0.09510             -0.15116             -0.01701         *
 * H              27      0.17525             -0.00520             -0.00749         *
 * H              28      0.00944              0.01409              0.00097         *
 * H              29      0.00867              0.00884             -0.01221         *
 * H              30     -0.01136             -0.02022             -0.01435         *
 * H              31     -0.08779             -0.15863              0.00678         *
 * H              32      0.09510              0.15116             -0.01701         *
 * H              33      0.17525              0.00520             -0.00749         *
 * H              34      0.00944             -0.01409              0.00097         *
 * H              35      0.00867             -0.00884             -0.01221         *
 * H              36     -0.01136              0.02022             -0.01435         *
 * H              37      0.08779              0.15863              0.00678         *
 * H              38     -0.09510             -0.15116             -0.01701         *
 * H              39     -0.17525             -0.00520             -0.00749         *
 * H              40     -0.00944              0.01409              0.00097         *
 * H              41     -0.00867              0.00884             -0.01221         *
 * H              42      0.01136             -0.02022             -0.01435         *
 * H              43     -0.08779              0.15863             -0.00678         *
 * H              44      0.09510             -0.15116              0.01701         *
 * H              45      0.17525             -0.00520              0.00749         *
 * H              46      0.00944              0.01409             -0.00097         *
 * H              47      0.00867              0.00884              0.01221         *
 * H              48     -0.01136             -0.02022              0.01435         *
 *                                                                                  *
 ************************************************************************************

 *********** Symmetrised Stress Tensor ***********
 *                                               *
 *          Cartesian components (GPa)           *
 * --------------------------------------------- *
 *             x             y             z     *
 *                                               *
 *  x   -176.890895     -0.000000      0.000000  *
 *  y     -0.000000   -176.782769      0.000000  *
 *  z      0.000000      0.000000   -179.605632  *
 *                                               *
 *  Pressure:  177.7598                          *
 *                                               *
 *************************************************
  
 +------------+-------------+-------------+-----------------+ <-- min LBFGS
 |    Step    |   lambda    |   F.delta'  |    enthalpy     | <-- min LBFGS
 +------------+-------------+-------------+-----------------+ <-- min LBFGS
 |  previous  |    0.000000 |    0.284811 |     -608.656410 | <-- min LBFGS
 | trial step |    1.000000 |   -1.332905 |     -607.969653 | <-- min LBFGS
 |  line step |    0.176058 |    0.059863 |     -608.702908 | <-- min LBFGS
 +------------+-------------+-------------+-----------------+ <-- min LBFGS
  
 LBFGS: finished iteration     2 with enthalpy= -6.08702908E+002 eV
  
 +-----------+-----------------+-----------------+------------+-----+ <-- LBFGS
 | Parameter |      value      |    tolerance    |    units   | OK? | <-- LBFGS
 +-----------+-----------------+-----------------+------------+-----+ <-- LBFGS
 |  dE/ion   |   9.687054E-004 |   1.000000E-009 |         eV | No  | <-- LBFGS
 |  |F|max   |   1.814347E-001 |   1.000000E-005 |       eV/A | No  | <-- LBFGS
 |  |dR|max  |   6.215501E-003 |   1.000000E-005 |          A | No  | <-- LBFGS
 |   Smax    |   3.217231E+000 |   1.000000E-005 |        GPa | No  | <-- LBFGS
 +-----------+-----------------+-----------------+------------+-----+ <-- LBFGS
  

================================================================================
 Starting LBFGS iteration          3 ...
================================================================================
  
 +------------+-------------+-------------+-----------------+ <-- min LBFGS
 |    Step    |   lambda    |   F.delta'  |    enthalpy     | <-- min LBFGS
 +------------+-------------+-------------+-----------------+ <-- min LBFGS
 |  previous  |    0.000000 |    0.118986 |     -608.702908 | <-- min LBFGS
 +------------+-------------+-------------+-----------------+ <-- min LBFGS
  

--------------------------------------------------------------------------------
 LBFGS: starting iteration         3 with trial guess (lambda=  1.000000)
--------------------------------------------------------------------------------

                           -------------------------------
                                      Unit Cell
                           -------------------------------
        Real Lattice(A)              Reciprocal Lattice(1/A)
     3.0329730    -0.0000000     0.0000000        2.071625896   0.000000000   0.000000000
    -0.0000000     5.2739953     0.0000000        0.000000000   1.191352095   0.000000000
     0.0000000     0.0000000     5.4177992        0.000000000   0.000000000   1.159730184

                       Lattice parameters(A)       Cell Angles
                    a =      3.032973          alpha =   90.000000
                    b =      5.273995          beta  =   90.000000
                    c =      5.417799          gamma =   90.000000

                Current cell volume =            86.662493 A**3

                           -------------------------------
                                     Cell Contents
                           -------------------------------

            xxxxxxxxxxxxxxxxxxxxxxxxxxxxxxxxxxxxxxxxxxxxxxxxxxxxxxxxxxxxxxxxx
            x  Element         Atom        Fractional coordinates of atoms  x
            x                 Number           u          v          w      x
            x---------------------------------------------------------------x
            x  H                 1         0.403084   0.116017   0.009891   x
            x  H                 2         0.576790   0.210282   0.029615   x
            x  H                 3         0.572520   0.554798   0.004976   x
            x  H                 4         0.126617   0.171972   0.248389   x
            x  H                 5         0.305741   0.352346   0.243247   x
            x  H                 6         0.179170   0.478064   0.249834   x
            x  H                 7         0.179170   0.521936   0.749834   x
            x  H                 8         0.305741   0.647654   0.743247   x
            x  H                 9         0.126617   0.828028   0.748389   x
            x  H                10         0.572520   0.445202   0.504976   x
            x  H                11         0.576790   0.789718   0.529615   x
            x  H                12         0.403084   0.883983   0.509891   x
            x  H                13         0.320830   0.978064   0.249834   x
            x  H                14         0.194259   0.852346   0.243247   x
            x  H                15         0.373383   0.671972   0.248389   x
            x  H                16        -0.072520   0.054798   0.004976   x
            x  H                17        -0.076790   0.710282   0.029615   x
            x  H                18         0.096916   0.616017   0.009891   x
            x  H                19         0.679170   0.978064   0.250166   x
            x  H                20         0.805741   0.852346   0.256753   x
            x  H                21         0.626617   0.671972   0.251611   x
            x  H                22         1.072520   0.054798   0.495024   x
            x  H                23         1.076790   0.710282   0.470385   x
            x  H                24         0.903084   0.616017   0.490109   x
            x  H                25         0.820830   0.521936   0.750166   x
            x  H                26         0.694259   0.647654   0.756753   x
            x  H                27         0.873383   0.828028   0.751611   x
            x  H                28         0.427480   0.445202  -0.004976   x
            x  H                29         0.423210   0.789718   0.970385   x
            x  H                30         0.596916   0.883983   0.990109   x
            x  H                31         0.820830   0.478064   0.250166   x
            x  H                32         0.694259   0.352346   0.256753   x
            x  H                33         0.873383   0.171972   0.251611   x
            x  H                34         0.427480   0.554798   0.495024   x
            x  H                35         0.423210   0.210282   0.470385   x
            x  H                36         0.596916   0.116017   0.490109   x
            x  H                37         0.679170   0.021936   0.750166   x
            x  H                38         0.805741   0.147654   0.756753   x
            x  H                39         0.626617   0.328028   0.751611   x
            x  H                40         0.072520  -0.054798  -0.004976   x
            x  H                41         1.076790   0.289718   0.970385   x
            x  H                42         0.903084   0.383983   0.990109   x
            x  H                43         0.320830   0.021936   0.749834   x
            x  H                44         0.194259   0.147654   0.743247   x
            x  H                45         0.373383   0.328028   0.748389   x
            x  H                46         0.927480  -0.054798   0.504976   x
            x  H                47        -0.076790   0.289718   0.529615   x
            x  H                48         0.096916   0.383983   0.509891   x
            xxxxxxxxxxxxxxxxxxxxxxxxxxxxxxxxxxxxxxxxxxxxxxxxxxxxxxxxxxxxxxxxx


------------------------------------------------------------------------ <-- SCF
SCF loop      Energy                           Energy gain       Timer   <-- SCF
                                               per atom          (sec)   <-- SCF
------------------------------------------------------------------------ <-- SCF
Initial  -7.04990537E+002                                        491.04  <-- SCF
      1  -7.06010417E+002                    2.12475126E-002     505.81  <-- SCF
      2  -7.06010884E+002                    9.72277293E-006     520.17  <-- SCF
      3  -7.06010885E+002                    2.12950442E-008     534.44  <-- SCF
      4  -7.06010885E+002                    7.52125769E-011     549.47  <-- SCF
      5  -7.06010885E+002                    3.62528488E-013     566.48  <-- SCF
------------------------------------------------------------------------ <-- SCF
 
Final energy =  -706.0108851682     eV
(energy not corrected for finite basis set)
 

 ******************************** Symmetrised Forces ********************************
 *                                                                                  *
 *                           Cartesian components (eV/A)                            *
 * -------------------------------------------------------------------------------- *
 *                         x                    y                    z              *
 *                                                                                  *
 * H               1      0.10903              0.11282              0.12930         *
 * H               2     -0.13473             -0.12404              0.08355         *
 * H               3     -0.14326             -0.19383             -0.01940         *
 * H               4      0.41711             -0.07108             -0.01595         *
 * H               5      0.27848             -0.34357             -0.03196         *
 * H               6     -0.15611              0.41318              0.02318         *
 * H               7     -0.15611             -0.41318              0.02318         *
 * H               8      0.27848              0.34357             -0.03196         *
 * H               9      0.41711              0.07108             -0.01595         *
 * H              10     -0.14326              0.19383             -0.01940         *
 * H              11     -0.13473              0.12404              0.08355         *
 * H              12      0.10903             -0.11282              0.12930         *
 * H              13      0.15611              0.41318              0.02318         *
 * H              14     -0.27848             -0.34357             -0.03196         *
 * H              15     -0.41711             -0.07108             -0.01595         *
 * H              16      0.14326             -0.19383             -0.01940         *
 * H              17      0.13473             -0.12404              0.08355         *
 * H              18     -0.10903              0.11282              0.12930         *
 * H              19     -0.15611              0.41318             -0.02318         *
 * H              20      0.27848             -0.34357              0.03196         *
 * H              21      0.41711             -0.07108              0.01595         *
 * H              22     -0.14326             -0.19383              0.01940         *
 * H              23     -0.13473             -0.12404             -0.08355         *
 * H              24      0.10903              0.11282             -0.12930         *
 * H              25      0.15611             -0.41318             -0.02318         *
[...]
              H 1  -- H 35                   0.02        2.51211
              H 19 -- H 41                  -0.01        2.54816
              H 13 -- H 47                  -0.01        2.54816
              H 2  -- H 7                   -0.01        2.54816
              H 25 -- H 35                  -0.01        2.54816
              H 23 -- H 37                  -0.01        2.54816
              H 6  -- H 11                  -0.01        2.54816
              H 17 -- H 43                  -0.01        2.54816
              H 29 -- H 31                  -0.01        2.54816
              H 10 -- H 22                   0.01        2.56157
              H 3  -- H 40                   0.01        2.56157
              H 34 -- H 46                   0.01        2.56157
              H 16 -- H 28                   0.01        2.56157
              H 10 -- H 27                   0.03        2.58884
              H 9  -- H 28                   0.03        2.58884
              H 15 -- H 22                   0.03        2.58884
              H 4  -- H 34                   0.03        2.58884
              H 39 -- H 46                   0.03        2.58884
              H 3  -- H 33                   0.03        2.58884
              H 16 -- H 21                   0.03        2.58884
              H 40 -- H 45                   0.03        2.58884
              H 11 -- H 48                   0.02        2.60074
              H 12 -- H 47                   0.02        2.60074
              H 29 -- H 42                   0.02        2.60074
              H 30 -- H 41                   0.02        2.60074
              H 2  -- H 18                   0.02        2.60074
              H 24 -- H 35                   0.02        2.60074
              H 1  -- H 17                   0.02        2.60074
              H 23 -- H 36                   0.02        2.60074
              H 14 -- H 28                   0.01        2.62250
              H 3  -- H 38                   0.01        2.62250
              H 34 -- H 44                   0.01        2.62250
              H 10 -- H 20                   0.01        2.62250
              H 16 -- H 26                   0.01        2.62250
              H 8  -- H 22                   0.01        2.62250
              H 5  -- H 40                   0.01        2.62250
              H 32 -- H 46                   0.01        2.62250
              H 25 -- H 46                   0.02        2.62694
              H 6  -- H 22                   0.02        2.62694
              H 7  -- H 40                   0.02        2.62694
              H 16 -- H 31                   0.02        2.62694
              H 13 -- H 34                   0.02        2.62694
              H 10 -- H 37                   0.02        2.62694
              H 28 -- H 43                   0.02        2.62694
              H 3  -- H 19                   0.02        2.62694
              H 24 -- H 37                   0.01        2.63759
              H 18 -- H 43                   0.01        2.63759
              H 1  -- H 7                    0.01        2.63759
              H 6  -- H 12                   0.01        2.63759
              H 25 -- H 36                   0.01        2.63759
              H 30 -- H 31                   0.01        2.63759
              H 19 -- H 42                   0.01        2.63759
              H 13 -- H 48                   0.01        2.63759
              H 7  -- H 30                  -0.00        2.64189
              H 12 -- H 25                  -0.00        2.64189
              H 6  -- H 36                  -0.00        2.64189
              H 18 -- H 19                  -0.00        2.64189
              H 13 -- H 24                  -0.00        2.64189
              H 1  -- H 31                  -0.00        2.64189
              H 42 -- H 43                  -0.00        2.64189
              H 37 -- H 48                  -0.00        2.64189
              H 42 -- H 48                   0.02        2.65761
              H 12 -- H 30                   0.02        2.65761
              H 18 -- H 24                   0.02        2.65761
              H 1  -- H 36                   0.02        2.65761
              H 5  -- H 14                  -0.05        2.66315
              H 20 -- H 32                  -0.05        2.66315
              H 8  -- H 44                  -0.05        2.66315
              H 26 -- H 38                  -0.05        2.66315
              H 11 -- H 33                   0.03        2.67050
              H 4  -- H 29                   0.03        2.67050
              H 23 -- H 45                   0.03        2.67050
              H 17 -- H 39                   0.03        2.67050
              H 21 -- H 47                   0.03        2.67050
              H 15 -- H 41                   0.03        2.67050
              H 9  -- H 35                   0.03        2.67050
              H 2  -- H 27                   0.03        2.67050
              H 8  -- H 15                   0.02        2.67581
              H 4  -- H 44                   0.02        2.67581
              H 33 -- H 38                   0.02        2.67581
              H 21 -- H 26                   0.02        2.67581
              H 32 -- H 39                   0.02        2.67581
              H 20 -- H 27                   0.02        2.67581
              H 5  -- H 45                   0.02        2.67581
              H 9  -- H 14                   0.02        2.67581
              H 19 -- H 31                  -0.04        2.67581
              H 6  -- H 13                  -0.04        2.67581
              H 25 -- H 37                  -0.04        2.67581
              H 7  -- H 43                  -0.04        2.67581
              H 27 -- H 42                   0.04        2.68111
              H 9  -- H 48                   0.04        2.68111
              H 21 -- H 36                   0.04        2.68111
              H 1  -- H 15                   0.04        2.68111
              H 12 -- H 45                   0.04        2.68111
              H 30 -- H 39                   0.04        2.68111
              H 24 -- H 33                   0.04        2.68111
              H 4  -- H 18                   0.04        2.68111
              H 40 -- H 46                   0.04        2.68293
              H 10 -- H 28                   0.04        2.68293
              H 3  -- H 34                   0.04        2.68293
              H 16 -- H 22                   0.04        2.68293
              H 25 -- H 31                   0.02        2.70622
              H 19 -- H 37                   0.02        2.70622
              H 13 -- H 43                   0.02        2.70622
              H 6  -- H 7                    0.02        2.70622
              H 7  -- H 46                   0.03        2.71532
              H 22 -- H 31                   0.03        2.71532
              H 25 -- H 40                   0.03        2.71532
              H 10 -- H 43                   0.03        2.71532
              H 6  -- H 16                   0.03        2.71532
              H 19 -- H 34                   0.03        2.71532
              H 3  -- H 13                   0.03        2.71532
              H 28 -- H 37                   0.03        2.71532
              H 27 -- H 47                   0.04        2.71799
              H 15 -- H 35                   0.04        2.71799
              H 9  -- H 41                   0.04        2.71799
              H 2  -- H 21                   0.04        2.71799
              H 29 -- H 45                   0.04        2.71799
              H 11 -- H 39                   0.04        2.71799
              H 4  -- H 23                   0.04        2.71799
              H 17 -- H 33                   0.04        2.71799
              H 4  -- H 15                   0.02        2.73879
              H 21 -- H 33                   0.02        2.73879
              H 9  -- H 45                   0.02        2.73879
              H 27 -- H 39                   0.02        2.73879
              H 3  -- H 10                   0.04        2.75915
              H 28 -- H 34                   0.04        2.75915
              H 16 -- H 46                   0.04        2.75915
              H 22 -- H 40                   0.04        2.75915
              H 9  -- H 10                   0.03        2.75922
              H 33 -- H 34                   0.03        2.75922
              H 3  -- H 4                    0.03        2.75922
              H 27 -- H 28                   0.03        2.75922
              H 21 -- H 22                   0.03        2.75922
              H 45 -- H 46                   0.03        2.75922
              H 15 -- H 16                   0.03        2.75922
              H 39 -- H 40                   0.03        2.75922
              H 21 -- H 35                   0.04        2.77450
              H 23 -- H 33                   0.04        2.77450
              H 27 -- H 41                   0.04        2.77450
              H 2  -- H 15                   0.04        2.77450
              H 9  -- H 47                   0.04        2.77450
              H 4  -- H 17                   0.04        2.77450
              H 29 -- H 39                   0.04        2.77450
              H 11 -- H 45                   0.04        2.77450
              H 9  -- H 42                   0.04        2.77758
              H 27 -- H 48                   0.04        2.77758
              H 30 -- H 45                   0.04        2.77758
              H 15 -- H 36                   0.04        2.77758
              H 12 -- H 39                   0.04        2.77758
              H 1  -- H 21                   0.04        2.77758
              H 4  -- H 24                   0.04        2.77758
              H 18 -- H 33                   0.04        2.77758
              H 2  -- H 26                   0.01        2.78193
              H 8  -- H 35                   0.01        2.78193
              H 17 -- H 38                   0.01        2.78193
              H 23 -- H 44                   0.01        2.78193
              H 11 -- H 32                   0.01        2.78193
              H 5  -- H 29                   0.01        2.78193
              H 20 -- H 47                   0.01        2.78193
              H 14 -- H 41                   0.01        2.78193
              H 12 -- H 48                   0.02        2.79678
              H 30 -- H 42                   0.02        2.79678
              H 1  -- H 18                   0.02        2.79678
              H 24 -- H 36                   0.02        2.79678
              H 10 -- H 14                   0.02        2.81408
              H 20 -- H 28                   0.02        2.81408
              H 3  -- H 44                   0.02        2.81408
              H 34 -- H 38                   0.02        2.81408
              H 32 -- H 40                   0.02        2.81408
              H 8  -- H 16                   0.02        2.81408
              H 5  -- H 46                   0.02        2.81408
              H 22 -- H 26                   0.02        2.81408
              H 8  -- H 21                   0.01        2.82171
              H 33 -- H 44                   0.01        2.82171
              H 4  -- H 38                   0.01        2.82171
              H 15 -- H 26                   0.01        2.82171
              H 9  -- H 20                   0.01        2.82171
              H 32 -- H 45                   0.01        2.82171
              H 5  -- H 39                   0.01        2.82171
              H 14 -- H 27                   0.01        2.82171
              H 10 -- H 42                   0.01        2.82454
              H 30 -- H 46                   0.01        2.82454
              H 28 -- H 48                   0.01        2.82454
              H 12 -- H 40                   0.01        2.82454
              H 1  -- H 22                   0.01        2.82454
              H 18 -- H 34                   0.01        2.82454
              H 16 -- H 36                   0.01        2.82454
              H 3  -- H 24                   0.01        2.82454
              H 19 -- H 38                   0.01        2.82775
              H 13 -- H 44                   0.01        2.82775
              H 26 -- H 31                   0.01        2.82775
              H 6  -- H 8                    0.01        2.82775
              H 25 -- H 32                   0.01        2.82775
              H 5  -- H 7                    0.01        2.82775
              H 20 -- H 37                   0.01        2.82775
              H 14 -- H 43                   0.01        2.82775
              H 16 -- H 47                  -0.00        2.83324
              H 28 -- H 35                  -0.00        2.83324
              H 23 -- H 40                  -0.00        2.83324
              H 22 -- H 41                  -0.00        2.83324
              H 3  -- H 11                  -0.00        2.83324
              H 2  -- H 10                  -0.00        2.83324
              H 17 -- H 46                  -0.00        2.83324
              H 29 -- H 34                  -0.00        2.83324
              H 6  -- H 40                   0.03        2.83354
              H 16 -- H 25                   0.03        2.83354
              H 31 -- H 46                   0.03        2.83354
              H 7  -- H 22                   0.03        2.83354
              H 13 -- H 28                   0.03        2.83354
              H 3  -- H 37                   0.03        2.83354
              H 34 -- H 43                   0.03        2.83354
              H 10 -- H 19                   0.03        2.83354
              H 2  -- H 17                   0.05        2.84429
              H 23 -- H 35                   0.05        2.84429
              H 11 -- H 47                   0.05        2.84429
              H 29 -- H 41                   0.05        2.84429
              H 7  -- H 36                   0.03        2.85057
              H 24 -- H 43                   0.03        2.85057
              H 18 -- H 37                   0.03        2.85057
              H 6  -- H 30                   0.03        2.85057
              H 1  -- H 25                   0.03        2.85057
              H 12 -- H 31                   0.03        2.85057
              H 13 -- H 42                   0.03        2.85057
              H 19 -- H 48                   0.03        2.85057
              H 22 -- H 34                   0.04        2.85479
              H 3  -- H 16                   0.04        2.85479
              H 28 -- H 40                   0.04        2.85479
              H 10 -- H 46                   0.04        2.85479
              H 33 -- H 37                   0.02        2.86259
              H 21 -- H 25                   0.02        2.86259
              H 7  -- H 15                   0.02        2.86259
              H 4  -- H 43                   0.02        2.86259
              H 6  -- H 45                   0.02        2.86259
              H 31 -- H 39                   0.02        2.86259
              H 19 -- H 27                   0.02        2.86259
              H 9  -- H 13                   0.02        2.86259
              H 23 -- H 39                   0.04        2.86919
              H 17 -- H 45                   0.04        2.86919
              H 29 -- H 33                   0.04        2.86919
              H 4  -- H 11                   0.04        2.86919
              H 15 -- H 47                   0.04        2.86919
              H 21 -- H 41                   0.04        2.86919
              H 27 -- H 35                   0.04        2.86919
              H 2  -- H 9                    0.04        2.86919
              H 14 -- H 48                   0.02        2.87616
              H 20 -- H 42                   0.02        2.87616
              H 1  -- H 8                    0.02        2.87616
              H 26 -- H 36                   0.02        2.87616
              H 24 -- H 38                   0.02        2.87616
              H 18 -- H 44                   0.02        2.87616
              H 5  -- H 12                   0.02        2.87616
              H 30 -- H 32                   0.02        2.87616
              H 19 -- H 43                   0.02        2.91214
              H 7  -- H 31                   0.02        2.91214
              H 13 -- H 37                   0.02        2.91214
              H 6  -- H 25                   0.02        2.91214
              H 31 -- H 40                   0.04        2.91369
              H 6  -- H 46                   0.04        2.91369
              H 7  -- H 16                   0.04        2.91369
              H 22 -- H 25                   0.04        2.91369
              H 19 -- H 28                   0.04        2.91369
              H 3  -- H 43                   0.04        2.91369
              H 10 -- H 13                   0.04        2.91369
              H 34 -- H 37                   0.04        2.91369
              H 21 -- H 27                   0.02        2.91558
              H 9  -- H 15                   0.02        2.91558
              H 33 -- H 39                   0.02        2.91558
              H 4  -- H 45                   0.02        2.91558
              H 26 -- H 35                   0.03        2.92165
              H 2  -- H 8                    0.03        2.92165
              H 20 -- H 41                   0.03        2.92165
              H 29 -- H 32                   0.03        2.92165
              H 5  -- H 11                   0.03        2.92165
              H 23 -- H 38                   0.03        2.92165
              H 14 -- H 47                   0.03        2.92165
              H 17 -- H 44                   0.03        2.92165
              H 8  -- H 14                   0.01        2.92246
              H 20 -- H 26                   0.01        2.92246
              H 5  -- H 44                   0.01        2.92246
              H 32 -- H 38                   0.01        2.92246
              H 2  -- H 47                   0.02        2.93108
              H 35 -- H 41                   0.02        2.93108
              H 11 -- H 17                   0.02        2.93108
              H 23 -- H 29                   0.02        2.93108
              H 14 -- H 42                   0.03        2.95406
              H 20 -- H 48                   0.03        2.95406
              H 8  -- H 36                   0.03        2.95406
              H 1  -- H 26                   0.03        2.95406
              H 24 -- H 44                   0.03        2.95406
              H 18 -- H 38                   0.03        2.95406
              H 5  -- H 30                   0.03        2.95406
              H 12 -- H 32                   0.03        2.95406
              H 24 -- H 42                   0.00        2.96670
              H 18 -- H 48                   0.00        2.96670
              H 30 -- H 36                   0.00        2.96670
              H 1  -- H 12                   0.00        2.96670
======================================================================


Writing analysis data to Pbcn.castep_bin

Writing model to Pbcn.check
 
 A BibTeX formatted list of references used in this run has been written to 
 Pbcn.bib
 
Initialisation time =      2.80 s
Calculation time    =   3600.61 s
Finalisation time   =      1.39 s
Total time          =   3604.79 s
Peak Memory Use     = 509608 kB
  
Overall parallel efficiency rating: Poor (36%)                                  
  
Data was distributed by:-
G-vector (5-way); efficiency rating: Poor (38%)                                 
k-point (3-way); efficiency rating: Very good (89%)                             
