 +-------------------------------------------------+
 |                                                 |
 |      CCC   AA    SSS  TTTTT  EEEEE  PPPP        |
 |     C     A  A  S       T    E      P   P       |
 |     C     AAAA   SS     T    EEE    PPPP        |
 |     C     A  A     S    T    E      P           |
 |      CCC  A  A  SSS     T    EEEEE  P           |
 |                                                 |
 +-------------------------------------------------+
 |                                                 |
 | Welcome to Academic Release CASTEP version 18.1 |          
 | Ab Initio Total Energy Program                  |
 |                                                 |
 | Authors:                                        |
 | M. Segall, M. Probert, C. Pickard, P. Hasnip,   |
 | S. Clark, K. Refson, J. R. Yates, M. Payne      |
 |                                                 |
 | Contributors:                                   |
 | P. Lindan, P. Haynes, J. White, V. Milman,      |
 | N. Govind, M. Gibson, P. Tulip, V. Cocula,      |
 | B. Montanari, D. Quigley, M. Glover,            |
 | L. Bernasconi, A. Perlov, M. Plummer,           |
 | E. McNellis, J. Meyer, J. Gale, D. Jochym       |
 | J. Aarons, B. Walker, R. Gillen, D. Jones       |
 | T. Green, I. J. Bush, C. J. Armstrong,          |
 | E. J. Higgins, E. L. Brown, M. S. McFly,        |
 | J. Wilkins, B-C. Shih, P. J. P. Byrne           |
 |                                                 |
 | Copyright (c) 2000 - 2017                       |
 |                                                 |
 |     Distributed under the terms of an           |
 |     Agreement between the United Kingdom        |
 |     Car-Parrinello (UKCP) Consortium,           |
 |     Daresbury Laboratory and Accelrys, Inc.     |
 |                                                 |
 | Please cite                                     |
 |                                                 |
 |     "First principles methods using CASTEP"     |
 |                                                 |
 |         Zeitschrift fuer Kristallographie       |
 |           220(5-6) pp. 567-570 (2005)           |
 |                                                 |
 | S. J. Clark, M. D. Segall, C. J. Pickard,       |
 | P. J. Hasnip, M. J. Probert, K. Refson,         |
 | M. C. Payne                                     |
 |                                                 |
 |       in all publications arising from          |
 |              your use of CASTEP                 |
 |                                                 |
 +-------------------------------------------------+


 Compiled for linux_x86_64_gfortran4.8 on Thu, 19 Jul 2018 15:42:32 +0100
 from code version 70483bd0ad64+  Sun, 10 Dec 2017 12:18:29 +0000
 Compiler: GNU Fortran 4.8.5; Optimisation: fast
 MATHLIBS: Intel MKL(2018.0.0) (LAPACK version 3.7.0)
 FFT Lib : mkl
 Fundamental constants values: CODATA 2014

 Run started: Wed, 15 Jul 2020 14:46:24 +0100

 Atomic calculation performed for H: 1s1

 Converged in 41 iterations to an ae energy of -12.488 eV

   ============================================================                
   | Pseudopotential Report - Date of generation 15-07-2020   |                
   ------------------------------------------------------------                
   | Element: H Ionic charge:  1.00 Level of theory: PBE      |                
   | Atomic Solver: Koelling-Harmon                           |                
   |                                                          |                
   |               Reference Electronic Structure             |                
   |         Orbital         Occupation         Energy        |                
   |            1s              1.000           -0.239        |                
   |                                                          |                
   |                 Pseudopotential Definition               |                
   |        Beta     l      e      Rc     scheme   norm       |                
   |         loc     0   -0.239   0.702     qc      1         |                
   |                                                          |                
   | No charge augmentation                                   |                
   | No partial core correction                               |                
   ------------------------------------------------------------                
   | "0|0.7|2|6|8|10L(qc=10)"                                 |                
   ------------------------------------------------------------                
   |      Author: Chris J. Pickard, Cambridge University      |                
   ============================================================                

 Pseudo atomic calculation performed for H 1s1

 Converged in 24 iterations to a total energy of -12.4850 eV

 Calculation parallelised over 16 processes.
 Data is distributed by k-point(16-way)

 ************************************ Title ************************************
 

 ***************************** General Parameters ******************************
  
 output verbosity                               : normal  (1)
 write checkpoint data to                       : Pca21_30GPa.check
 type of calculation                            : geometry optimization
 stress calculation                             : off
 density difference calculation                 : off
 electron localisation func (ELF) calculation   : off
 Hirshfeld analysis                             : off
 unlimited duration calculation
 timing information                             : on
 memory usage estimate                          : on
 write extra output files                       : on
 write final potential to formatted file        : off
 write final density to formatted file          : off
 write structure in CELL formatted file         : on
 write BibTeX reference list                    : on
 write OTFG pseudopotential files               : on
 write electrostatic potential file             : on
 write bands file                               : on
 checkpoint writing                             : both castep_bin and check files
  
 output         length unit                     : A
 output           mass unit                     : amu
 output           time unit                     : ps
 output         charge unit                     : e
 output           spin unit                     : hbar/2
 output         energy unit                     : eV
 output          force unit                     : eV/A
 output       velocity unit                     : A/ps
 output       pressure unit                     : GPa
 output     inv_length unit                     : 1/A
 output      frequency unit                     : cm-1
 output force constant unit                     : eV/A**2
 output         volume unit                     : A**3
 output   IR intensity unit                     : (D/A)**2/amu
 output         dipole unit                     : D
 output         efield unit                     : eV/A/e
 output        entropy unit                     : J/mol/K
  
 wavefunctions paging                           : none
 random number generator seed                   : randomised (144624980)
 data distribution                              : optimal for this architecture
 optimization strategy                          : maximize speed(+++)

 *********************** Exchange-Correlation Parameters ***********************
  
 using functional                               : Perdew Burke Ernzerhof
 relativistic treatment                         : Koelling-Harmon
 DFT+D: Semi-empirical dispersion correction    : off

 ************************* Pseudopotential Parameters **************************
  
 pseudopotential representation                 : reciprocal space
 <beta|phi> representation                      : reciprocal space
 spin-orbit coupling                            : off

 **************************** Basis Set Parameters *****************************
  
 plane wave basis set cut-off                   :  1300.0000   eV
 size of standard grid                          :     2.0000
 size of   fine   gmax                          :    36.9437   1/A
 finite basis set correction                    : automatic
 number of sample energies                      :          3
           sample  spacing                      :     5.0000   eV

 **************************** Electronic Parameters ****************************
  
 number of  electrons                           :  8.000    
 net charge of system                           :  0.000    
 treating system as non-spin-polarized
 number of bands                                :          4

 ********************* Electronic Minimization Parameters **********************
  
 Method: Treating system as non-metallic,
         and number of  SD  steps               :          1
         and number of  CG  steps               :          4
  
 total energy / atom convergence tol.           : 0.1000E-10   eV
 eigen-energy convergence tolerance             : 0.2000E-10   eV
 max force / atom convergence tol.              : ignored
 convergence tolerance window                   :          3   cycles
 max. number of SCF cycles                      :        100
 periodic dipole correction                     : NONE

 ************************** Density Mixing Parameters **************************
  
 density-mixing scheme                          : Broyden
 max. length of mixing history                  :         20
 charge density mixing amplitude                : 0.8000    
 cut-off energy for mixing                      :  1300.       eV

 *********************** Population Analysis Parameters ************************
  
 Population analysis with cutoff                :  3.000       A
 Population analysis output                     : summary and pdos components

 ********************** Geometry Optimization Parameters ***********************
  
 optimization method                            : LBFGS
 max. no. of LBFGS updates                      : unbounded
 variable cell method                           : fixed basis quality
 max. number of steps                           :        300
 estimated bulk modulus                         :  500.0       GPa
 estimated <frequency>                          :  1668.       cm-1
 geom line minimiser                            : on
 with line minimiser tolerance                  :     0.4000
 total energy convergence tolerance             : 0.1000E-08   eV/atom
        max ionic |force| tolerance             : 0.1000E-05   eV/A
 max ionic |displacement| tolerance             : 0.1000E-05   A
   max |stress component| tolerance             : 0.1000E-05   GPa
 convergence tolerance window                   :          2   steps
 backup results every                           :      14400   seconds
 write geom trajectory file                     : on

 *******************************************************************************
  

                           -------------------------------
                                      Unit Cell
                           -------------------------------
        Real Lattice(A)                      Reciprocal Lattice(1/A)
     3.4062115     0.0000000     0.0000000        1.844625687   0.000000000   0.000000000
     0.0000000     1.9787566     0.0000000        0.000000000   3.175319972   0.000000000
     0.0000000     0.0000000     3.1467884        0.000000000   0.000000000   1.996697750

                       Lattice parameters(A)       Cell Angles
                    a =      3.406212          alpha =   90.000000
                    b =      1.978757          beta  =   90.000000
                    c =      3.146788          gamma =   90.000000

                       Current cell volume =            21.209554       A**3
                                   density =             0.380183   AMU/A**3
                                           =             0.631309     g/cm^3

                           -------------------------------
                                     Cell Contents
                           -------------------------------
                         Total number of ions in cell =    8
                      Total number of species in cell =    1
                        Max number of any one species =    8

            xxxxxxxxxxxxxxxxxxxxxxxxxxxxxxxxxxxxxxxxxxxxxxxxxxxxxxxxxxxx
            x  Element    Atom        Fractional coordinates of atoms  x
            x            Number           u          v          w      x
            x----------------------------------------------------------x
            x  H            1         0.352641   0.136480   0.378419   x 
            x  H            2         0.480560   0.363450   0.500481   x 
            x  H            3         0.980560   0.636550   0.500481   x 
            x  H            4         0.852641   0.863520   0.378419   x 
            x  H            5         0.019440   0.363450   0.000481   x 
            x  H            6         0.147359   0.136480   0.878419   x 
            x  H            7         0.519440   0.636550   0.000481   x 
            x  H            8         0.647359   0.863520   0.878419   x 
            xxxxxxxxxxxxxxxxxxxxxxxxxxxxxxxxxxxxxxxxxxxxxxxxxxxxxxxxxxxx


                         No user defined ionic velocities

                           -------------------------------
                                   Details of Species
                           -------------------------------

                               Mass of species in AMU
                                    H    1.0078250

                          Electric Quadrupole Moment (Barn)
                                    H    0.0028600 Isotope  2

                          Files used for pseudopotentials:
                                    H 0|0.7|2|6|8|10L(qc=10)

                           -------------------------------
                              k-Points For BZ Sampling
                           -------------------------------
                       MP grid size for SCF calculation is  7 13  9
                            with an offset of   0.000  0.000  0.000
                       Number of kpoints used =           140

                           -------------------------------
                               Symmetry and Constraints
                           -------------------------------

                      Maximum deviation from symmetry = 0.387620E-14     ANG

                      Number of symmetry operations   =           4
                      Number of ionic constraints     =           3
                      Point group of crystal =     6: C2v, mm2, 2 mm
                      Space group of crystal =    29: Pca2_1, P 2c -2ac

             Set iprint > 1 for details on symmetry rotations/translations

                         Centre of mass is constrained
             Set iprint > 1 for details of linear ionic constraints

                         Number of cell constraints= 3
                         Cell constraints are:  1 2 3 0 0 0

                         External pressure/stress (GPa)
                         30.00000   0.00000   0.00000
                                   30.00000   0.00000
                                             30.00000
  
+---------------- MEMORY AND SCRATCH DISK ESTIMATES PER PROCESS --------------+
|                                                     Memory          Disk    |
| Baseline code, static data and system overhead      411.0 MB         0.0 MB |
| BLAS internal memory storage                          0.0 MB         0.0 MB |
| Model and support data                               15.4 MB         0.0 MB |
| Electronic energy minimisation requirements          11.4 MB         0.0 MB |
| Force calculation requirements                        4.9 MB         0.0 MB |
|                                               ----------------------------- |
| Approx. total storage required per process          437.7 MB         0.0 MB |
|                                                                             |
| Requirements will fluctuate during execution and may exceed these estimates |
+-----------------------------------------------------------------------------+
Calculating finite basis set correction with  3 cut-off energies.
Calculating total energy with cut-off of 1290.000 eV.
------------------------------------------------------------------------ <-- SCF
SCF loop      Energy                           Energy gain       Timer   <-- SCF
                                               per atom          (sec)   <-- SCF
------------------------------------------------------------------------ <-- SCF
Initial   2.04014613E+002                                          3.09  <-- SCF
      1  -9.86179698E+001                    3.78290728E+001       3.84  <-- SCF
      2  -1.23129745E+002                    3.06397192E+000       4.38  <-- SCF
      3  -1.23236604E+002                    1.33573861E-002       4.80  <-- SCF
      4  -1.22536741E+002                   -8.74829371E-002       5.72  <-- SCF
      5  -1.22511777E+002                   -3.12044833E-003       6.66  <-- SCF
      6  -1.22512594E+002                    1.02125938E-004       7.59  <-- SCF
      7  -1.22512679E+002                    1.06288955E-005       8.51  <-- SCF
      8  -1.22512680E+002                    3.26234613E-008       9.44  <-- SCF
      9  -1.22512680E+002                    1.98986449E-009      10.36  <-- SCF
     10  -1.22512680E+002                    3.61773220E-011      11.04  <-- SCF
     11  -1.22512680E+002                    5.37750590E-013      11.77  <-- SCF
     12  -1.22512680E+002                    1.84285315E-013      12.50  <-- SCF
------------------------------------------------------------------------ <-- SCF
 
Final energy =  -122.5126795380     eV
(energy not corrected for finite basis set)
 
Calculating total energy with cut-off of 1295.000 eV.
------------------------------------------------------------------------ <-- SCF
SCF loop      Energy                           Energy gain       Timer   <-- SCF
                                               per atom          (sec)   <-- SCF
------------------------------------------------------------------------ <-- SCF
Initial  -1.22512680E+002                                         13.13  <-- SCF
      1  -1.22512973E+002                    3.66329629E-005      13.73  <-- SCF
      2  -1.22512973E+002                    2.56337851E-011      14.56  <-- SCF
      3  -1.22512973E+002                    1.55780153E-008      15.48  <-- SCF
      4  -1.22512973E+002                    8.77636152E-010      16.39  <-- SCF
      5  -1.22512973E+002                    8.96351685E-012      17.10  <-- SCF
      6  -1.22512973E+002                    3.74612770E-013      17.83  <-- SCF
------------------------------------------------------------------------ <-- SCF
 
Final energy =  -122.5129727336     eV
(energy not corrected for finite basis set)
 
Calculating total energy with cut-off of 1300.000 eV.
------------------------------------------------------------------------ <-- SCF
SCF loop      Energy                           Energy gain       Timer   <-- SCF
                                               per atom          (sec)   <-- SCF
------------------------------------------------------------------------ <-- SCF
Initial  -1.22512973E+002                                         18.47  <-- SCF
      1  -1.22513260E+002                    3.59192268E-005      19.13  <-- SCF
      2  -1.22513260E+002                    2.57939019E-011      20.00  <-- SCF
      3  -1.22513260E+002                    1.53944459E-008      20.99  <-- SCF
      4  -1.22513260E+002                    8.76784210E-010      22.01  <-- SCF
      5  -1.22513260E+002                    8.96049578E-012      22.82  <-- SCF
      6  -1.22513260E+002                    4.59202751E-013      23.65  <-- SCF
------------------------------------------------------------------------ <-- SCF
 
Final energy =  -122.5132602178     eV
(energy not corrected for finite basis set)
 
 For future reference: finite basis dEtot/dlog(Ecut) =      -0.074193eV
 Total energy corrected for finite basis set =    -122.513258 eV
 
+---------------- MEMORY AND SCRATCH DISK ESTIMATES PER PROCESS --------------+
|                                                     Memory          Disk    |
| Model and support data                               27.8 MB         0.0 MB |
| Electronic energy minimisation requirements          11.4 MB         0.0 MB |
| Geometry minimisation requirements                   13.5 MB         0.0 MB |
|                                               ----------------------------- |
| Approx. total storage required per process           52.6 MB         0.0 MB |
|                                                                             |
| Requirements will fluctuate during execution and may exceed these estimates |
+-----------------------------------------------------------------------------+
 

 ******************************** Symmetrised Forces ********************************
 *                                                                                  *
 *                           Cartesian components (eV/A)                            *
 * -------------------------------------------------------------------------------- *
 *                         x                    y                    z              *
 *                                                                                  *
 * H               1     -0.00043             -0.00035             -0.00061         *
 * H               2      0.00046              0.00046              0.00061         *
 * H               3      0.00046             -0.00046              0.00061         *
 * H               4     -0.00043              0.00035             -0.00061         *
 * H               5     -0.00046              0.00046              0.00061         *
 * H               6      0.00043             -0.00035             -0.00061         *
 * H               7     -0.00046             -0.00046              0.00061         *
 * H               8      0.00043              0.00035             -0.00061         *
 *                                                                                  *
 ************************************************************************************

 *********** Symmetrised Stress Tensor ***********
 *                                               *
 *          Cartesian components (GPa)           *
 * --------------------------------------------- *
 *             x             y             z     *
 *                                               *
 *  x    -69.949985      0.000000      0.000000  *
 *  y      0.000000    -69.952419      0.000000  *
 *  z      0.000000      0.000000    -69.956411  *
 *                                               *
 *  Pressure:   69.9529                          *
 *                                               *
 *************************************************
 LBFGS: finished iteration     0 with enthalpy= -1.18541869E+002 eV
  
 +-----------+-----------------+-----------------+------------+-----+ <-- LBFGS
 | Parameter |      value      |    tolerance    |    units   | OK? | <-- LBFGS
 +-----------+-----------------+-----------------+------------+-----+ <-- LBFGS
 |  dE/ion   |   0.000000E+000 |   1.000000E-009 |         eV | No  | <-- LBFGS
 |  |F|max   |   8.866115E-004 |   1.000000E-006 |       eV/A | No  | <-- LBFGS
 |  |dR|max  |   0.000000E+000 |   1.000000E-006 |          A | No  | <-- LBFGS
 |   Smax    |   3.995641E+001 |   1.000000E-006 |        GPa | No  | <-- LBFGS
 +-----------+-----------------+-----------------+------------+-----+ <-- LBFGS
  

================================================================================
 Starting LBFGS iteration          1 ...
================================================================================
  
 +------------+-------------+-------------+-----------------+ <-- min LBFGS
 |    Step    |   lambda    |   F.delta'  |    enthalpy     | <-- min LBFGS
 +------------+-------------+-------------+-----------------+ <-- min LBFGS
 |  previous  |    0.000000 |    0.336651 |     -118.541869 | <-- min LBFGS
 +------------+-------------+-------------+-----------------+ <-- min LBFGS
  

--------------------------------------------------------------------------------
 LBFGS: starting iteration         1 with trial guess (lambda=  1.000000)
--------------------------------------------------------------------------------
 
+---------------- MEMORY AND SCRATCH DISK ESTIMATES PER PROCESS --------------+
|                                                     Memory          Disk    |
| Model and support data                               28.1 MB         0.0 MB |
| Electronic energy minimisation requirements          12.0 MB         0.0 MB |
| Geometry minimisation requirements                   14.2 MB         0.0 MB |
|                                               ----------------------------- |
| Approx. total storage required per process           54.3 MB         0.0 MB |
|                                                                             |
| Requirements will fluctuate during execution and may exceed these estimates |
+-----------------------------------------------------------------------------+
 

                           -------------------------------
                                      Unit Cell
                           -------------------------------
        Real Lattice(A)              Reciprocal Lattice(1/A)
     3.4969303     0.0000000     0.0000000        1.796771686   0.000000000   0.000000000
     0.0000000     2.0314607     0.0000000        0.000000000   3.092939690   0.000000000
     0.0000000     0.0000000     3.2306113        0.000000000   0.000000000   1.944890520

                       Lattice parameters(A)       Cell Angles
                    a =      3.496930          alpha =   90.000000
                    b =      2.031461          beta  =   90.000000
                    c =      3.230611          gamma =   90.000000

                Current cell volume =            22.949863 A**3

                           -------------------------------
                                     Cell Contents
                           -------------------------------

            xxxxxxxxxxxxxxxxxxxxxxxxxxxxxxxxxxxxxxxxxxxxxxxxxxxxxxxxxxxxxxxxx
            x  Element         Atom        Fractional coordinates of atoms  x
            x                 Number           u          v          w      x
            x---------------------------------------------------------------x
            x  H                 1         0.352628   0.136463   0.378400   x
            x  H                 2         0.480573   0.363472   0.500500   x
            x  H                 3         0.980573   0.636528   0.500500   x
            x  H                 4         0.852628   0.863537   0.378400   x
            x  H                 5         0.019427   0.363472   0.000500   x
            x  H                 6         0.147372   0.136463   0.878400   x
            x  H                 7         0.519427   0.636528   0.000500   x
            x  H                 8         0.647372   0.863537   0.878400   x
            xxxxxxxxxxxxxxxxxxxxxxxxxxxxxxxxxxxxxxxxxxxxxxxxxxxxxxxxxxxxxxxxx


------------------------------------------------------------------------ <-- SCF
SCF loop      Energy                           Energy gain       Timer   <-- SCF
                                               per atom          (sec)   <-- SCF
------------------------------------------------------------------------ <-- SCF
Initial  -1.23127576E+002                                         25.15  <-- SCF
      1  -1.23178154E+002                    6.32213330E-003      25.80  <-- SCF
      2  -1.23178292E+002                    1.73388106E-005      26.82  <-- SCF
      3  -1.23175837E+002                   -3.06929871E-004      27.84  <-- SCF
      4  -1.23175770E+002                   -8.30904562E-006      28.83  <-- SCF
      5  -1.23175774E+002                    4.04777730E-007      29.81  <-- SCF
      6  -1.23175774E+002                    4.20052846E-008      30.82  <-- SCF
      7  -1.23175774E+002                    1.52174354E-010      31.62  <-- SCF
      8  -1.23175774E+002                    1.46672984E-011      32.38  <-- SCF
      9  -1.23175774E+002                    3.77633841E-013      33.13  <-- SCF
     10  -1.23175774E+002                   -5.74003439E-014      33.90  <-- SCF
------------------------------------------------------------------------ <-- SCF
 
Final energy =  -123.1757738978     eV
(energy not corrected for finite basis set)
 

 ******************************** Symmetrised Forces ********************************
 *                                                                                  *
 *                           Cartesian components (eV/A)                            *
 * -------------------------------------------------------------------------------- *
 *                         x                    y                    z              *
 *                                                                                  *
 * H               1      0.34012              0.35416              0.29839         *
 * H               2     -0.34011             -0.34737             -0.29839         *
 * H               3     -0.34011              0.34737             -0.29839         *
 * H               4      0.34012             -0.35416              0.29839         *
 * H               5      0.34011             -0.34737             -0.29839         *
 * H               6     -0.34012              0.35416              0.29839         *
 * H               7      0.34011              0.34737             -0.29839         *
 * H               8     -0.34012             -0.35416              0.29839         *
 *                                                                                  *
 ************************************************************************************

 *********** Symmetrised Stress Tensor ***********
 *                                               *
 *          Cartesian components (GPa)           *
 * --------------------------------------------- *
 *             x             y             z     *
 *                                               *
 *  x    -52.521353      0.000000      0.000000  *
 *  y      0.000000    -52.322538      0.000000  *
 *  z      0.000000      0.000000    -53.756657  *
 *                                               *
 *  Pressure:   52.8668                          *
 *                                               *
 *************************************************
  
 +------------+-------------+-------------+-----------------+ <-- min LBFGS
 |    Step    |   lambda    |   F.delta'  |    enthalpy     | <-- min LBFGS
 +------------+-------------+-------------+-----------------+ <-- min LBFGS
 |  previous  |    0.000000 |    0.336651 |     -118.541869 | <-- min LBFGS
 | trial step |    1.000000 |    0.202781 |     -118.878523 | <-- min LBFGS
 +------------+-------------+-------------+-----------------+ <-- min LBFGS
  

--------------------------------------------------------------------------------
 LBFGS: improving iteration         1 with line minimization (lambda=  2.514760)
--------------------------------------------------------------------------------
 
+---------------- MEMORY AND SCRATCH DISK ESTIMATES PER PROCESS --------------+
|                                                     Memory          Disk    |
| Model and support data                               29.0 MB         0.0 MB |
| Electronic energy minimisation requirements          13.1 MB         0.0 MB |
| Geometry minimisation requirements                   15.5 MB         0.0 MB |
|                                               ----------------------------- |
| Approx. total storage required per process           57.6 MB         0.0 MB |
|                                                                             |
| Requirements will fluctuate during execution and may exceed these estimates |
+-----------------------------------------------------------------------------+
 

                           -------------------------------
                                      Unit Cell
                           -------------------------------
        Real Lattice(A)              Reciprocal Lattice(1/A)
     3.6343474     0.0000000     0.0000000        1.728834559   0.000000000   0.000000000
     0.0000000     2.1112947     0.0000000        0.000000000   2.975986912   0.000000000
     0.0000000     0.0000000     3.3575829        0.000000000   0.000000000   1.871341835

                       Lattice parameters(A)       Cell Angles
                    a =      3.634347          alpha =   90.000000
                    b =      2.111295          beta  =   90.000000
                    c =      3.357583          gamma =   90.000000

                Current cell volume =            25.763332 A**3

                           -------------------------------
                                     Cell Contents
                           -------------------------------

            xxxxxxxxxxxxxxxxxxxxxxxxxxxxxxxxxxxxxxxxxxxxxxxxxxxxxxxxxxxxxxxxx
            x  Element         Atom        Fractional coordinates of atoms  x
            x                 Number           u          v          w      x
            x---------------------------------------------------------------x
            x  H                 1         0.352610   0.136437   0.378372   x
            x  H                 2         0.480593   0.363506   0.500528   x
            x  H                 3         0.980593   0.636494   0.500528   x
            x  H                 4         0.852610   0.863563   0.378372   x
            x  H                 5         0.019407   0.363506   0.000528   x
            x  H                 6         0.147390   0.136437   0.878372   x
            x  H                 7         0.519407   0.636494   0.000528   x
            x  H                 8         0.647390   0.863563   0.878372   x
            xxxxxxxxxxxxxxxxxxxxxxxxxxxxxxxxxxxxxxxxxxxxxxxxxxxxxxxxxxxxxxxxx


------------------------------------------------------------------------ <-- SCF
SCF loop      Energy                           Energy gain       Timer   <-- SCF
                                               per atom          (sec)   <-- SCF
------------------------------------------------------------------------ <-- SCF
Initial  -1.23817337E+002                                         35.39  <-- SCF
      1  -1.23922832E+002                    1.31869777E-002      36.11  <-- SCF
      2  -1.23923147E+002                    3.93592842E-005      37.17  <-- SCF
      3  -1.23917631E+002                   -6.89545876E-004      38.26  <-- SCF
      4  -1.23917481E+002                   -1.87237237E-005      39.34  <-- SCF
      5  -1.23917490E+002                    1.13317142E-006      40.43  <-- SCF
      6  -1.23917491E+002                    1.24630497E-007      41.54  <-- SCF
      7  -1.23917491E+002                    5.04848109E-010      42.66  <-- SCF
      8  -1.23917491E+002                    5.08597257E-011      43.52  <-- SCF
      9  -1.23917491E+002                    2.90022790E-013      44.37  <-- SCF
     10  -1.23917491E+002                   -3.62528488E-014      45.21  <-- SCF
------------------------------------------------------------------------ <-- SCF
 
Final energy =  -123.9174911104     eV
(energy not corrected for finite basis set)
 

 ******************************** Symmetrised Forces ********************************
 *                                                                                  *
 *                           Cartesian components (eV/A)                            *
 * -------------------------------------------------------------------------------- *
 *                         x                    y                    z              *
 *                                                                                  *
 * H               1      0.78608              0.81786              0.69047         *
 * H               2     -0.78628             -0.80328             -0.69047         *
 * H               3     -0.78628              0.80328             -0.69047         *
 * H               4      0.78608             -0.81786              0.69047         *
 * H               5      0.78628             -0.80328             -0.69047         *
 * H               6     -0.78608              0.81786              0.69047         *
 * H               7      0.78628              0.80328             -0.69047         *
 * H               8     -0.78608             -0.81786              0.69047         *
 *                                                                                  *
 ************************************************************************************

 *********** Symmetrised Stress Tensor ***********
 *                                               *
 *          Cartesian components (GPa)           *
 * --------------------------------------------- *
 *             x             y             z     *
 *                                               *
 *  x    -32.385954      0.000000      0.000000  *
 *  y      0.000000    -31.947202      0.000000  *
 *  z      0.000000      0.000000    -34.950591  *
 *                                               *
 *  Pressure:   33.0946                          *
 *                                               *
 *************************************************
  
 +------------+-------------+-------------+-----------------+ <-- min LBFGS
 |    Step    |   lambda    |   F.delta'  |    enthalpy     | <-- min LBFGS
 +------------+-------------+-------------+-----------------+ <-- min LBFGS
 |  previous  |    0.000000 |    0.336651 |     -118.541869 | <-- min LBFGS
 | trial step |    1.000000 |    0.202781 |     -118.878523 | <-- min LBFGS
 |  line step |    2.514760 |    0.028964 |     -119.093433 | <-- min LBFGS
 +------------+-------------+-------------+-----------------+ <-- min LBFGS
  
 LBFGS: finished iteration     1 with enthalpy= -1.19093433E+002 eV
  
 +-----------+-----------------+-----------------+------------+-----+ <-- LBFGS
 | Parameter |      value      |    tolerance    |    units   | OK? | <-- LBFGS
 +-----------+-----------------+-----------------+------------+-----+ <-- LBFGS
 |  dE/ion   |   6.894550E-002 |   1.000000E-009 |         eV | No  | <-- LBFGS
 |  |F|max   |   1.327987E+000 |   1.000000E-006 |       eV/A | No  | <-- LBFGS
 |  |dR|max  |   2.307616E-004 |   1.000000E-006 |          A | No  | <-- LBFGS
 |   Smax    |   4.950591E+000 |   1.000000E-006 |        GPa | No  | <-- LBFGS
 +-----------+-----------------+-----------------+------------+-----+ <-- LBFGS
  

================================================================================
 Starting LBFGS iteration          2 ...
================================================================================
  
 +------------+-------------+-------------+-----------------+ <-- min LBFGS
 |    Step    |   lambda    |   F.delta'  |    enthalpy     | <-- min LBFGS
 +------------+-------------+-------------+-----------------+ <-- min LBFGS
 |  previous  |    0.000000 |    0.253248 |     -119.093433 | <-- min LBFGS
 +------------+-------------+-------------+-----------------+ <-- min LBFGS
  
 WARNING in geom_xvec_to_mdl - large cell change detected
                             - consider your initial cell

--------------------------------------------------------------------------------
 LBFGS: starting iteration         2 with trial guess (lambda=  0.633593)
--------------------------------------------------------------------------------
 
+---------------- MEMORY AND SCRATCH DISK ESTIMATES PER PROCESS --------------+
|                                                     Memory          Disk    |
| Model and support data                               32.2 MB         0.0 MB |
| Electronic energy minimisation requirements          16.5 MB         0.0 MB |
| Geometry minimisation requirements                   19.4 MB         0.0 MB |
|                                               ----------------------------- |
| Approx. total storage required per process           68.0 MB         0.0 MB |
|                                                                             |
| Requirements will fluctuate during execution and may exceed these estimates |
+-----------------------------------------------------------------------------+
 

                           -------------------------------
                                      Unit Cell
                           -------------------------------
        Real Lattice(A)              Reciprocal Lattice(1/A)
     3.8989360     0.0000000     0.0000000        1.611512826   0.000000000   0.000000000
     0.0000000     2.2645535     0.0000000        0.000000000   2.774580241   0.000000000
     0.0000000     0.0000000     3.6063047        0.000000000   0.000000000   1.742277975

                       Lattice parameters(A)       Cell Angles
                    a =      3.898936          alpha =   90.000000
                    b =      2.264553          beta  =   90.000000
                    c =      3.606305          gamma =   90.000000

                Current cell volume =            31.841323 A**3

                           -------------------------------
                                     Cell Contents
                           -------------------------------

            xxxxxxxxxxxxxxxxxxxxxxxxxxxxxxxxxxxxxxxxxxxxxxxxxxxxxxxxxxxxxxxxx
            x  Element         Atom        Fractional coordinates of atoms  x
            x                 Number           u          v          w      x
            x---------------------------------------------------------------x
            x  H                 1         0.369132   0.166043   0.394062   x
            x  H                 2         0.464068   0.334444   0.484839   x
            x  H                 3         0.964068   0.665556   0.484839   x
            x  H                 4         0.869132   0.833957   0.394062   x
            x  H                 5         0.035932   0.334444  -0.015161   x
            x  H                 6         0.130868   0.166043   0.894062   x
            x  H                 7         0.535932   0.665556  -0.015161   x
            x  H                 8         0.630868   0.833957   0.894062   x
            xxxxxxxxxxxxxxxxxxxxxxxxxxxxxxxxxxxxxxxxxxxxxxxxxxxxxxxxxxxxxxxxx


------------------------------------------------------------------------ <-- SCF
SCF loop      Energy                           Energy gain       Timer   <-- SCF
                                               per atom          (sec)   <-- SCF
------------------------------------------------------------------------ <-- SCF
Initial  -1.15751529E+002                                         46.93  <-- SCF
      1  -1.24870879E+002                    1.13991878E+000      47.83  <-- SCF
      2  -1.24904831E+002                    4.24404869E-003      49.21  <-- SCF
      3  -1.23989133E+002                   -1.14462318E-001      50.67  <-- SCF
      4  -1.23962180E+002                   -3.36907380E-003      51.99  <-- SCF
      5  -1.23963395E+002                    1.51854494E-004      53.25  <-- SCF
      6  -1.23963570E+002                    2.18071520E-005      54.57  <-- SCF
      7  -1.23963572E+002                    3.20991759E-007      55.93  <-- SCF
      8  -1.23963572E+002                    1.71776873E-008      57.16  <-- SCF
      9  -1.23963572E+002                    1.08006300E-009      58.44  <-- SCF
     10  -1.23963572E+002                    9.58585743E-012      59.44  <-- SCF
     11  -1.23963572E+002                    1.25072328E-012      60.45  <-- SCF
     12  -1.23963572E+002                   -1.72201032E-013      61.45  <-- SCF
------------------------------------------------------------------------ <-- SCF
 
Final energy =  -123.9635722998     eV
(energy not corrected for finite basis set)
 

 ******************************** Symmetrised Forces ********************************
 *                                                                                  *
 *                           Cartesian components (eV/A)                            *
 * -------------------------------------------------------------------------------- *
 *                         x                    y                    z              *
 *                                                                                  *
 * H               1     -3.63369             -3.74303             -3.21895         *
 * H               2      3.63369              3.74952              3.21895         *
 * H               3      3.63369             -3.74952              3.21895         *
 * H               4     -3.63369              3.74303             -3.21895         *
 * H               5     -3.63369              3.74952              3.21895         *
 * H               6      3.63369             -3.74303             -3.21895         *
 * H               7     -3.63369             -3.74952              3.21895         *
 * H               8      3.63369              3.74303             -3.21895         *
 *                                                                                  *
 ************************************************************************************

 *********** Symmetrised Stress Tensor ***********
 *                                               *
 *          Cartesian components (GPa)           *
 * --------------------------------------------- *
 *             x             y             z     *
 *                                               *
 *  x    -47.390236      0.000000      0.000000  *
 *  y      0.000000    -48.995252      0.000000  *
 *  z      0.000000      0.000000    -42.658640  *
 *                                               *
 *  Pressure:   46.3480                          *
 *                                               *
 *************************************************
  
 +------------+-------------+-------------+-----------------+ <-- min LBFGS
 |    Step    |   lambda    |   F.delta'  |    enthalpy     | <-- min LBFGS
 +------------+-------------+-------------+-----------------+ <-- min LBFGS
 |  previous  |    0.000000 |    0.253248 |     -119.093433 | <-- min LBFGS
 | trial step |    0.633593 |   -0.999552 |     -118.001435 | <-- min LBFGS
 +------------+-------------+-------------+-----------------+ <-- min LBFGS
  

--------------------------------------------------------------------------------
 LBFGS: improving iteration         2 with line minimization (lambda=  0.128078)
--------------------------------------------------------------------------------

                           -------------------------------
                                      Unit Cell
                           -------------------------------
        Real Lattice(A)              Reciprocal Lattice(1/A)
     3.6878328     0.0000000     0.0000000        1.703760871   0.000000000   0.000000000
     0.0000000     2.1422753     0.0000000        0.000000000   2.932949512   0.000000000
     0.0000000     0.0000000     3.4078610        0.000000000   0.000000000   1.843732873

                       Lattice parameters(A)       Cell Angles
                    a =      3.687833          alpha =   90.000000
                    b =      2.142275          beta  =   90.000000
                    c =      3.407861          gamma =   90.000000

                Current cell volume =            26.923305 A**3

                           -------------------------------
                                     Cell Contents
                           -------------------------------

            xxxxxxxxxxxxxxxxxxxxxxxxxxxxxxxxxxxxxxxxxxxxxxxxxxxxxxxxxxxxxxxxx
            x  Element         Atom        Fractional coordinates of atoms  x
            x                 Number           u          v          w      x
            x---------------------------------------------------------------x
            x  H                 1         0.355950   0.142421   0.381544   x
            x  H                 2         0.477252   0.357631   0.497357   x
            x  H                 3         0.977252   0.642369   0.497357   x
            x  H                 4         0.855950   0.857579   0.381544   x
            x  H                 5         0.022748   0.357631  -0.002643   x
            x  H                 6         0.144050   0.142421   0.881544   x
            x  H                 7         0.522748   0.642369  -0.002643   x
            x  H                 8         0.644050   0.857579   0.881544   x
            xxxxxxxxxxxxxxxxxxxxxxxxxxxxxxxxxxxxxxxxxxxxxxxxxxxxxxxxxxxxxxxxx


------------------------------------------------------------------------ <-- SCF
SCF loop      Energy                           Energy gain       Timer   <-- SCF
                                               per atom          (sec)   <-- SCF
------------------------------------------------------------------------ <-- SCF
Initial  -1.17597052E+002                                         63.31  <-- SCF
      1  -1.25008116E+002                    9.26383110E-001      64.10  <-- SCF
      2  -1.25026313E+002                    2.27462759E-003      65.31  <-- SCF
      3  -1.24329533E+002                   -8.70976100E-002      66.55  <-- SCF
      4  -1.24311257E+002                   -2.28448291E-003      67.77  <-- SCF
      5  -1.24311503E+002                    3.07901942E-005      69.00  <-- SCF
      6  -1.24311526E+002                    2.84613925E-006      70.30  <-- SCF
      7  -1.24311526E+002                    1.82080024E-008      71.55  <-- SCF
      8  -1.24311526E+002                    2.78038505E-009      72.80  <-- SCF
      9  -1.24311526E+002                    1.00323717E-010      73.78  <-- SCF
     10  -1.24311526E+002                    3.32015673E-012      74.76  <-- SCF
     11  -1.24311526E+002                    9.06321219E-015      75.75  <-- SCF
------------------------------------------------------------------------ <-- SCF
 
Final energy =  -124.3115259278     eV
(energy not corrected for finite basis set)
 

 ******************************** Symmetrised Forces ********************************
 *                                                                                  *
 *                           Cartesian components (eV/A)                            *
 * -------------------------------------------------------------------------------- *
 *                         x                    y                    z              *
 *                                                                                  *
 * H               1      0.29778              0.31358              0.25838         *
 * H               2     -0.29901             -0.29852             -0.25838         *
 * H               3     -0.29901              0.29852             -0.25838         *
 * H               4      0.29778             -0.31358              0.25838         *
 * H               5      0.29901             -0.29852             -0.25838         *
 * H               6     -0.29778              0.31358              0.25838         *
 * H               7      0.29901              0.29852             -0.25838         *
 * H               8     -0.29778             -0.31358              0.25838         *
 *                                                                                  *
 ************************************************************************************

 *********** Symmetrised Stress Tensor ***********
 *                                               *
 *          Cartesian components (GPa)           *
 * --------------------------------------------- *
 *             x             y             z     *
 *                                               *
 *  x    -33.121061      0.000000      0.000000  *
 *  y      0.000000    -33.011983      0.000000  *
 *  z      0.000000      0.000000    -34.767836  *
 *                                               *
 *  Pressure:   33.6336                          *
 *                                               *
 *************************************************
  
 +------------+-------------+-------------+-----------------+ <-- min LBFGS
 |    Step    |   lambda    |   F.delta'  |    enthalpy     | <-- min LBFGS
 +------------+-------------+-------------+-----------------+ <-- min LBFGS
 |  previous  |    0.000000 |    0.253248 |     -119.093433 | <-- min LBFGS
 | trial step |    0.633593 |   -0.999552 |     -118.001435 | <-- min LBFGS
 |  line step |    0.128078 |    0.116369 |     -119.270262 | <-- min LBFGS
 +------------+-------------+-------------+-----------------+ <-- min LBFGS
  

--------------------------------------------------------------------------------
 LBFGS: improving iteration         2 with quad minimization (lambda=  0.199117)
--------------------------------------------------------------------------------

                           -------------------------------
                                      Unit Cell
                           -------------------------------
        Real Lattice(A)              Reciprocal Lattice(1/A)
     3.7174987     0.0000000     0.0000000        1.690164770   0.000000000   0.000000000
     0.0000000     2.1594588     0.0000000        0.000000000   2.909611143   0.000000000
     0.0000000     0.0000000     3.4357478        0.000000000   0.000000000   1.828767895

                       Lattice parameters(A)       Cell Angles
                    a =      3.717499          alpha =   90.000000
                    b =      2.159459          beta  =   90.000000
                    c =      3.435748          gamma =   90.000000

                Current cell volume =            27.581445 A**3

                           -------------------------------
                                     Cell Contents
                           -------------------------------

            xxxxxxxxxxxxxxxxxxxxxxxxxxxxxxxxxxxxxxxxxxxxxxxxxxxxxxxxxxxxxxxxx
            x  Element         Atom        Fractional coordinates of atoms  x
            x                 Number           u          v          w      x
            x---------------------------------------------------------------x
            x  H                 1         0.357802   0.145741   0.383303   x
            x  H                 2         0.475399   0.354373   0.495597   x
            x  H                 3         0.975399   0.645627   0.495597   x
            x  H                 4         0.857802   0.854259   0.383303   x
            x  H                 5         0.024601   0.354373  -0.004403   x
            x  H                 6         0.142198   0.145741   0.883303   x
            x  H                 7         0.524601   0.645627  -0.004403   x
            x  H                 8         0.642198   0.854259   0.883303   x
            xxxxxxxxxxxxxxxxxxxxxxxxxxxxxxxxxxxxxxxxxxxxxxxxxxxxxxxxxxxxxxxxx


------------------------------------------------------------------------ <-- SCF
SCF loop      Energy                           Energy gain       Timer   <-- SCF
                                               per atom          (sec)   <-- SCF
------------------------------------------------------------------------ <-- SCF
Initial  -1.24363466E+002                                         77.52  <-- SCF
      1  -1.24481745E+002                    1.47848541E-002      78.31  <-- SCF
      2  -1.24482096E+002                    4.38880824E-005      79.54  <-- SCF
      3  -1.24472030E+002                   -1.25823107E-003      80.78  <-- SCF
      4  -1.24471683E+002                   -4.34456768E-005      82.04  <-- SCF
      5  -1.24471690E+002                    8.80623997E-007      83.28  <-- SCF
      6  -1.24471691E+002                    9.71935794E-008      84.55  <-- SCF
      7  -1.24471691E+002                    5.75970156E-010      85.76  <-- SCF
      8  -1.24471691E+002                    5.46995066E-011      86.70  <-- SCF
      9  -1.24471691E+002                    1.24770221E-012      87.66  <-- SCF
     10  -1.24471691E+002                    5.43792731E-014      88.62  <-- SCF
------------------------------------------------------------------------ <-- SCF
 
Final energy =  -124.4716906282     eV
(energy not corrected for finite basis set)
 

 ******************************** Symmetrised Forces ********************************
 *                                                                                  *
 *                           Cartesian components (eV/A)                            *
 * -------------------------------------------------------------------------------- *
 *                         x                    y                    z              *
 *                                                                                  *
 * H               1     -0.03802             -0.03329             -0.03850         *
 * H               2      0.03662              0.04779              0.03850         *
 * H               3      0.03662             -0.04779              0.03850         *
 * H               4     -0.03802              0.03329             -0.03850         *
 * H               5     -0.03662              0.04779              0.03850         *
 * H               6      0.03802             -0.03329             -0.03850         *
 * H               7     -0.03662             -0.04779              0.03850         *
 * H               8      0.03802              0.03329             -0.03850         *
 *                                                                                  *
 ************************************************************************************

 *********** Symmetrised Stress Tensor ***********
 *                                               *
 *          Cartesian components (GPa)           *
 * --------------------------------------------- *
 *             x             y             z     *
 *                                               *
 *  x    -34.020469      0.000000      0.000000  *
 *  y      0.000000    -34.107458      0.000000  *
 *  z      0.000000      0.000000    -35.019245  *
 *                                               *
 *  Pressure:   34.3824                          *
 *                                               *
 *************************************************
  
 +------------+-------------+-------------+-----------------+ <-- min LBFGS
 |    Step    |   lambda    |   F.delta'  |    enthalpy     | <-- min LBFGS
 +------------+-------------+-------------+-----------------+ <-- min LBFGS
 |  previous  |    0.000000 |    0.253248 |     -119.093433 | <-- min LBFGS
 | trial step |    0.633593 |   -0.999552 |     -118.001435 | <-- min LBFGS
 |  line step |    0.128078 |    0.116369 |     -119.270262 | <-- min LBFGS
 |  quad step |    0.199117 |    0.022866 |     -119.307195 | <-- min LBFGS
 +------------+-------------+-------------+-----------------+ <-- min LBFGS
  
 LBFGS: finished iteration     2 with enthalpy= -1.19307195E+002 eV
  
 +-----------+-----------------+-----------------+------------+-----+ <-- LBFGS
 | Parameter |      value      |    tolerance    |    units   | OK? | <-- LBFGS
 +-----------+-----------------+-----------------+------------+-----+ <-- LBFGS
 |  dE/ion   |   2.672027E-002 |   1.000000E-009 |         eV | No  | <-- LBFGS
 |  |F|max   |   7.146712E-002 |   1.000000E-006 |       eV/A | No  | <-- LBFGS
 |  |dR|max  |   3.260806E-002 |   1.000000E-006 |          A | No  | <-- LBFGS
 |   Smax    |   5.019245E+000 |   1.000000E-006 |        GPa | No  | <-- LBFGS
 +-----------+-----------------+-----------------+------------+-----+ <-- LBFGS
  

================================================================================
 Starting LBFGS iteration          3 ...
================================================================================
  
 +------------+-------------+-------------+-----------------+ <-- min LBFGS
 |    Step    |   lambda    |   F.delta'  |    enthalpy     | <-- min LBFGS
 +------------+-------------+-------------+-----------------+ <-- min LBFGS
 |  previous  |    0.000000 |    0.040163 |     -119.307195 | <-- min LBFGS
 +------------+-------------+-------------+-----------------+ <-- min LBFGS
  

--------------------------------------------------------------------------------
 LBFGS: starting iteration         3 with trial guess (lambda=  1.000000)
--------------------------------------------------------------------------------

                           -------------------------------
                                      Unit Cell
                           -------------------------------
        Real Lattice(A)              Reciprocal Lattice(1/A)
     3.7602767     0.0000000     0.0000000        1.670936976   0.000000000   0.000000000
     0.0000000     2.1844067     0.0000000        0.000000000   2.876380690   0.000000000
     0.0000000     0.0000000     3.4785196        0.000000000   0.000000000   1.806281433

                       Lattice parameters(A)       Cell Angles
                    a =      3.760277          alpha =   90.000000
                    b =      2.184407          beta  =   90.000000
                    c =      3.478520          gamma =   90.000000

                Current cell volume =            28.572468 A**3

                           -------------------------------
                                     Cell Contents
                           -------------------------------

            xxxxxxxxxxxxxxxxxxxxxxxxxxxxxxxxxxxxxxxxxxxxxxxxxxxxxxxxxxxxxxxxx
            x  Element         Atom        Fractional coordinates of atoms  x
            x                 Number           u          v          w      x
            x---------------------------------------------------------------x
            x  H                 1         0.358482   0.147328   0.383757   x
            x  H                 2         0.474671   0.353703   0.495143   x
            x  H                 3         0.974671   0.646297   0.495143   x
            x  H                 4         0.858482   0.852672   0.383757   x
            x  H                 5         0.025329   0.353703  -0.004857   x
            x  H                 6         0.141518   0.147328   0.883757   x
            x  H                 7         0.525329   0.646297  -0.004857   x
            x  H                 8         0.641518   0.852672   0.883757   x
            xxxxxxxxxxxxxxxxxxxxxxxxxxxxxxxxxxxxxxxxxxxxxxxxxxxxxxxxxxxxxxxxx


------------------------------------------------------------------------ <-- SCF
SCF loop      Energy                           Energy gain       Timer   <-- SCF
                                               per atom          (sec)   <-- SCF
------------------------------------------------------------------------ <-- SCF
Initial  -1.24641576E+002                                         90.41  <-- SCF
      1  -1.24675519E+002                    4.24293375E-003      91.21  <-- SCF
      2  -1.24675627E+002                    1.34163293E-005      92.48  <-- SCF
      3  -1.24672179E+002                   -4.30901073E-004      93.85  <-- SCF
      4  -1.24672065E+002                   -1.42529669E-005      95.15  <-- SCF
      5  -1.24672069E+002                    3.95679836E-007      96.44  <-- SCF
      6  -1.24672069E+002                    4.75995916E-008      97.72  <-- SCF
      7  -1.24672069E+002                    1.33558516E-010      98.84  <-- SCF
      8  -1.24672069E+002                    2.74071537E-011      99.81  <-- SCF
      9  -1.24672069E+002                    8.48920875E-013     100.79  <-- SCF
     10  -1.24672069E+002                    9.06321219E-014     101.74  <-- SCF
------------------------------------------------------------------------ <-- SCF
 
Final energy =  -124.6720689025     eV
(energy not corrected for finite basis set)
 

 ******************************** Symmetrised Forces ********************************
 *                                                                                  *
 *                           Cartesian components (eV/A)                            *
 * -------------------------------------------------------------------------------- *
 *                         x                    y                    z              *
 *                                                                                  *
 * H               1     -0.03169             -0.02862             -0.03310         *
 * H               2      0.03050              0.03962              0.03310         *
 * H               3      0.03050             -0.03962              0.03310         *
 * H               4     -0.03169              0.02862             -0.03310         *
 * H               5     -0.03050              0.03962              0.03310         *
 * H               6      0.03169             -0.02862             -0.03310         *
 * H               7     -0.03050             -0.03962              0.03310         *
 * H               8      0.03169              0.02862             -0.03310         *
 *                                                                                  *
 ************************************************************************************

 *********** Symmetrised Stress Tensor ***********
 *                                               *
 *          Cartesian components (GPa)           *
 * --------------------------------------------- *
 *             x             y             z     *
 *                                               *
 *  x    -30.730799      0.000000      0.000000  *
 *  y      0.000000    -30.802262      0.000000  *
 *  z      0.000000      0.000000    -31.652639  *
 *                                               *
 *  Pressure:   31.0619                          *
 *                                               *
 *************************************************
  
 +------------+-------------+-------------+-----------------+ <-- min LBFGS
 |    Step    |   lambda    |   F.delta'  |    enthalpy     | <-- min LBFGS
 +------------+-------------+-------------+-----------------+ <-- min LBFGS
 |  previous  |    0.000000 |    0.040163 |     -119.307195 | <-- min LBFGS
 | trial step |    1.000000 |    0.008123 |     -119.322004 | <-- min LBFGS
 +------------+-------------+-------------+-----------------+ <-- min LBFGS
  
 LBFGS: finished iteration     3 with enthalpy= -1.19322004E+002 eV
  
 +-----------+-----------------+-----------------+------------+-----+ <-- LBFGS
 | Parameter |      value      |    tolerance    |    units   | OK? | <-- LBFGS
 +-----------+-----------------+-----------------+------------+-----+ <-- LBFGS
 |  dE/ion   |   1.851098E-003 |   1.000000E-009 |         eV | No  | <-- LBFGS
 |  |F|max   |   5.996490E-002 |   1.000000E-006 |       eV/A | No  | <-- LBFGS
 |  |dR|max  |   4.588549E-003 |   1.000000E-006 |          A | No  | <-- LBFGS
 |   Smax    |   1.652639E+000 |   1.000000E-006 |        GPa | No  | <-- LBFGS
 +-----------+-----------------+-----------------+------------+-----+ <-- LBFGS
  

================================================================================
 Starting LBFGS iteration          4 ...
================================================================================
  
 +------------+-------------+-------------+-----------------+ <-- min LBFGS
 |    Step    |   lambda    |   F.delta'  |    enthalpy     | <-- min LBFGS
 +------------+-------------+-------------+-----------------+ <-- min LBFGS
 |  previous  |    0.000000 |    0.011570 |     -119.322004 | <-- min LBFGS
 +------------+-------------+-------------+-----------------+ <-- min LBFGS
  

--------------------------------------------------------------------------------
 LBFGS: starting iteration         4 with trial guess (lambda=  1.000000)
--------------------------------------------------------------------------------

                           -------------------------------
                                      Unit Cell
                           -------------------------------
        Real Lattice(A)              Reciprocal Lattice(1/A)
     3.7699737     0.0000000     0.0000000        1.666639045   0.000000000   0.000000000
     0.0000000     2.1901495     0.0000000        0.000000000   2.868838605   0.000000000
     0.0000000     0.0000000     3.4908143        0.000000000   0.000000000   1.799919656

                       Lattice parameters(A)       Cell Angles
                    a =      3.769974          alpha =   90.000000
                    b =      2.190149          beta  =   90.000000
                    c =      3.490814          gamma =   90.000000

                Current cell volume =            28.822976 A**3

                           -------------------------------
                                     Cell Contents
                           -------------------------------

            xxxxxxxxxxxxxxxxxxxxxxxxxxxxxxxxxxxxxxxxxxxxxxxxxxxxxxxxxxxxxxxxx
            x  Element         Atom        Fractional coordinates of atoms  x
            x                 Number           u          v          w      x
            x---------------------------------------------------------------x
            x  H                 1         0.358559   0.147768   0.383601   x
            x  H                 2         0.474546   0.354066   0.495299   x
            x  H                 3         0.974546   0.645934   0.495299   x
            x  H                 4         0.858559   0.852232   0.383601   x
            x  H                 5         0.025454   0.354066  -0.004701   x
            x  H                 6         0.141441   0.147768   0.883601   x
            x  H                 7         0.525454   0.645934  -0.004701   x
            x  H                 8         0.641441   0.852232   0.883601   x
            xxxxxxxxxxxxxxxxxxxxxxxxxxxxxxxxxxxxxxxxxxxxxxxxxxxxxxxxxxxxxxxxx


------------------------------------------------------------------------ <-- SCF
SCF loop      Energy                           Energy gain       Timer   <-- SCF
                                               per atom          (sec)   <-- SCF
------------------------------------------------------------------------ <-- SCF
Initial  -1.24718317E+002                                        103.54  <-- SCF
      1  -1.24719976E+002                    2.07423641E-004     104.34  <-- SCF
      2  -1.24719980E+002                    5.30043914E-007     105.53  <-- SCF
      3  -1.24719899E+002                   -1.00995540E-005     106.76  <-- SCF
      4  -1.24719897E+002                   -2.59217128E-007     108.01  <-- SCF
      5  -1.24719897E+002                    1.35723868E-008     109.31  <-- SCF
      6  -1.24719897E+002                    1.57887803E-009     110.57  <-- SCF
      7  -1.24719897E+002                    6.25059534E-012     111.67  <-- SCF
      8  -1.24719897E+002                    4.85486066E-012     112.89  <-- SCF
      9  -1.24719897E+002                   -1.26884971E-013     114.06  <-- SCF
------------------------------------------------------------------------ <-- SCF
 
Final energy =  -124.7198974848     eV
(energy not corrected for finite basis set)
 

 ******************************** Symmetrised Forces ********************************
 *                                                                                  *
 *                           Cartesian components (eV/A)                            *
 * -------------------------------------------------------------------------------- *
 *                         x                    y                    z              *
 *                                                                                  *
 * H               1      0.00874              0.01145              0.00301         *
 * H               2     -0.00965             -0.00374             -0.00301         *
 * H               3     -0.00965              0.00374             -0.00301         *
 * H               4      0.00874             -0.01145              0.00301         *
 * H               5      0.00965             -0.00374             -0.00301         *
 * H               6     -0.00874              0.01145              0.00301         *
 * H               7      0.00965              0.00374             -0.00301         *
 * H               8     -0.00874             -0.01145              0.00301         *
 *                                                                                  *
 ************************************************************************************

 *********** Symmetrised Stress Tensor ***********
 *                                               *
 *          Cartesian components (GPa)           *
 * --------------------------------------------- *
 *             x             y             z     *
 *                                               *
 *  x    -29.645967      0.000000      0.000000  *
 *  y      0.000000    -29.681174      0.000000  *
 *  z      0.000000      0.000000    -30.526089  *
 *                                               *
 *  Pressure:   29.9511                          *
 *                                               *
 *************************************************
  
 +------------+-------------+-------------+-----------------+ <-- min LBFGS
 |    Step    |   lambda    |   F.delta'  |    enthalpy     | <-- min LBFGS
 +------------+-------------+-------------+-----------------+ <-- min LBFGS
 |  previous  |    0.000000 |    0.011570 |     -119.322004 | <-- min LBFGS
 | trial step |    1.000000 |    0.000424 |     -119.322929 | <-- min LBFGS
 +------------+-------------+-------------+-----------------+ <-- min LBFGS
  
 LBFGS: finished iteration     4 with enthalpy= -1.19322929E+002 eV
  
 +-----------+-----------------+-----------------+------------+-----+ <-- LBFGS
 | Parameter |      value      |    tolerance    |    units   | OK? | <-- LBFGS
 +-----------+-----------------+-----------------+------------+-----+ <-- LBFGS
 |  dE/ion   |   1.156231E-004 |   1.000000E-009 |         eV | No  | <-- LBFGS
 |  |F|max   |   1.471967E-002 |   1.000000E-006 |       eV/A | No  | <-- LBFGS
 |  |dR|max  |   1.144057E-003 |   1.000000E-006 |          A | No  | <-- LBFGS
 |   Smax    |   5.260890E-001 |   1.000000E-006 |        GPa | No  | <-- LBFGS
 +-----------+-----------------+-----------------+------------+-----+ <-- LBFGS
  

================================================================================
 Starting LBFGS iteration          5 ...
================================================================================
  
 +------------+-------------+-------------+-----------------+ <-- min LBFGS
 |    Step    |   lambda    |   F.delta'  |    enthalpy     | <-- min LBFGS
 +------------+-------------+-------------+-----------------+ <-- min LBFGS
 |  previous  |    0.000000 |    0.003628 |     -119.322929 | <-- min LBFGS
 +------------+-------------+-------------+-----------------+ <-- min LBFGS
  

--------------------------------------------------------------------------------
 LBFGS: starting iteration         5 with trial guess (lambda=  1.000000)
--------------------------------------------------------------------------------

                           -------------------------------
                                      Unit Cell
                           -------------------------------
        Real Lattice(A)              Reciprocal Lattice(1/A)
     3.7701948     0.0000000     0.0000000        1.666541301   0.000000000   0.000000000
     0.0000000     2.1903513     0.0000000        0.000000000   2.868574220   0.000000000
     0.0000000     0.0000000     3.4935910        0.000000000   0.000000000   1.798489093

                       Lattice parameters(A)       Cell Angles
                    a =      3.770195          alpha =   90.000000
                    b =      2.190351          beta  =   90.000000
                    c =      3.493591          gamma =   90.000000

                Current cell volume =            28.850253 A**3

                           -------------------------------
                                     Cell Contents
                           -------------------------------

            xxxxxxxxxxxxxxxxxxxxxxxxxxxxxxxxxxxxxxxxxxxxxxxxxxxxxxxxxxxxxxxxx
            x  Element         Atom        Fractional coordinates of atoms  x
            x                 Number           u          v          w      x
            x---------------------------------------------------------------x
            x  H                 1         0.358663   0.148111   0.383516   x
            x  H                 2         0.474409   0.354217   0.495384   x
            x  H                 3         0.974409   0.645783   0.495384   x
            x  H                 4         0.858663   0.851889   0.383516   x
            x  H                 5         0.025591   0.354217  -0.004616   x
            x  H                 6         0.141337   0.148111   0.883516   x
            x  H                 7         0.525591   0.645783  -0.004616   x
            x  H                 8         0.641337   0.851889   0.883516   x
            xxxxxxxxxxxxxxxxxxxxxxxxxxxxxxxxxxxxxxxxxxxxxxxxxxxxxxxxxxxxxxxxx


------------------------------------------------------------------------ <-- SCF
SCF loop      Energy                           Energy gain       Timer   <-- SCF
                                               per atom          (sec)   <-- SCF
------------------------------------------------------------------------ <-- SCF
Initial  -1.24724757E+002                                        116.16  <-- SCF
      1  -1.24725124E+002                    4.58801998E-005     117.15  <-- SCF
      2  -1.24725125E+002                    1.25586877E-007     118.66  <-- SCF
      3  -1.24725109E+002                   -2.04866415E-006     120.15  <-- SCF
      4  -1.24725108E+002                   -5.92158624E-008     121.67  <-- SCF
      5  -1.24725108E+002                    1.95571128E-009     123.19  <-- SCF
      6  -1.24725108E+002                    2.38755220E-010     124.71  <-- SCF
      7  -1.24725108E+002                    2.36851945E-012     125.85  <-- SCF
      8  -1.24725108E+002                    8.39857663E-013     126.99  <-- SCF
------------------------------------------------------------------------ <-- SCF
 
Final energy =  -124.7251084886     eV
(energy not corrected for finite basis set)
 

 ******************************** Symmetrised Forces ********************************
 *                                                                                  *
 *                           Cartesian components (eV/A)                            *
 * -------------------------------------------------------------------------------- *
 *                         x                    y                    z              *
 *                                                                                  *
 * H               1      0.00296              0.00434             -0.00195         *
 * H               2     -0.00367              0.00116              0.00195         *
[...]

------------------------------------------------------------------------ <-- SCF
SCF loop      Energy                           Energy gain       Timer   <-- SCF
                                               per atom          (sec)   <-- SCF
------------------------------------------------------------------------ <-- SCF
Initial  -1.24722043E+002                                        385.43  <-- SCF
      1  -1.24722043E+002                    2.67666867E-012     385.95  <-- SCF
      2  -1.24722043E+002                    1.20842829E-014     386.89  <-- SCF
      3  -1.24722043E+002                    5.74003439E-014     387.86  <-- SCF
      4  -1.24722043E+002                   -1.81264244E-014     388.84  <-- SCF
------------------------------------------------------------------------ <-- SCF
 
Final energy =  -124.7220432184     eV
(energy not corrected for finite basis set)
 

 ******************************** Symmetrised Forces ********************************
 *                                                                                  *
 *                           Cartesian components (eV/A)                            *
 * -------------------------------------------------------------------------------- *
 *                         x                    y                    z              *
 *                                                                                  *
 * H               1     -0.00000             -0.00000             -0.00000         *
 * H               2     -0.00000             -0.00000              0.00000         *
 * H               3     -0.00000              0.00000              0.00000         *
 * H               4     -0.00000              0.00000             -0.00000         *
 * H               5      0.00000             -0.00000              0.00000         *
 * H               6      0.00000             -0.00000             -0.00000         *
 * H               7      0.00000              0.00000              0.00000         *
 * H               8      0.00000              0.00000             -0.00000         *
 *                                                                                  *
 ************************************************************************************

 *********** Symmetrised Stress Tensor ***********
 *                                               *
 *          Cartesian components (GPa)           *
 * --------------------------------------------- *
 *             x             y             z     *
 *                                               *
 *  x    -29.999999      0.000000      0.000000  *
 *  y      0.000000    -29.999998      0.000000  *
 *  z      0.000000      0.000000    -29.999999  *
 *                                               *
 *  Pressure:   30.0000                          *
 *                                               *
 *************************************************
  
 +------------+-------------+-------------+-----------------+ <-- min LBFGS
 |    Step    |   lambda    |   F.delta'  |    enthalpy     | <-- min LBFGS
 +------------+-------------+-------------+-----------------+ <-- min LBFGS
 |  previous  |    0.000000 |  3.106E-008 |     -119.323455 | <-- min LBFGS
 | trial step |    1.000000 |  1.376E-008 |     -119.323455 | <-- min LBFGS
 |  line step |    1.795018 | -2.963E-009 |     -119.323455 | <-- min LBFGS
 +------------+-------------+-------------+-----------------+ <-- min LBFGS
  
 LBFGS: finished iteration    23 with enthalpy= -1.19323455E+002 eV
  
 +-----------+-----------------+-----------------+------------+-----+ <-- LBFGS
 | Parameter |      value      |    tolerance    |    units   | OK? | <-- LBFGS
 +-----------+-----------------+-----------------+------------+-----+ <-- LBFGS
 |  dE/ion   |   1.117796E-013 |   1.000000E-009 |         eV | Yes | <-- LBFGS
 |  |F|max   |   4.741402E-008 |   1.000000E-006 |       eV/A | Yes | <-- LBFGS
 |  |dR|max  |   1.109995E-007 |   1.000000E-006 |          A | Yes | <-- LBFGS
 |   Smax    |   1.669201E-006 |   1.000000E-006 |        GPa | No  | <-- LBFGS
 +-----------+-----------------+-----------------+------------+-----+ <-- LBFGS
  

================================================================================
 Starting LBFGS iteration         24 ...
================================================================================
  
 +------------+-------------+-------------+-----------------+ <-- min LBFGS
 |    Step    |   lambda    |   F.delta'  |    enthalpy     | <-- min LBFGS
 +------------+-------------+-------------+-----------------+ <-- min LBFGS
 |  previous  |    0.000000 |  1.276E-008 |     -119.323455 | <-- min LBFGS
 +------------+-------------+-------------+-----------------+ <-- min LBFGS
  

--------------------------------------------------------------------------------
 LBFGS: starting iteration        24 with trial guess (lambda=  1.000000)
--------------------------------------------------------------------------------

                           -------------------------------
                                      Unit Cell
                           -------------------------------
        Real Lattice(A)              Reciprocal Lattice(1/A)
     3.7626858     0.0000000     0.0000000        1.669867131   0.000000000   0.000000000
     0.0000000     2.1851138     0.0000000        0.000000000   2.875449983   0.000000000
     0.0000000     0.0000000     3.5066925        0.000000000   0.000000000   1.791769678

                       Lattice parameters(A)       Cell Angles
                    a =      3.762686          alpha =   90.000000
                    b =      2.185114          beta  =   90.000000
                    c =      3.506693          gamma =   90.000000

                Current cell volume =            28.831663 A**3

                           -------------------------------
                                     Cell Contents
                           -------------------------------

            xxxxxxxxxxxxxxxxxxxxxxxxxxxxxxxxxxxxxxxxxxxxxxxxxxxxxxxxxxxxxxxxx
            x  Element         Atom        Fractional coordinates of atoms  x
            x                 Number           u          v          w      x
            x---------------------------------------------------------------x
            x  H                 1         0.359974   0.148943   0.381613   x
            x  H                 2         0.472752   0.354738   0.497287   x
            x  H                 3         0.972752   0.645262   0.497287   x
            x  H                 4         0.859974   0.851057   0.381613   x
            x  H                 5         0.027248   0.354738  -0.002713   x
            x  H                 6         0.140026   0.148943   0.881613   x
            x  H                 7         0.527248   0.645262  -0.002713   x
            x  H                 8         0.640026   0.851057   0.881613   x
            xxxxxxxxxxxxxxxxxxxxxxxxxxxxxxxxxxxxxxxxxxxxxxxxxxxxxxxxxxxxxxxxx


------------------------------------------------------------------------ <-- SCF
SCF loop      Energy                           Energy gain       Timer   <-- SCF
                                               per atom          (sec)   <-- SCF
------------------------------------------------------------------------ <-- SCF
Initial  -1.24722043E+002                                        390.65  <-- SCF
      1  -1.24722043E+002                    2.61624725E-012     391.16  <-- SCF
      2  -1.24722043E+002                    6.04214146E-015     392.12  <-- SCF
      3  -1.24722043E+002                   -1.41990324E-013     393.08  <-- SCF
      4  -1.24722043E+002                    3.80654912E-013     394.04  <-- SCF
------------------------------------------------------------------------ <-- SCF
 
Final energy =  -124.7220431673     eV
(energy not corrected for finite basis set)
 

 ******************************** Symmetrised Forces ********************************
 *                                                                                  *
 *                           Cartesian components (eV/A)                            *
 * -------------------------------------------------------------------------------- *
 *                         x                    y                    z              *
 *                                                                                  *
 * H               1     -0.00000             -0.00000             -0.00000         *
 * H               2      0.00000              0.00000              0.00000         *
 * H               3      0.00000             -0.00000              0.00000         *
 * H               4     -0.00000              0.00000             -0.00000         *
 * H               5     -0.00000              0.00000              0.00000         *
 * H               6      0.00000             -0.00000             -0.00000         *
 * H               7     -0.00000             -0.00000              0.00000         *
 * H               8      0.00000              0.00000             -0.00000         *
 *                                                                                  *
 ************************************************************************************

 *********** Symmetrised Stress Tensor ***********
 *                                               *
 *          Cartesian components (GPa)           *
 * --------------------------------------------- *
 *             x             y             z     *
 *                                               *
 *  x    -29.999999      0.000000      0.000000  *
 *  y      0.000000    -29.999999      0.000000  *
 *  z      0.000000      0.000000    -29.999999  *
 *                                               *
 *  Pressure:   30.0000                          *
 *                                               *
 *************************************************
  
 +------------+-------------+-------------+-----------------+ <-- min LBFGS
 |    Step    |   lambda    |   F.delta'  |    enthalpy     | <-- min LBFGS
 +------------+-------------+-------------+-----------------+ <-- min LBFGS
 |  previous  |    0.000000 |  1.276E-008 |     -119.323455 | <-- min LBFGS
 | trial step |    1.000000 |  2.247E-009 |     -119.323455 | <-- min LBFGS
 +------------+-------------+-------------+-----------------+ <-- min LBFGS
  
 LBFGS: finished iteration    24 with enthalpy= -1.19323455E+002 eV
  
 +-----------+-----------------+-----------------+------------+-----+ <-- LBFGS
 | Parameter |      value      |    tolerance    |    units   | OK? | <-- LBFGS
 +-----------+-----------------+-----------------+------------+-----+ <-- LBFGS
 |  dE/ion   |   1.570957E-013 |   1.000000E-009 |         eV | Yes | <-- LBFGS
 |  |F|max   |   2.642353E-008 |   1.000000E-006 |       eV/A | Yes | <-- LBFGS
 |  |dR|max  |   4.516217E-008 |   1.000000E-006 |          A | Yes | <-- LBFGS
 |   Smax    |   7.656428E-007 |   1.000000E-006 |        GPa | Yes | <-- LBFGS
 +-----------+-----------------+-----------------+------------+-----+ <-- LBFGS
  
 LBFGS: Geometry optimization completed successfully.

================================================================================
 LBFGS: Final Configuration:
================================================================================

                           -------------------------------
                                      Unit Cell
                           -------------------------------
        Real Lattice(A)              Reciprocal Lattice(1/A)
     3.7626858     0.0000000     0.0000000        1.669867131   0.000000000   0.000000000
     0.0000000     2.1851138     0.0000000        0.000000000   2.875449983   0.000000000
     0.0000000     0.0000000     3.5066925        0.000000000   0.000000000   1.791769678

                       Lattice parameters(A)       Cell Angles
                    a =      3.762686          alpha =   90.000000
                    b =      2.185114          beta  =   90.000000
                    c =      3.506693          gamma =   90.000000

                Current cell volume =            28.831663 A**3

                           -------------------------------
                                     Cell Contents
                           -------------------------------

            xxxxxxxxxxxxxxxxxxxxxxxxxxxxxxxxxxxxxxxxxxxxxxxxxxxxxxxxxxxxxxxxx
            x  Element         Atom        Fractional coordinates of atoms  x
            x                 Number           u          v          w      x
            x---------------------------------------------------------------x
            x  H                 1         0.359974   0.148943   0.381613   x
            x  H                 2         0.472752   0.354738   0.497287   x
            x  H                 3         0.972752   0.645262   0.497287   x
            x  H                 4         0.859974   0.851057   0.381613   x
            x  H                 5         0.027248   0.354738  -0.002713   x
            x  H                 6         0.140026   0.148943   0.881613   x
            x  H                 7         0.527248   0.645262  -0.002713   x
            x  H                 8         0.640026   0.851057   0.881613   x
            xxxxxxxxxxxxxxxxxxxxxxxxxxxxxxxxxxxxxxxxxxxxxxxxxxxxxxxxxxxxxxxxx


 LBFGS: Final Enthalpy     = -1.19323455E+002 eV
 LBFGS: Final <frequency>  =    1258.35126 cm-1
 LBFGS: Final bulk modulus =      92.21196 GPa
  
  **********************************************************
  *** There were at least     1 warnings during this run ***
  *** => please check the whole of this file carefully!  ***
  **********************************************************

 ******************************** Symmetrised Forces ********************************
 *                                                                                  *
 *                           Cartesian components (eV/A)                            *
 * -------------------------------------------------------------------------------- *
 *                         x                    y                    z              *
 *                                                                                  *
 * H               1     -0.00000             -0.00000             -0.00000         *
 * H               2      0.00000              0.00000              0.00000         *
 * H               3      0.00000             -0.00000              0.00000         *
 * H               4     -0.00000              0.00000             -0.00000         *
 * H               5     -0.00000              0.00000              0.00000         *
 * H               6      0.00000             -0.00000             -0.00000         *
 * H               7     -0.00000             -0.00000              0.00000         *
 * H               8      0.00000              0.00000             -0.00000         *
 *                                                                                  *
 ************************************************************************************

 *********** Symmetrised Stress Tensor ***********
 *                                               *
 *          Cartesian components (GPa)           *
 * --------------------------------------------- *
 *             x             y             z     *
 *                                               *
 *  x    -29.999999      0.000000      0.000000  *
 *  y      0.000000    -29.999999      0.000000  *
 *  z      0.000000      0.000000    -29.999999  *
 *                                               *
 *  Pressure:   30.0000                          *
 *                                               *
 *************************************************

 Pseudo atomic calculation performed for H 1s1

 Converged in 24 iterations to a total energy of -12.4850 eV

Charge spilling parameter for spin component 1 = 0.77%

            Orbital Populations       
     Ion    Atom   Orbital             Charge
  -------------------------------------------
      H     1      S                    1.002
      H     2      S                    1.000
      H     3      S                    1.003
      H     4      S                    0.997
      H     5      S                    1.001
      H     6      S                    0.997
      H     7      S                    0.999
      H     8      S                    1.001
  -------------------------------------------
                           Total:       8.000
  -------------------------------------------

     Atomic Populations (Mulliken)
     -----------------------------
Species          Ion     s      p      d      f     Total  Charge (e)
=====================================================================
  H               1     1.00   0.00   0.00   0.00   1.00     0.00
  H               2     1.00   0.00   0.00   0.00   1.00    -0.00
  H               3     1.00   0.00   0.00   0.00   1.00    -0.00
  H               4     1.00   0.00   0.00   0.00   1.00     0.00
  H               5     1.00   0.00   0.00   0.00   1.00    -0.00
  H               6     1.00   0.00   0.00   0.00   1.00     0.00
  H               7     1.00   0.00   0.00   0.00   1.00    -0.00
  H               8     1.00   0.00   0.00   0.00   1.00     0.00
=====================================================================

                 Bond                   Population      Length (A)
======================================================================
               H 5 -- H 6                    1.23        0.73947
               H 1 -- H 2                    1.23        0.73947
               H 3 -- H 4                    1.23        0.73947
               H 7 -- H 8                    1.23        0.73947
               H 1 -- H 7                   -0.18        1.84083
               H 3 -- H 6                   -0.18        1.84083
               H 4 -- H 5                   -0.18        1.84083
               H 2 -- H 8                   -0.18        1.84083
               H 1 -- H 3                   -0.17        1.86106
               H 2 -- H 4                   -0.17        1.86106
               H 5 -- H 8                   -0.17        1.86106
               H 6 -- H 7                   -0.17        1.86106
               H 3 -- H 5                   -0.17        1.87597
               H 2 -- H 7                   -0.17        1.87597
               H 1 -- H 5                   -0.08        1.89365
               H 4 -- H 7                   -0.08        1.89365
               H 3 -- H 8                   -0.08        1.89365
               H 2 -- H 6                   -0.08        1.89365
               H 4 -- H 8                   -0.07        1.93885
               H 1 -- H 6                   -0.07        1.93885
               H 5 -- H 7                   -0.16        1.98556
               H 2 -- H 3                   -0.16        1.98556
               H 6 -- H 8                   -0.20        1.99076
               H 1 -- H 4                   -0.20        1.99076
               H 4 -- H 6                   -0.18        2.14669
               H 1 -- H 8                   -0.18        2.14669
======================================================================


Writing analysis data to Pca21_30GPa.castep_bin

Writing model to Pca21_30GPa.check
 
 A BibTeX formatted list of references used in this run has been written to 
 Pca21_30GPa.bib
 
Initialisation time =      2.55 s
Calculation time    =    393.94 s
Finalisation time   =      0.62 s
Total time          =    397.12 s
Peak Memory Use     = 471204 kB
  
Overall parallel efficiency rating: Excellent (95%)                             
  
Data was distributed by:-
k-point (16-way); efficiency rating: Excellent (96%)                            
  
Parallel notes:
1) Calculation only took 396.5 s, so efficiency estimates may be inaccurate.    
