 +-------------------------------------------------+
 |                                                 |
 |      CCC   AA    SSS  TTTTT  EEEEE  PPPP        |
 |     C     A  A  S       T    E      P   P       |
 |     C     AAAA   SS     T    EEE    PPPP        |
 |     C     A  A     S    T    E      P           |
 |      CCC  A  A  SSS     T    EEEEE  P           |
 |                                                 |
 +-------------------------------------------------+
 |                                                 |
 | Welcome to Academic Release CASTEP version 18.1 |          
 | Ab Initio Total Energy Program                  |
 |                                                 |
 | Authors:                                        |
 | M. Segall, M. Probert, C. Pickard, P. Hasnip,   |
 | S. Clark, K. Refson, J. R. Yates, M. Payne      |
 |                                                 |
 | Contributors:                                   |
 | P. Lindan, P. Haynes, J. White, V. Milman,      |
 | N. Govind, M. Gibson, P. Tulip, V. Cocula,      |
 | B. Montanari, D. Quigley, M. Glover,            |
 | L. Bernasconi, A. Perlov, M. Plummer,           |
 | E. McNellis, J. Meyer, J. Gale, D. Jochym       |
 | J. Aarons, B. Walker, R. Gillen, D. Jones       |
 | T. Green, I. J. Bush, C. J. Armstrong,          |
 | E. J. Higgins, E. L. Brown, M. S. McFly,        |
 | J. Wilkins, B-C. Shih, P. J. P. Byrne           |
 |                                                 |
 | Copyright (c) 2000 - 2017                       |
 |                                                 |
 |     Distributed under the terms of an           |
 |     Agreement between the United Kingdom        |
 |     Car-Parrinello (UKCP) Consortium,           |
 |     Daresbury Laboratory and Accelrys, Inc.     |
 |                                                 |
 | Please cite                                     |
 |                                                 |
 |     "First principles methods using CASTEP"     |
 |                                                 |
 |         Zeitschrift fuer Kristallographie       |
 |           220(5-6) pp. 567-570 (2005)           |
 |                                                 |
 | S. J. Clark, M. D. Segall, C. J. Pickard,       |
 | P. J. Hasnip, M. J. Probert, K. Refson,         |
 | M. C. Payne                                     |
 |                                                 |
 |       in all publications arising from          |
 |              your use of CASTEP                 |
 |                                                 |
 +-------------------------------------------------+


 Compiled for linux_x86_64_gfortran4.8 on Thu, 19 Jul 2018 15:42:32 +0100
 from code version 70483bd0ad64+  Sun, 10 Dec 2017 12:18:29 +0000
 Compiler: GNU Fortran 4.8.5; Optimisation: fast
 MATHLIBS: Intel MKL(2018.0.0) (LAPACK version 3.7.0)
 FFT Lib : mkl
 Fundamental constants values: CODATA 2014

 Run started: Fri, 28 Aug 2020 10:23:56 +0100

 Atomic calculation performed for H: 1s1

 Converged in 41 iterations to an ae energy of -12.488 eV

   ============================================================                
   | Pseudopotential Report - Date of generation 28-08-2020   |                
   ------------------------------------------------------------                
   | Element: H Ionic charge:  1.00 Level of theory: PBE      |                
   | Atomic Solver: Koelling-Harmon                           |                
   |                                                          |                
   |               Reference Electronic Structure             |                
   |         Orbital         Occupation         Energy        |                
   |            1s              1.000           -0.239        |                
   |                                                          |                
   |                 Pseudopotential Definition               |                
   |        Beta     l      e      Rc     scheme   norm       |                
   |          1      0   -0.239   0.599     qc      0         |                
   |          2      0    0.250   0.599     qc      0         |                
   |         loc     1    0.000   0.599     pn      0         |                
   |                                                          |                
   | Augmentation charge Rinner = 0.421                       |                
   | No partial core correction                               |                
   ------------------------------------------------------------                
   | "1|0.6|13|15|17|10(qc=8)"                                |                
   ------------------------------------------------------------                
   |      Author: Chris J. Pickard, Cambridge University      |                
   ============================================================                

 Pseudo atomic calculation performed for H 1s1

 Converged in 24 iterations to a total energy of -12.4868 eV

 Calculation parallelised over 36 processes.
 Data is distributed by k-point(36-way)

 ************************************ Title ************************************
 

 ***************************** General Parameters ******************************
  
 output verbosity                               : normal  (1)
 write checkpoint data to                       : Cmca-12.check
 type of calculation                            : geometry optimization
 stress calculation                             : on
 density difference calculation                 : off
 electron localisation func (ELF) calculation   : off
 Hirshfeld analysis                             : off
 unlimited duration calculation
 timing information                             : on
 memory usage estimate                          : on
 write extra output files                       : on
 write final potential to formatted file        : off
 write final density to formatted file          : off
 write structure in CELL formatted file         : on
 write BibTeX reference list                    : on
 write OTFG pseudopotential files               : on
 write electrostatic potential file             : on
 write bands file                               : on
 checkpoint writing                             : both castep_bin and check files
  
 output         length unit                     : A
 output           mass unit                     : amu
 output           time unit                     : ps
 output         charge unit                     : e
 output           spin unit                     : hbar/2
 output         energy unit                     : eV
 output          force unit                     : eV/A
 output       velocity unit                     : A/ps
 output       pressure unit                     : GPa
 output     inv_length unit                     : 1/A
 output      frequency unit                     : cm-1
 output force constant unit                     : eV/A**2
 output         volume unit                     : A**3
 output   IR intensity unit                     : (D/A)**2/amu
 output         dipole unit                     : D
 output         efield unit                     : eV/A/e
 output        entropy unit                     : J/mol/K
  
 wavefunctions paging                           : none
 random number generator seed                   : randomised (102357413)
 data distribution                              : optimal for this architecture
 optimization strategy                          : maximize speed(+++)

 *********************** Exchange-Correlation Parameters ***********************
  
 using functional                               : Perdew Burke Ernzerhof
 relativistic treatment                         : Koelling-Harmon
 DFT+D: Semi-empirical dispersion correction    : off

 ************************* Pseudopotential Parameters **************************
  
 pseudopotential representation                 : reciprocal space
 <beta|phi> representation                      : reciprocal space
 spin-orbit coupling                            : off

 **************************** Basis Set Parameters *****************************
  
 plane wave basis set cut-off                   :  1600.0000   eV
 size of standard grid                          :     2.0000
 size of   fine   gmax                          :    40.9853   1/A
 finite basis set correction                    : automatic
 number of sample energies                      :          3
           sample  spacing                      :     5.0000   eV

 **************************** Electronic Parameters ****************************
  
 number of  electrons                           :  24.00    
 net charge of system                           :  0.000    
 treating system as non-spin-polarized
 number of bands                                :         12

 ********************* Electronic Minimization Parameters **********************
  
 Method: Treating system as non-metallic,
         and number of  SD  steps               :          1
         and number of  CG  steps               :          4
  
 total energy / atom convergence tol.           : 0.1000E-10   eV
 eigen-energy convergence tolerance             : 0.2000E-10   eV
 max force / atom convergence tol.              : ignored
 convergence tolerance window                   :          3   cycles
 max. number of SCF cycles                      :        200
 periodic dipole correction                     : NONE

 ************************** Density Mixing Parameters **************************
  
 density-mixing scheme                          : Broyden
 max. length of mixing history                  :         20
 charge density mixing amplitude                : 0.8000    
 cut-off energy for mixing                      :  1600.       eV

 *********************** Population Analysis Parameters ************************
  
 Population analysis with cutoff                :  3.000       A
 Population analysis output                     : summary and pdos components

 ********************** Geometry Optimization Parameters ***********************
  
 optimization method                            : LBFGS
 max. no. of LBFGS updates                      : unbounded
 variable cell method                           : fixed basis quality
 max. number of steps                           :        200
 estimated bulk modulus                         :  500.0       GPa
 estimated <frequency>                          :  1668.       cm-1
 geom line minimiser                            : on
 with line minimiser tolerance                  :     0.4000
 total energy convergence tolerance             : 0.1000E-08   eV/atom
        max ionic |force| tolerance             : 0.1000E-04   eV/A
 max ionic |displacement| tolerance             : 0.1000E-04   A
   max |stress component| tolerance             : 0.1000E-04   GPa
 convergence tolerance window                   :          2   steps
 backup results every                           :      14400   seconds
 write geom trajectory file                     : on

 *******************************************************************************
  

                           -------------------------------
                                      Unit Cell
                           -------------------------------
        Real Lattice(A)                      Reciprocal Lattice(1/A)
     2.5550000     0.0000000     0.0000000        2.459172332   0.000000000   0.000000000
     0.0000000     4.7480000     0.0000000        0.000000000   1.323333047   0.000000000
     0.0000000     0.0000000     2.8710000        0.000000000   0.000000000   2.188500629

                       Lattice parameters(A)       Cell Angles
                    a =      2.555000          alpha =   90.000000
                    b =      4.748000          beta  =   90.000000
                    c =      2.871000          gamma =   90.000000

                       Current cell volume =            34.828503       A**3
                                   density =             0.694562   AMU/A**3
                                           =             1.153348     g/cm^3

                           -------------------------------
                                     Cell Contents
                           -------------------------------
                         Total number of ions in cell =   24
                      Total number of species in cell =    1
                        Max number of any one species =   24

            xxxxxxxxxxxxxxxxxxxxxxxxxxxxxxxxxxxxxxxxxxxxxxxxxxxxxxxxxxxx
            x  Element    Atom        Fractional coordinates of atoms  x
            x            Number           u          v          w      x
            x----------------------------------------------------------x
            x  H            1         0.000000   0.003600   0.135800   x 
            x  H            2         0.000000   0.131700   0.452700   x 
            x  H            3         0.000000   0.268900   0.316300   x 
            x  H            4         0.500000   0.268900   0.183700   x 
            x  H            5         0.500000   0.131700   0.047300   x 
            x  H            6         0.500000   0.003600   0.364200   x 
            x  H            7         0.500000   0.231100   0.683700   x 
            x  H            8         0.500000   0.368300   0.547300   x 
            x  H            9         0.500000   0.496400   0.864200   x 
            x  H           10         0.500000   0.731100   0.816300   x 
            x  H           11         0.500000   0.868300   0.952700   x 
            x  H           12         0.500000   0.996400   0.635800   x 
            x  H           13         0.500000   0.768900   0.316300   x 
            x  H           14         0.500000   0.631700   0.452700   x 
            x  H           15         0.500000   0.503600   0.135800   x 
            x  H           16         0.000000   0.768900   0.183700   x 
            x  H           17         0.000000   0.631700   0.047300   x 
            x  H           18         0.000000   0.503600   0.364200   x 
            x  H           19         0.000000   0.731100   0.683700   x 
            x  H           20         0.000000   0.868300   0.547300   x 
            x  H           21         0.000000   0.996400   0.864200   x 
            x  H           22         0.000000   0.231100   0.816300   x 
            x  H           23         0.000000   0.368300   0.952700   x 
            x  H           24         0.000000   0.496400   0.635800   x 
            xxxxxxxxxxxxxxxxxxxxxxxxxxxxxxxxxxxxxxxxxxxxxxxxxxxxxxxxxxxx


                         No user defined ionic velocities

                           -------------------------------
                                   Details of Species
                           -------------------------------

                               Mass of species in AMU
                                    H    1.0078250

                          Electric Quadrupole Moment (Barn)
                                    H    0.0028600 Isotope  2

                          Files used for pseudopotentials:
                                    H 1|0.6|13|15|17|10(qc=8)

                           -------------------------------
                              k-Points For BZ Sampling
                           -------------------------------
                       MP grid size for SCF calculation is 18 18 18
                            with an offset of   0.000  0.000  0.000
                       Number of kpoints used =          2916

                           -------------------------------
                               Symmetry and Constraints
                           -------------------------------

                      Cell is a supercell containing 2 primitive cells
                      Maximum deviation from symmetry =  0.00000         ANG

                      Number of symmetry operations   =           1
                      Number of ionic constraints     =           3
                      Point group of crystal =     1: C1, 1, 1
                      Space group of crystal =    64: Cmce, -C 2bc 2

             Set iprint > 1 for details on symmetry rotations/translations

                         Centre of mass is constrained
             Set iprint > 1 for details of linear ionic constraints

                         Number of cell constraints= 0
                         Cell constraints are:  1 2 3 4 5 6

                         External pressure/stress (GPa)
                        300.00000   0.00000   0.00000
                                  300.00000   0.00000
                                            300.00000
  
+---------------- MEMORY AND SCRATCH DISK ESTIMATES PER PROCESS --------------+
|                                                     Memory          Disk    |
| Baseline code, static data and system overhead      491.0 MB         0.0 MB |
| BLAS internal memory storage                          0.0 MB         0.0 MB |
| Model and support data                              174.8 MB         0.0 MB |
| Electronic energy minimisation requirements         177.9 MB         0.0 MB |
| Force calculation requirements                       10.5 MB         0.0 MB |
| Stress calculation requirements                      13.4 MB         0.0 MB |
|                                               ----------------------------- |
| Approx. total storage required per process          843.7 MB         0.0 MB |
|                                                                             |
| Requirements will fluctuate during execution and may exceed these estimates |
+-----------------------------------------------------------------------------+
Calculating finite basis set correction with  3 cut-off energies.
Calculating total energy with cut-off of 1590.000 eV.
------------------------------------------------------------------------ <-- SCF
SCF loop      Energy                           Energy gain       Timer   <-- SCF
                                               per atom          (sec)   <-- SCF
------------------------------------------------------------------------ <-- SCF
Initial   5.38733417E+002                                         15.66  <-- SCF
      1  -2.90031235E+002                    3.45318605E+001      78.12  <-- SCF
      2  -3.41089069E+002                    2.12740975E+000     123.55  <-- SCF
      3  -3.41029948E+002                   -2.46338285E-003     179.39  <-- SCF
      4  -3.41022278E+002                   -3.19595729E-004     235.27  <-- SCF
      5  -3.41022512E+002                    9.79095975E-006     289.17  <-- SCF
      6  -3.41022530E+002                    7.18848979E-007     343.25  <-- SCF
      7  -3.41022530E+002                    2.80228277E-009     397.28  <-- SCF
      8  -3.41022530E+002                    1.78593617E-010     447.94  <-- SCF
      9  -3.41022530E+002                    4.06434715E-012     485.90  <-- SCF
     10  -3.41022530E+002                    1.63137819E-013     523.14  <-- SCF
------------------------------------------------------------------------ <-- SCF
 
Final energy =  -341.0225298127     eV
(energy not corrected for finite basis set)
 
Calculating total energy with cut-off of 1595.000 eV.
------------------------------------------------------------------------ <-- SCF
SCF loop      Energy                           Energy gain       Timer   <-- SCF
                                               per atom          (sec)   <-- SCF
------------------------------------------------------------------------ <-- SCF
Initial  -3.41022530E+002                                        537.79  <-- SCF
      1  -3.41022616E+002                    3.58974388E-006     589.19  <-- SCF
      2  -3.41022616E+002                    1.42191729E-012     629.69  <-- SCF
      3  -3.41022616E+002                    9.05406841E-010     670.38  <-- SCF
      4  -3.41022616E+002                    2.61443461E-011     712.63  <-- SCF
      5  -3.41022616E+002                    5.23652260E-014     752.73  <-- SCF
      6  -3.41022616E+002                    3.42388016E-013     793.76  <-- SCF
------------------------------------------------------------------------ <-- SCF
 
Final energy =  -341.0226159889     eV
(energy not corrected for finite basis set)
 
Calculating total energy with cut-off of 1600.000 eV.
------------------------------------------------------------------------ <-- SCF
SCF loop      Energy                           Energy gain       Timer   <-- SCF
                                               per atom          (sec)   <-- SCF
------------------------------------------------------------------------ <-- SCF
Initial  -3.41022616E+002                                        808.78  <-- SCF
      1  -3.41022701E+002                    3.52572210E-006     862.00  <-- SCF
      2  -3.41022701E+002                    1.46824037E-012     902.10  <-- SCF
      3  -3.41022701E+002                    8.77320954E-010     942.47  <-- SCF
      4  -3.41022701E+002                    2.44444903E-011     982.50  <-- SCF
      5  -3.41022701E+002                    1.51053536E-013    1021.74  <-- SCF
      6  -3.41022701E+002                    2.65854224E-013    1061.96  <-- SCF
------------------------------------------------------------------------ <-- SCF
 
Final energy =  -341.0227006279     eV
(energy not corrected for finite basis set)
 
 For future reference: finite basis dEtot/dlog(Ecut) =      -0.027191eV
 Total energy corrected for finite basis set =    -341.022701 eV
 
+---------------- MEMORY AND SCRATCH DISK ESTIMATES PER PROCESS --------------+
|                                                     Memory          Disk    |
| Model and support data                              181.6 MB         0.0 MB |
| Electronic energy minimisation requirements         177.9 MB         0.0 MB |
| Geometry minimisation requirements                  258.5 MB         0.0 MB |
|                                               ----------------------------- |
| Approx. total storage required per process          617.9 MB         0.0 MB |
|                                                                             |
| Requirements will fluctuate during execution and may exceed these estimates |
+-----------------------------------------------------------------------------+
 

 ************************************** Forces **************************************
 *                                                                                  *
 *                           Cartesian components (eV/A)                            *
 * -------------------------------------------------------------------------------- *
 *                         x                    y                    z              *
 *                                                                                  *
 * H               1     -0.00000              0.01209             -0.11534         *
 * H               2      0.00000              0.08244             -0.00845         *
 * H               3      0.00000             -0.08029              0.03999         *
 * H               4      0.00000             -0.08029             -0.03999         *
 * H               5      0.00000              0.08244              0.00845         *
 * H               6      0.00000              0.01209              0.11534         *
 * H               7     -0.00000              0.08029             -0.03999         *
 * H               8     -0.00000             -0.08244              0.00845         *
 * H               9     -0.00000             -0.01209              0.11534         *
 * H              10      0.00000              0.08029              0.03999         *
 * H              11      0.00000             -0.08244             -0.00845         *
 * H              12      0.00000             -0.01209             -0.11534         *
 * H              13      0.00000             -0.08029              0.03999         *
 * H              14      0.00000              0.08244             -0.00845         *
 * H              15      0.00000              0.01209             -0.11534         *
 * H              16      0.00000             -0.08029             -0.03999         *
 * H              17      0.00000              0.08244              0.00845         *
 * H              18     -0.00000              0.01209              0.11534         *
 * H              19     -0.00000              0.08029             -0.03999         *
 * H              20     -0.00000             -0.08244              0.00845         *
 * H              21     -0.00000             -0.01209              0.11534         *
 * H              22     -0.00000              0.08029              0.03999         *
 * H              23     -0.00000             -0.08244             -0.00845         *
 * H              24      0.00000             -0.01209             -0.11534         *
 *                                                                                  *
 ************************************************************************************

 ***************** Stress Tensor *****************
 *                                               *
 *          Cartesian components (GPa)           *
 * --------------------------------------------- *
 *             x             y             z     *
 *                                               *
 *  x   -302.643661     -0.000000      0.000000  *
 *  y     -0.000000   -300.772245      0.000000  *
 *  z      0.000000      0.000000   -296.610621  *
 *                                               *
 *  Pressure:  300.0088                          *
 *                                               *
 *************************************************
 LBFGS: finished iteration     0 with enthalpy= -2.75807975E+002 eV
  
 +-----------+-----------------+-----------------+------------+-----+ <-- LBFGS
 | Parameter |      value      |    tolerance    |    units   | OK? | <-- LBFGS
 +-----------+-----------------+-----------------+------------+-----+ <-- LBFGS
 |  dE/ion   |   0.000000E+000 |   1.000000E-009 |         eV | No  | <-- LBFGS
 |  |F|max   |   1.159691E-001 |   1.000000E-005 |       eV/A | No  | <-- LBFGS
 |  |dR|max  |   0.000000E+000 |   1.000000E-005 |          A | No  | <-- LBFGS
 |   Smax    |   3.389379E+000 |   1.000000E-005 |        GPa | No  | <-- LBFGS
 +-----------+-----------------+-----------------+------------+-----+ <-- LBFGS
  

================================================================================
 Starting LBFGS iteration          1 ...
================================================================================
  
 +------------+-------------+-------------+-----------------+ <-- min LBFGS
 |    Step    |   lambda    |   F.delta'  |    enthalpy     | <-- min LBFGS
 +------------+-------------+-------------+-----------------+ <-- min LBFGS
 |  previous  |    0.000000 |    0.066064 |     -275.807975 | <-- min LBFGS
 +------------+-------------+-------------+-----------------+ <-- min LBFGS
  

--------------------------------------------------------------------------------
 LBFGS: starting iteration         1 with trial guess (lambda=  1.000000)
--------------------------------------------------------------------------------
 
+---------------- MEMORY AND SCRATCH DISK ESTIMATES PER PROCESS --------------+
|                                                     Memory          Disk    |
| Model and support data                              181.7 MB         0.0 MB |
| Electronic energy minimisation requirements         178.0 MB         0.0 MB |
| Geometry minimisation requirements                  258.7 MB         0.0 MB |
|                                               ----------------------------- |
| Approx. total storage required per process          618.4 MB         0.0 MB |
|                                                                             |
| Requirements will fluctuate during execution and may exceed these estimates |
+-----------------------------------------------------------------------------+
 

                           -------------------------------
                                      Unit Cell
                           -------------------------------
        Real Lattice(A)              Reciprocal Lattice(1/A)
     2.5595030     0.0000000    -0.0000000        2.454845812  -0.000000000   0.000000000
     0.0000000     4.7504444    -0.0000000       -0.000000000   1.322652106   0.000000000
    -0.0000000    -0.0000000     2.8645127        0.000000000   0.000000000   2.193456934

                       Lattice parameters(A)       Cell Angles
                    a =      2.559503          alpha =   90.000000
                    b =      4.750444          beta  =   90.000000
                    c =      2.864513          gamma =   90.000000

                Current cell volume =            34.828971 A**3

                           -------------------------------
                                     Cell Contents
                           -------------------------------

            xxxxxxxxxxxxxxxxxxxxxxxxxxxxxxxxxxxxxxxxxxxxxxxxxxxxxxxxxxxxxxxxx
            x  Element         Atom        Fractional coordinates of atoms  x
            x                 Number           u          v          w      x
            x---------------------------------------------------------------x
            x  H                 1        -0.000000   0.003847   0.131903   x
            x  H                 2         0.000000   0.133384   0.452415   x
            x  H                 3         0.000000   0.267260   0.317651   x
            x  H                 4         0.500000   0.267260   0.182349   x
            x  H                 5         0.500000   0.133384   0.047585   x
            x  H                 6         0.500000   0.003847   0.368097   x
            x  H                 7         0.500000   0.232740   0.682349   x
            x  H                 8         0.500000   0.366616   0.547585   x
            x  H                 9         0.500000   0.496153   0.868097   x
            x  H                10         0.500000   0.732740   0.817651   x
            x  H                11         0.500000   0.866616   0.952415   x
            x  H                12         0.500000   0.996153   0.631903   x
            x  H                13         0.500000   0.767260   0.317651   x
            x  H                14         0.500000   0.633384   0.452415   x
            x  H                15         0.500000   0.503847   0.131903   x
            x  H                16         0.000000   0.767260   0.182349   x
            x  H                17         0.000000   0.633384   0.047585   x
            x  H                18        -0.000000   0.503847   0.368097   x
            x  H                19        -0.000000   0.732740   0.682349   x
            x  H                20        -0.000000   0.866616   0.547585   x
            x  H                21        -0.000000   0.996153   0.868097   x
            x  H                22        -0.000000   0.232740   0.817651   x
            x  H                23        -0.000000   0.366616   0.952415   x
            x  H                24         0.000000   0.496153   0.631903   x
            xxxxxxxxxxxxxxxxxxxxxxxxxxxxxxxxxxxxxxxxxxxxxxxxxxxxxxxxxxxxxxxxx


------------------------------------------------------------------------ <-- SCF
SCF loop      Energy                           Energy gain       Timer   <-- SCF
                                               per atom          (sec)   <-- SCF
------------------------------------------------------------------------ <-- SCF
Initial  -3.40809524E+002                                       1163.67  <-- SCF
      1  -3.41029494E+002                    9.16541282E-003    1214.32  <-- SCF
      2  -3.41030337E+002                    3.51283942E-005    1267.97  <-- SCF
      3  -3.41002990E+002                   -1.13945279E-003    1322.80  <-- SCF
      4  -3.41002278E+002                   -2.96769568E-005    1379.05  <-- SCF
      5  -3.41002276E+002                   -6.76202415E-008    1432.99  <-- SCF
      6  -3.41002276E+002                    6.93931890E-010    1486.42  <-- SCF
      7  -3.41002276E+002                    3.90765429E-011    1526.22  <-- SCF
      8  -3.41002276E+002                    1.77840364E-012    1564.41  <-- SCF
      9  -3.41002276E+002                    2.09460904E-013    1602.14  <-- SCF
------------------------------------------------------------------------ <-- SCF
 
Final energy =  -341.0022760785     eV
(energy not corrected for finite basis set)
 

 ************************************** Forces **************************************
 *                                                                                  *
 *                           Cartesian components (eV/A)                            *
 * -------------------------------------------------------------------------------- *
 *                         x                    y                    z              *
 *                                                                                  *
 * H               1      0.00000              0.01655              0.36823         *
 * H               2     -0.00000             -0.28717              0.17568         *
 * H               3     -0.00000              0.17002             -0.12949         *
 * H               4     -0.00000              0.17002              0.12949         *
 * H               5     -0.00000             -0.28717             -0.17568         *
 * H               6     -0.00000              0.01655             -0.36823         *
 * H               7      0.00000             -0.17002              0.12949         *
 * H               8      0.00000              0.28717             -0.17568         *
 * H               9      0.00000             -0.01655             -0.36823         *
 * H              10      0.00000             -0.17002             -0.12949         *
 * H              11      0.00000              0.28717              0.17568         *
 * H              12      0.00000             -0.01655              0.36823         *
 * H              13     -0.00000              0.17002             -0.12949         *
 * H              14     -0.00000             -0.28717              0.17568         *
 * H              15     -0.00000              0.01655              0.36823         *
 * H              16      0.00000              0.17002              0.12949         *
 * H              17     -0.00000             -0.28717             -0.17568         *
 * H              18      0.00000              0.01655             -0.36823         *
 * H              19      0.00000             -0.17002              0.12949         *
 * H              20      0.00000              0.28717             -0.17568         *
 * H              21     -0.00000             -0.01655             -0.36823         *
 * H              22      0.00000             -0.17002             -0.12949         *
 * H              23      0.00000              0.28717              0.17568         *
 * H              24     -0.00000             -0.01655              0.36823         *
 *                                                                                  *
 ************************************************************************************

 ***************** Stress Tensor *****************
 *                                               *
 *          Cartesian components (GPa)           *
 * --------------------------------------------- *
 *             x             y             z     *
 *                                               *
 *  x   -300.167489     -0.000000     -0.000000  *
 *  y     -0.000000   -307.417896      0.000000  *
 *  z     -0.000000      0.000000   -308.459607  *
 *                                               *
 *  Pressure:  305.3483                          *
 *                                               *
 *************************************************
  
 +------------+-------------+-------------+-----------------+ <-- min LBFGS
 |    Step    |   lambda    |   F.delta'  |    enthalpy     | <-- min LBFGS
 +------------+-------------+-------------+-----------------+ <-- min LBFGS
 |  previous  |    0.000000 |    0.066064 |     -275.807975 | <-- min LBFGS
 | trial step |    1.000000 |   -0.187032 |     -275.786674 | <-- min LBFGS
 +------------+-------------+-------------+-----------------+ <-- min LBFGS
  

--------------------------------------------------------------------------------
 LBFGS: improving iteration         1 with line minimization (lambda=  0.261022)
--------------------------------------------------------------------------------

                           -------------------------------
                                      Unit Cell
                           -------------------------------
        Real Lattice(A)              Reciprocal Lattice(1/A)
     2.5561754     0.0000000    -0.0000000        2.458041543  -0.000000000   0.000000000
     0.0000000     4.7486380    -0.0000000       -0.000000000   1.323155239   0.000000000
    -0.0000000    -0.0000000     2.8693067        0.000000000   0.000000000   2.189792175

                       Lattice parameters(A)       Cell Angles
                    a =      2.556175          alpha =   90.000000
                    b =      4.748638          beta  =   90.000000
                    c =      2.869307          gamma =   90.000000

                Current cell volume =            34.828654 A**3

                           -------------------------------
                                     Cell Contents
                           -------------------------------

            xxxxxxxxxxxxxxxxxxxxxxxxxxxxxxxxxxxxxxxxxxxxxxxxxxxxxxxxxxxxxxxxx
            x  Element         Atom        Fractional coordinates of atoms  x
            x                 Number           u          v          w      x
            x---------------------------------------------------------------x
            x  H                 1        -0.000000   0.003664   0.134783   x
            x  H                 2         0.000000   0.132140   0.452625   x
            x  H                 3         0.000000   0.268472   0.316653   x
            x  H                 4         0.500000   0.268472   0.183347   x
            x  H                 5         0.500000   0.132140   0.047375   x
            x  H                 6         0.500000   0.003664   0.365217   x
            x  H                 7         0.500000   0.231528   0.683347   x
            x  H                 8         0.500000   0.367860   0.547375   x
            x  H                 9         0.500000   0.496336   0.865217   x
            x  H                10         0.500000   0.731528   0.816653   x
            x  H                11         0.500000   0.867860   0.952625   x
            x  H                12         0.500000   0.996336   0.634783   x
            x  H                13         0.500000   0.768472   0.316653   x
            x  H                14         0.500000   0.632140   0.452625   x
            x  H                15         0.500000   0.503664   0.134783   x
            x  H                16         0.000000   0.768472   0.183347   x
            x  H                17         0.000000   0.632140   0.047375   x
            x  H                18        -0.000000   0.503664   0.365217   x
            x  H                19        -0.000000   0.731528   0.683347   x
            x  H                20        -0.000000   0.867860   0.547375   x
            x  H                21        -0.000000   0.996336   0.865217   x
            x  H                22        -0.000000   0.231528   0.816653   x
            x  H                23        -0.000000   0.367860   0.952625   x
            x  H                24         0.000000   0.496336   0.634783   x
            xxxxxxxxxxxxxxxxxxxxxxxxxxxxxxxxxxxxxxxxxxxxxxxxxxxxxxxxxxxxxxxxx


------------------------------------------------------------------------ <-- SCF
SCF loop      Energy                           Energy gain       Timer   <-- SCF
                                               per atom          (sec)   <-- SCF
------------------------------------------------------------------------ <-- SCF
Initial  -3.40920788E+002                                       1706.27  <-- SCF
      1  -3.41041317E+002                    5.02202998E-003    1759.41  <-- SCF
      2  -3.41041790E+002                    1.97203938E-005    1818.77  <-- SCF
      3  -3.41026830E+002                   -6.23340995E-004    1875.26  <-- SCF
      4  -3.41026447E+002                   -1.59346368E-005    1933.17  <-- SCF
      5  -3.41026447E+002                   -3.70872947E-008    1989.20  <-- SCF
      6  -3.41026447E+002                    3.19746098E-010    2044.16  <-- SCF
      7  -3.41026447E+002                    2.00740080E-011    2084.00  <-- SCF
      8  -3.41026447E+002                    8.41871710E-013    2123.82  <-- SCF
      9  -3.41026447E+002                   -1.20842829E-013    2162.74  <-- SCF
------------------------------------------------------------------------ <-- SCF
 
Final energy =  -341.0264465385     eV
(energy not corrected for finite basis set)
 

 ************************************** Forces **************************************
 *                                                                                  *
 *                           Cartesian components (eV/A)                            *
 * -------------------------------------------------------------------------------- *
 *                         x                    y                    z              *
 *                                                                                  *
 * H               1      0.00000              0.01236              0.00056         *
 * H               2     -0.00000             -0.01001              0.03688         *
 * H               3     -0.00000             -0.01916             -0.00153         *
 * H               4     -0.00000             -0.01916              0.00153         *
 * H               5     -0.00000             -0.01001             -0.03688         *
 * H               6     -0.00000              0.01236             -0.00056         *
 * H               7      0.00000              0.01916              0.00153         *
 * H               8      0.00000              0.01001             -0.03688         *
 * H               9      0.00000             -0.01236             -0.00056         *
 * H              10      0.00000              0.01916             -0.00153         *
 * H              11      0.00000              0.01001              0.03688         *
 * H              12      0.00000             -0.01236              0.00056         *
 * H              13     -0.00000             -0.01916             -0.00153         *
 * H              14     -0.00000             -0.01001              0.03688         *
 * H              15     -0.00000              0.01236              0.00056         *
 * H              16      0.00000             -0.01916              0.00153         *
 * H              17     -0.00000             -0.01001             -0.03688         *
 * H              18      0.00000              0.01236             -0.00056         *
 * H              19      0.00000              0.01916              0.00153         *
 * H              20      0.00000              0.01001             -0.03688         *
 * H              21     -0.00000             -0.01236             -0.00056         *
 * H              22      0.00000              0.01916             -0.00153         *
 * H              23      0.00000              0.01001              0.03688         *
 * H              24     -0.00000             -0.01236              0.00056         *
 *                                                                                  *
 ************************************************************************************

 ***************** Stress Tensor *****************
 *                                               *
 *          Cartesian components (GPa)           *
 * --------------------------------------------- *
 *             x             y             z     *
 *                                               *
 *  x   -302.007952     -0.000000     -0.000000  *
 *  y     -0.000000   -302.433970      0.000000  *
 *  z     -0.000000      0.000000   -299.576512  *
 *                                               *
 *  Pressure:  301.3395                          *
 *                                               *
 *************************************************
  
 +------------+-------------+-------------+-----------------+ <-- min LBFGS
 |    Step    |   lambda    |   F.delta'  |    enthalpy     | <-- min LBFGS
 +------------+-------------+-------------+-----------------+ <-- min LBFGS
 |  previous  |    0.000000 |    0.066064 |     -275.807975 | <-- min LBFGS
 | trial step |    1.000000 |   -0.187032 |     -275.786674 | <-- min LBFGS
 |  line step |    0.261022 |    0.004214 |     -275.811439 | <-- min LBFGS
 +------------+-------------+-------------+-----------------+ <-- min LBFGS
  
 LBFGS: finished iteration     1 with enthalpy= -2.75811439E+002 eV
  
 +-----------+-----------------+-----------------+------------+-----+ <-- LBFGS
 | Parameter |      value      |    tolerance    |    units   | OK? | <-- LBFGS
 +-----------+-----------------+-----------------+------------+-----+ <-- LBFGS
 |  dE/ion   |   1.443249E-004 |   1.000000E-009 |         eV | No  | <-- LBFGS
 |  |F|max   |   3.821684E-002 |   1.000000E-005 |       eV/A | No  | <-- LBFGS
 |  |dR|max  |   2.934565E-003 |   1.000000E-005 |          A | No  | <-- LBFGS
 |   Smax    |   2.433970E+000 |   1.000000E-005 |        GPa | No  | <-- LBFGS
 +-----------+-----------------+-----------------+------------+-----+ <-- LBFGS
  

================================================================================
 Starting LBFGS iteration          2 ...
================================================================================
  
 +------------+-------------+-------------+-----------------+ <-- min LBFGS
 |    Step    |   lambda    |   F.delta'  |    enthalpy     | <-- min LBFGS
 +------------+-------------+-------------+-----------------+ <-- min LBFGS
 |  previous  |    0.000000 |    0.025343 |     -275.811439 | <-- min LBFGS
 +------------+-------------+-------------+-----------------+ <-- min LBFGS
  

--------------------------------------------------------------------------------
 LBFGS: starting iteration         2 with trial guess (lambda=  1.000000)
--------------------------------------------------------------------------------
 
+---------------- MEMORY AND SCRATCH DISK ESTIMATES PER PROCESS --------------+
|                                                     Memory          Disk    |
| Model and support data                              182.2 MB         0.0 MB |
| Electronic energy minimisation requirements         178.5 MB         0.0 MB |
| Geometry minimisation requirements                  259.5 MB         0.0 MB |
|                                               ----------------------------- |
| Approx. total storage required per process          620.2 MB         0.0 MB |
|                                                                             |
| Requirements will fluctuate during execution and may exceed these estimates |
+-----------------------------------------------------------------------------+
 

                           -------------------------------
                                      Unit Cell
                           -------------------------------
        Real Lattice(A)              Reciprocal Lattice(1/A)
     2.5602027     0.0000000     0.0000000        2.454174977  -0.000000000  -0.000000000
     0.0000000     4.7570701    -0.0000000       -0.000000000   1.320809899   0.000000000
     0.0000000    -0.0000000     2.8678991       -0.000000000   0.000000000   2.190866919

                       Lattice parameters(A)       Cell Angles
                    a =      2.560203          alpha =   90.000000
                    b =      4.757070          beta  =   90.000000
                    c =      2.867899          gamma =   90.000000

                Current cell volume =            34.928326 A**3

                           -------------------------------
                                     Cell Contents
                           -------------------------------

            xxxxxxxxxxxxxxxxxxxxxxxxxxxxxxxxxxxxxxxxxxxxxxxxxxxxxxxxxxxxxxxxx
            x  Element         Atom        Fractional coordinates of atoms  x
            x                 Number           u          v          w      x
            x---------------------------------------------------------------x
            x  H                 1         0.000000   0.003955   0.134478   x
            x  H                 2        -0.000000   0.132062   0.453932   x
            x  H                 3        -0.000000   0.267917   0.316710   x
            x  H                 4         0.500000   0.267917   0.183290   x
            x  H                 5         0.500000   0.132062   0.046068   x
            x  H                 6         0.500000   0.003955   0.365522   x
            x  H                 7         0.500000   0.232083   0.683290   x
            x  H                 8         0.500000   0.367938   0.546068   x
            x  H                 9         0.500000   0.496045   0.865522   x
            x  H                10         0.500000   0.732083   0.816710   x
            x  H                11         0.500000   0.867938   0.953932   x
            x  H                12         0.500000   0.996045   0.634478   x
            x  H                13         0.500000   0.767917   0.316710   x
            x  H                14         0.500000   0.632062   0.453932   x
            x  H                15         0.500000   0.503955   0.134478   x
            x  H                16         0.000000   0.767917   0.183290   x
            x  H                17        -0.000000   0.632062   0.046068   x
            x  H                18         0.000000   0.503955   0.365522   x
            x  H                19        -0.000000   0.732083   0.683290   x
            x  H                20         0.000000   0.867938   0.546068   x
            x  H                21        -0.000000   0.996045   0.865522   x
            x  H                22         0.000000   0.232083   0.816710   x
            x  H                23         0.000000   0.367938   0.953932   x
            x  H                24        -0.000000   0.496045   0.634478   x
            xxxxxxxxxxxxxxxxxxxxxxxxxxxxxxxxxxxxxxxxxxxxxxxxxxxxxxxxxxxxxxxxx


------------------------------------------------------------------------ <-- SCF
SCF loop      Energy                           Energy gain       Timer   <-- SCF
                                               per atom          (sec)   <-- SCF
------------------------------------------------------------------------ <-- SCF
Initial  -3.41206062E+002                                       2266.07  <-- SCF
      1  -3.41214873E+002                    3.67135556E-004    2319.06  <-- SCF
      2  -3.41214905E+002                    1.33555205E-006    2376.38  <-- SCF
      3  -3.41214859E+002                   -1.93743038E-006    2432.30  <-- SCF
      4  -3.41214863E+002                    1.66407395E-007    2488.93  <-- SCF
      5  -3.41214863E+002                    2.72699366E-009    2546.60  <-- SCF
      6  -3.41214863E+002                    1.13151183E-010    2586.76  <-- SCF
      7  -3.41214863E+002                    2.68271081E-012    2626.43  <-- SCF
      8  -3.41214863E+002                   -1.40983301E-014    2665.63  <-- SCF
------------------------------------------------------------------------ <-- SCF
 
Final energy =  -341.2148625856     eV
(energy not corrected for finite basis set)
 

 ************************************** Forces **************************************
 *                                                                                  *
 *                           Cartesian components (eV/A)                            *
 * -------------------------------------------------------------------------------- *
 *                         x                    y                    z              *
 *                                                                                  *
 * H               1     -0.00000              0.00610              0.03348         *
 * H               2      0.00000              0.01161              0.01037         *
 * H               3      0.00000             -0.03185              0.00725         *
 * H               4      0.00000             -0.03185             -0.00725         *
 * H               5      0.00000              0.01161             -0.01037         *
 * H               6      0.00000              0.00610             -0.03348         *
 * H               7      0.00000              0.03185             -0.00725         *
 * H               8     -0.00000             -0.01161             -0.01037         *
 * H               9     -0.00000             -0.00610             -0.03348         *
 * H              10      0.00000              0.03185              0.00725         *
 * H              11     -0.00000             -0.01161              0.01037         *
 * H              12     -0.00000             -0.00610              0.03348         *
 * H              13      0.00000             -0.03185              0.00725         *
 * H              14      0.00000              0.01161              0.01037         *
 * H              15      0.00000              0.00610              0.03348         *
 * H              16     -0.00000             -0.03185             -0.00725         *
 * H              17      0.00000              0.01161             -0.01037         *
 * H              18     -0.00000              0.00610             -0.03348         *
 * H              19      0.00000              0.03185             -0.00725         *
 * H              20     -0.00000             -0.01161             -0.01037         *
 * H              21      0.00000             -0.00610             -0.03348         *
 * H              22     -0.00000              0.03185              0.00725         *
 * H              23      0.00000             -0.01161              0.01037         *
 * H              24      0.00000             -0.00610              0.03348         *
 *                                                                                  *
 ************************************************************************************

 ***************** Stress Tensor *****************
 *                                               *
 *          Cartesian components (GPa)           *
 * --------------------------------------------- *
 *             x             y             z     *
 *                                               *
 *  x   -299.497631      0.000000      0.000000  *
 *  y      0.000000   -298.835770     -0.000000  *
 *  z      0.000000     -0.000000   -299.404117  *
 *                                               *
 *  Pressure:  299.2458                          *
 *                                               *
 *************************************************
  
 +------------+-------------+-------------+-----------------+ <-- min LBFGS
 |    Step    |   lambda    |   F.delta'  |    enthalpy     | <-- min LBFGS
 +------------+-------------+-------------+-----------------+ <-- min LBFGS
 |  previous  |    0.000000 |    0.025343 |     -275.811439 | <-- min LBFGS
 | trial step |    1.000000 |    0.001769 |     -275.813224 | <-- min LBFGS
 +------------+-------------+-------------+-----------------+ <-- min LBFGS
  
 LBFGS: finished iteration     2 with enthalpy= -2.75813224E+002 eV
  
 +-----------+-----------------+-----------------+------------+-----+ <-- LBFGS
 | Parameter |      value      |    tolerance    |    units   | OK? | <-- LBFGS
 +-----------+-----------------+-----------------+------------+-----+ <-- LBFGS
 |  dE/ion   |   7.437477E-005 |   1.000000E-009 |         eV | No  | <-- LBFGS
 |  |F|max   |   3.403485E-002 |   1.000000E-005 |       eV/A | No  | <-- LBFGS
 |  |dR|max  |   3.765061E-003 |   1.000000E-005 |          A | No  | <-- LBFGS
 |   Smax    |   1.164230E+000 |   1.000000E-005 |        GPa | No  | <-- LBFGS
 +-----------+-----------------+-----------------+------------+-----+ <-- LBFGS
  

================================================================================
 Starting LBFGS iteration          3 ...
================================================================================
  
 +------------+-------------+-------------+-----------------+ <-- min LBFGS
 |    Step    |   lambda    |   F.delta'  |    enthalpy     | <-- min LBFGS
 +------------+-------------+-------------+-----------------+ <-- min LBFGS
 |  previous  |    0.000000 |    0.015576 |     -275.813224 | <-- min LBFGS
 +------------+-------------+-------------+-----------------+ <-- min LBFGS
  

--------------------------------------------------------------------------------
 LBFGS: starting iteration         3 with trial guess (lambda=  1.000000)
--------------------------------------------------------------------------------
 
+---------------- MEMORY AND SCRATCH DISK ESTIMATES PER PROCESS --------------+
|                                                     Memory          Disk    |
| Model and support data                              182.2 MB         0.0 MB |
| Electronic energy minimisation requirements         178.6 MB         0.0 MB |
| Geometry minimisation requirements                  259.6 MB         0.0 MB |
|                                               ----------------------------- |
| Approx. total storage required per process          620.5 MB         0.0 MB |
|                                                                             |
| Requirements will fluctuate during execution and may exceed these estimates |
+-----------------------------------------------------------------------------+
 

                           -------------------------------
                                      Unit Cell
                           -------------------------------
        Real Lattice(A)              Reciprocal Lattice(1/A)
     2.5623684    -0.0000000     0.0000000        2.452100681   0.000000000  -0.000000000
    -0.0000000     4.7594756    -0.0000000        0.000000000   1.320142343   0.000000000
     0.0000000    -0.0000000     2.8655253       -0.000000000   0.000000000   2.192681851

                       Lattice parameters(A)       Cell Angles
                    a =      2.562368          alpha =   90.000000
                    b =      4.759476          beta  =   90.000000
                    c =      2.865525          gamma =   90.000000

                Current cell volume =            34.946600 A**3

                           -------------------------------
                                     Cell Contents
                           -------------------------------

            xxxxxxxxxxxxxxxxxxxxxxxxxxxxxxxxxxxxxxxxxxxxxxxxxxxxxxxxxxxxxxxxx
            x  Element         Atom        Fractional coordinates of atoms  x
            x                 Number           u          v          w      x
            x---------------------------------------------------------------x
            x  H                 1        -0.000000   0.004310   0.135413   x
            x  H                 2         0.000000   0.132281   0.455287   x
            x  H                 3         0.000000   0.266777   0.317034   x
            x  H                 4         0.500000   0.266777   0.182966   x
            x  H                 5         0.500000   0.132281   0.044713   x
            x  H                 6         0.500000   0.004310   0.364587   x
            x  H                 7         0.500000   0.233223   0.682966   x
            x  H                 8         0.500000   0.367719   0.544713   x
            x  H                 9         0.500000   0.495690   0.864588   x
            x  H                10         0.500000   0.733223   0.817034   x
            x  H                11         0.500000   0.867719   0.955287   x
            x  H                12         0.500000   0.995690   0.635413   x
            x  H                13         0.500000   0.766777   0.317034   x
            x  H                14         0.500000   0.632281   0.455287   x
            x  H                15         0.500000   0.504310   0.135412   x
            x  H                16        -0.000000   0.766777   0.182966   x
            x  H                17         0.000000   0.632281   0.044713   x
            x  H                18        -0.000000   0.504310   0.364587   x
            x  H                19         0.000000   0.733223   0.682966   x
            x  H                20        -0.000000   0.867719   0.544713   x
            x  H                21         0.000000   0.995690   0.864587   x
            x  H                22        -0.000000   0.233223   0.817034   x
            x  H                23         0.000000   0.367719   0.955287   x
            x  H                24         0.000000   0.495690   0.635413   x
            xxxxxxxxxxxxxxxxxxxxxxxxxxxxxxxxxxxxxxxxxxxxxxxxxxxxxxxxxxxxxxxxx


------------------------------------------------------------------------ <-- SCF
SCF loop      Energy                           Energy gain       Timer   <-- SCF
                                               per atom          (sec)   <-- SCF
------------------------------------------------------------------------ <-- SCF
Initial  -3.41227544E+002                                       2770.58  <-- SCF
      1  -3.41248641E+002                    8.79062534E-004    2824.22  <-- SCF
      2  -3.41248705E+002                    2.66970200E-006    2882.95  <-- SCF
      3  -3.41247061E+002                   -6.85028555E-005    2939.35  <-- SCF
      4  -3.41247065E+002                    1.74344030E-007    2996.34  <-- SCF
      5  -3.41247066E+002                    2.59779636E-008    3051.32  <-- SCF
      6  -3.41247066E+002                    3.61988723E-010    3107.91  <-- SCF
      7  -3.41247066E+002                    6.28181307E-012    3146.63  <-- SCF
      8  -3.41247066E+002                    5.69975344E-013    3185.36  <-- SCF
------------------------------------------------------------------------ <-- SCF
 
Final energy =  -341.2470660576     eV
(energy not corrected for finite basis set)
 

 ************************************** Forces **************************************
 *                                                                                  *
 *                           Cartesian components (eV/A)                            *
 * -------------------------------------------------------------------------------- *
 *                         x                    y                    z              *
 *                                                                                  *
 * H               1      0.00000             -0.02724             -0.13011         *
 * H               2     -0.00000             -0.08275              0.05101         *
 * H               3     -0.00000              0.09035             -0.03442         *
 * H               4      0.00000              0.09035              0.03442         *
 * H               5     -0.00000             -0.08275             -0.05101         *
 * H               6     -0.00000             -0.02724              0.13011         *
 * H               7     -0.00000             -0.09035              0.03442         *
 * H               8      0.00000              0.08275             -0.05101         *
 * H               9      0.00000              0.02724              0.13011         *
 * H              10     -0.00000             -0.09035             -0.03442         *
 * H              11      0.00000              0.08275              0.05101         *
 * H              12      0.00000              0.02724             -0.13011         *
 * H              13     -0.00000              0.09035             -0.03442         *
 * H              14      0.00000             -0.08275              0.05101         *
 * H              15     -0.00000             -0.02724             -0.13011         *
 * H              16      0.00000              0.09035              0.03442         *
 * H              17     -0.00000             -0.08275             -0.05101         *
 * H              18      0.00000             -0.02724              0.13011         *
 * H              19     -0.00000             -0.09035              0.03442         *
 * H              20      0.00000              0.08275             -0.05101         *
 * H              21     -0.00000              0.02724              0.13011         *
 * H              22      0.00000             -0.09035             -0.03442         *
 * H              23     -0.00000              0.08275              0.05101         *
 * H              24     -0.00000              0.02724             -0.13011         *
 *                                                                                  *
 ************************************************************************************

 ***************** Stress Tensor *****************
 *                                               *
 *          Cartesian components (GPa)           *
 * --------------------------------------------- *
 *             x             y             z     *
 *                                               *
 *  x   -298.110887     -0.000000      0.000000  *
 *  y     -0.000000   -300.415631     -0.000000  *
 *  z      0.000000     -0.000000   -298.921823  *
 *                                               *
 *  Pressure:  299.1494                          *
 *                                               *
 *************************************************
  
 +------------+-------------+-------------+-----------------+ <-- min LBFGS
 |    Step    |   lambda    |   F.delta'  |    enthalpy     | <-- min LBFGS
 +------------+-------------+-------------+-----------------+ <-- min LBFGS
 |  previous  |    0.000000 |    0.015576 |     -275.813224 | <-- min LBFGS
 | trial step |    1.000000 |   -0.040125 |     -275.811210 | <-- min LBFGS
 +------------+-------------+-------------+-----------------+ <-- min LBFGS
  

--------------------------------------------------------------------------------
 LBFGS: improving iteration         3 with line minimization (lambda=  0.279634)
--------------------------------------------------------------------------------

                           -------------------------------
                                      Unit Cell
                           -------------------------------
        Real Lattice(A)              Reciprocal Lattice(1/A)
     2.5608083    -0.0000000     0.0000000        2.453594580   0.000000000  -0.000000000
    -0.0000000     4.7577428    -0.0000000        0.000000000   1.320623159   0.000000000
     0.0000000    -0.0000000     2.8672353       -0.000000000   0.000000000   2.191374134

                       Lattice parameters(A)       Cell Angles
                    a =      2.560808          alpha =   90.000000
                    b =      4.757743          beta  =   90.000000
                    c =      2.867235          gamma =   90.000000

                Current cell volume =            34.933441 A**3

                           -------------------------------
                                     Cell Contents
                           -------------------------------

            xxxxxxxxxxxxxxxxxxxxxxxxxxxxxxxxxxxxxxxxxxxxxxxxxxxxxxxxxxxxxxxxx
            x  Element         Atom        Fractional coordinates of atoms  x
            x                 Number           u          v          w      x
            x---------------------------------------------------------------x
            x  H                 1        -0.000000   0.004054   0.134739   x
            x  H                 2         0.000000   0.132123   0.454311   x
            x  H                 3        -0.000000   0.267598   0.316801   x
            x  H                 4         0.500000   0.267598   0.183199   x
            x  H                 5         0.500000   0.132123   0.045689   x
            x  H                 6         0.500000   0.004054   0.365261   x
            x  H                 7         0.500000   0.232402   0.683199   x
            x  H                 8         0.500000   0.367877   0.545689   x
            x  H                 9         0.500000   0.495946   0.865261   x
            x  H                10         0.500000   0.732402   0.816801   x
            x  H                11         0.500000   0.867877   0.954311   x
            x  H                12         0.500000   0.995946   0.634739   x
            x  H                13         0.500000   0.767598   0.316801   x
            x  H                14         0.500000   0.632123   0.454311   x
            x  H                15         0.500000   0.504054   0.134739   x
            x  H                16        -0.000000   0.767598   0.183199   x
            x  H                17         0.000000   0.632123   0.045689   x
            x  H                18        -0.000000   0.504054   0.365261   x
            x  H                19         0.000000   0.732402   0.683199   x
            x  H                20        -0.000000   0.867877   0.545689   x
            x  H                21         0.000000   0.995946   0.865261   x
            x  H                22        -0.000000   0.232402   0.816801   x
            x  H                23         0.000000   0.367877   0.954311   x
            x  H                24         0.000000   0.495946   0.634739   x
            xxxxxxxxxxxxxxxxxxxxxxxxxxxxxxxxxxxxxxxxxxxxxxxxxxxxxxxxxxxxxxxxx


------------------------------------------------------------------------ <-- SCF
SCF loop      Energy                           Energy gain       Timer   <-- SCF
                                               per atom          (sec)   <-- SCF
------------------------------------------------------------------------ <-- SCF
Initial  -3.41214671E+002                                       3288.48  <-- SCF
      1  -3.41225609E+002                    4.55714567E-004    3339.12  <-- SCF
      2  -3.41225642E+002                    1.39486483E-006    3394.46  <-- SCF
      3  -3.41224791E+002                   -3.54701162E-005    3449.57  <-- SCF
      4  -3.41224793E+002                    9.53332141E-008    3503.78  <-- SCF
      5  -3.41224793E+002                    1.35147035E-008    3559.95  <-- SCF
      6  -3.41224793E+002                    1.86087887E-010    3606.97  <-- SCF
      7  -3.41224793E+002                    3.46214706E-012    3644.48  <-- SCF
      8  -3.41224793E+002                    4.12879666E-013    3683.88  <-- SCF
------------------------------------------------------------------------ <-- SCF
 
Final energy =  -341.2247934032     eV
(energy not corrected for finite basis set)
 

 ************************************** Forces **************************************
 *                                                                                  *
 *                           Cartesian components (eV/A)                            *
 * -------------------------------------------------------------------------------- *
 *                         x                    y                    z              *
 *                                                                                  *
 * H               1      0.00000             -0.00316             -0.01272         *
 * H               2     -0.00000             -0.01467              0.02139         *
 * H               3     -0.00000              0.00231             -0.00410         *
 * H               4      0.00000              0.00231              0.00410         *
 * H               5      0.00000             -0.01467             -0.02139         *
 * H               6     -0.00000             -0.00316              0.01272         *
 * H               7     -0.00000             -0.00231              0.00410         *
 * H               8      0.00000              0.01467             -0.02139         *
 * H               9      0.00000              0.00316              0.01272         *
 * H              10     -0.00000             -0.00231             -0.00410         *
 * H              11     -0.00000              0.01467              0.02139         *
 * H              12      0.00000              0.00316             -0.01272         *
 * H              13     -0.00000              0.00231             -0.00410         *
 * H              14      0.00000             -0.01467              0.02139         *
 * H              15     -0.00000             -0.00316             -0.01272         *
 * H              16      0.00000              0.00231              0.00410         *
 * H              17     -0.00000             -0.01467             -0.02139         *
 * H              18      0.00000             -0.00316              0.01272         *
 * H              19     -0.00000             -0.00231              0.00410         *
 * H              20      0.00000              0.01467             -0.02139         *
 * H              21     -0.00000              0.00316              0.01272         *
 * H              22      0.00000             -0.00231             -0.00410         *
 * H              23     -0.00000              0.01467              0.02139         *
 * H              24     -0.00000              0.00316             -0.01272         *
 *                                                                                  *
 ************************************************************************************

 ***************** Stress Tensor *****************
 *                                               *
 *          Cartesian components (GPa)           *
 * --------------------------------------------- *
 *             x             y             z     *
 *                                               *
 *  x   -299.109687     -0.000000      0.000000  *
 *  y     -0.000000   -299.275715     -0.000000  *
 *  z      0.000000     -0.000000   -299.261039  *
 *                                               *
 *  Pressure:  299.2155                          *
 *                                               *
 *************************************************
  
 +------------+-------------+-------------+-----------------+ <-- min LBFGS
 |    Step    |   lambda    |   F.delta'  |    enthalpy     | <-- min LBFGS
 +------------+-------------+-------------+-----------------+ <-- min LBFGS
 |  previous  |    0.000000 |    0.015576 |     -275.813224 | <-- min LBFGS
 | trial step |    1.000000 |   -0.040125 |     -275.811210 | <-- min LBFGS
 |  line step |    0.279634 |   -0.000088 |     -275.813577 | <-- min LBFGS
 +------------+-------------+-------------+-----------------+ <-- min LBFGS
  
 LBFGS: finished iteration     3 with enthalpy= -2.75813577E+002 eV
  
 +-----------+-----------------+-----------------+------------+-----+ <-- LBFGS
 | Parameter |      value      |    tolerance    |    units   | OK? | <-- LBFGS
 +-----------+-----------------+-----------------+------------+-----+ <-- LBFGS
 |  dE/ion   |   1.471730E-005 |   1.000000E-009 |         eV | No  | <-- LBFGS
 |  |F|max   |   2.593795E-002 |   1.000000E-005 |       eV/A | No  | <-- LBFGS
 |  |dR|max  |   1.538175E-003 |   1.000000E-005 |          A | No  | <-- LBFGS
 |   Smax    |   8.903126E-001 |   1.000000E-005 |        GPa | No  | <-- LBFGS
 +-----------+-----------------+-----------------+------------+-----+ <-- LBFGS
  

================================================================================
 Starting LBFGS iteration          4 ...
================================================================================
  
 +------------+-------------+-------------+-----------------+ <-- min LBFGS
 |    Step    |   lambda    |   F.delta'  |    enthalpy     | <-- min LBFGS
 +------------+-------------+-------------+-----------------+ <-- min LBFGS
 |  previous  |    0.000000 |    0.008919 |     -275.813577 | <-- min LBFGS
 +------------+-------------+-------------+-----------------+ <-- min LBFGS
  

--------------------------------------------------------------------------------
 LBFGS: starting iteration         4 with trial guess (lambda=  1.000000)
--------------------------------------------------------------------------------

                           -------------------------------
                                      Unit Cell
                           -------------------------------
        Real Lattice(A)              Reciprocal Lattice(1/A)
     2.5600405     0.0000000     0.0000000        2.454330387  -0.000000000  -0.000000000
     0.0000000     4.7559991    -0.0000000       -0.000000000   1.321107335   0.000000000
     0.0000000    -0.0000000     2.8648007       -0.000000000   0.000000000   2.193236476

                       Lattice parameters(A)       Cell Angles
                    a =      2.560041          alpha =   90.000000
                    b =      4.755999          beta  =   90.000000
                    c =      2.864801          gamma =   90.000000

                Current cell volume =            34.880525 A**3

                           -------------------------------
                                     Cell Contents
                           -------------------------------

            xxxxxxxxxxxxxxxxxxxxxxxxxxxxxxxxxxxxxxxxxxxxxxxxxxxxxxxxxxxxxxxxx
            x  Element         Atom        Fractional coordinates of atoms  x
            x                 Number           u          v          w      x
            x---------------------------------------------------------------x
            x  H                 1         0.000000   0.004125   0.134651   x
            x  H                 2        -0.000000   0.131951   0.455510   x
            x  H                 3        -0.000000   0.267174   0.316819   x
            x  H                 4         0.500000   0.267174   0.183181   x
            x  H                 5         0.500000   0.131951   0.044490   x
            x  H                 6         0.500000   0.004125   0.365349   x
            x  H                 7         0.500000   0.232826   0.683181   x
            x  H                 8         0.500000   0.368049   0.544490   x
            x  H                 9         0.500000   0.495875   0.865349   x
            x  H                10         0.500000   0.732826   0.816819   x
            x  H                11         0.500000   0.868049   0.955510   x
            x  H                12         0.500000   0.995875   0.634651   x
            x  H                13         0.500000   0.767174   0.316819   x
            x  H                14         0.500000   0.631951   0.455510   x
            x  H                15         0.500000   0.504125   0.134651   x
            x  H                16         0.000000   0.767174   0.183181   x
            x  H                17        -0.000000   0.631951   0.044490   x
            x  H                18         0.000000   0.504125   0.365349   x
            x  H                19        -0.000000   0.732826   0.683181   x
[...]
      H     1      S                    0.999
      H     2      S                    1.026
      H     3      S                    0.975
      H     4      S                    0.975
      H     5      S                    1.026
      H     6      S                    0.999
      H     7      S                    0.975
      H     8      S                    1.026
      H     9      S                    0.999
      H    10      S                    0.975
      H    11      S                    1.026
      H    12      S                    0.999
      H    13      S                    0.975
      H    14      S                    1.026
      H    15      S                    0.999
      H    16      S                    0.975
      H    17      S                    1.026
      H    18      S                    0.999
      H    19      S                    0.975
      H    20      S                    1.026
      H    21      S                    0.999
      H    22      S                    0.975
      H    23      S                    1.026
      H    24      S                    0.999
  -------------------------------------------
                           Total:      24.000
  -------------------------------------------

     Atomic Populations (Mulliken)
     -----------------------------
Species          Ion     s      p      d      f     Total  Charge (e)
=====================================================================
  H               1     1.00   0.00   0.00   0.00   1.00     0.00
  H               2     1.03   0.00   0.00   0.00   1.03    -0.03
  H               3     0.97   0.00   0.00   0.00   0.97     0.03
  H               4     0.97   0.00   0.00   0.00   0.97     0.03
  H               5     1.03   0.00   0.00   0.00   1.03    -0.03
  H               6     1.00   0.00   0.00   0.00   1.00     0.00
  H               7     0.97   0.00   0.00   0.00   0.97     0.03
  H               8     1.03   0.00   0.00   0.00   1.03    -0.03
  H               9     1.00   0.00   0.00   0.00   1.00     0.00
  H              10     0.97   0.00   0.00   0.00   0.97     0.03
  H              11     1.03   0.00   0.00   0.00   1.03    -0.03
  H              12     1.00   0.00   0.00   0.00   1.00     0.00
  H              13     0.97   0.00   0.00   0.00   0.97     0.03
  H              14     1.03   0.00   0.00   0.00   1.03    -0.03
  H              15     1.00   0.00   0.00   0.00   1.00     0.00
  H              16     0.97   0.00   0.00   0.00   0.97     0.03
  H              17     1.03   0.00   0.00   0.00   1.03    -0.03
  H              18     1.00   0.00   0.00   0.00   1.00     0.00
  H              19     0.97   0.00   0.00   0.00   0.97     0.03
  H              20     1.03   0.00   0.00   0.00   1.03    -0.03
  H              21     1.00   0.00   0.00   0.00   1.00     0.00
  H              22     0.97   0.00   0.00   0.00   0.97     0.03
  H              23     1.03   0.00   0.00   0.00   1.03    -0.03
  H              24     1.00   0.00   0.00   0.00   1.00     0.00
=====================================================================

                 Bond                   Population      Length (A)
======================================================================
              H 7  -- H 8                    1.70        0.75575
              H 10 -- H 11                   1.70        0.75575
              H 13 -- H 14                   1.70        0.75575
              H 4  -- H 5                    1.70        0.75575
              H 2  -- H 3                    1.70        0.75575
              H 19 -- H 20                   1.70        0.75575
              H 22 -- H 23                   1.70        0.75575
              H 16 -- H 17                   1.70        0.75575
              H 1  -- H 21                   1.47        0.77242
              H 9  -- H 15                   1.47        0.77242
              H 18 -- H 24                   1.47        0.77242
              H 6  -- H 12                   1.47        0.77242
              H 5  -- H 6                    0.18        1.10323
              H 11 -- H 12                   0.18        1.10323
              H 23 -- H 24                   0.18        1.10323
              H 17 -- H 18                   0.18        1.10323
              H 1  -- H 2                    0.18        1.10323
              H 20 -- H 21                   0.18        1.10323
              H 14 -- H 15                   0.18        1.10323
              H 8  -- H 9                    0.18        1.10323
              H 1  -- H 16                   0.25        1.13562
              H 21 -- H 22                   0.25        1.13562
              H 6  -- H 13                   0.25        1.13562
              H 7  -- H 12                   0.25        1.13562
              H 9  -- H 10                   0.25        1.13562
              H 19 -- H 24                   0.25        1.13562
              H 3  -- H 18                   0.25        1.13562
              H 4  -- H 15                   0.25        1.13562
              H 4  -- H 8                   -0.07        1.14159
              H 16 -- H 20                  -0.07        1.14159
              H 10 -- H 14                  -0.07        1.14159
              H 17 -- H 19                  -0.07        1.14159
              H 2  -- H 22                  -0.07        1.14159
              H 3  -- H 23                  -0.07        1.14159
              H 11 -- H 13                  -0.07        1.14159
              H 5  -- H 7                   -0.07        1.14159
              H 2  -- H 20                  -0.04        1.28017
              H 5  -- H 11                  -0.04        1.28017
              H 17 -- H 23                  -0.04        1.28017
              H 8  -- H 14                  -0.04        1.28017
              H 3  -- H 4                    0.03        1.33570
              H 10 -- H 19                   0.03        1.33570
              H 13 -- H 16                   0.03        1.33570
              H 7  -- H 22                   0.03        1.33570
              H 6  -- H 11                  -0.28        1.34087
              H 1  -- H 20                  -0.28        1.34087
              H 5  -- H 12                  -0.28        1.34087
              H 17 -- H 24                  -0.28        1.34087
              H 2  -- H 21                  -0.28        1.34087
              H 18 -- H 23                  -0.28        1.34087
              H 9  -- H 14                  -0.28        1.34087
              H 8  -- H 15                  -0.28        1.34087
              H 10 -- H 12                  -0.09        1.35559
              H 4  -- H 6                   -0.09        1.35559
              H 19 -- H 21                  -0.09        1.35559
              H 1  -- H 3                   -0.09        1.35559
              H 13 -- H 15                  -0.09        1.35559
              H 7  -- H 9                   -0.09        1.35559
              H 22 -- H 24                  -0.09        1.35559
              H 16 -- H 18                  -0.09        1.35559
              H 16 -- H 21                  -0.24        1.42033
              H 1  -- H 22                  -0.24        1.42033
              H 10 -- H 15                  -0.24        1.42033
              H 4  -- H 9                   -0.24        1.42033
              H 18 -- H 19                  -0.24        1.42033
              H 12 -- H 13                  -0.24        1.42033
              H 3  -- H 24                  -0.24        1.42033
              H 6  -- H 7                   -0.24        1.42033
              H 11 -- H 21                  -0.14        1.44045
              H 1  -- H 5                   -0.14        1.44045
              H 15 -- H 17                  -0.14        1.44045
              H 9  -- H 23                  -0.14        1.44045
              H 12 -- H 20                  -0.14        1.44045
              H 2  -- H 6                   -0.14        1.44045
              H 14 -- H 18                  -0.14        1.44045
              H 8  -- H 24                  -0.14        1.44045
              H 1  -- H 6                   -0.21        1.44078
              H 12 -- H 21                  -0.21        1.44078
              H 9  -- H 24                  -0.21        1.44078
              H 15 -- H 18                  -0.21        1.44078
              H 3  -- H 22                  -0.32        1.44242
              H 4  -- H 7                   -0.32        1.44242
              H 16 -- H 19                  -0.32        1.44242
              H 10 -- H 13                  -0.32        1.44242
              H 3  -- H 8                   -0.21        1.51503
              H 14 -- H 19                  -0.21        1.51503
              H 13 -- H 20                  -0.21        1.51503
              H 2  -- H 7                   -0.21        1.51503
              H 11 -- H 16                  -0.21        1.51503
              H 10 -- H 17                  -0.21        1.51503
              H 5  -- H 22                  -0.21        1.51503
              H 4  -- H 23                  -0.21        1.51503
              H 1  -- H 11                  -0.16        1.52264
              H 5  -- H 21                  -0.16        1.52264
              H 6  -- H 20                  -0.16        1.52264
              H 2  -- H 12                  -0.16        1.52264
              H 9  -- H 17                  -0.16        1.52264
              H 15 -- H 23                  -0.16        1.52264
              H 14 -- H 24                  -0.16        1.52264
              H 8  -- H 18                  -0.16        1.52264
              H 3  -- H 5                   -0.39        1.63087
              H 11 -- H 19                  -0.39        1.63087
              H 2  -- H 4                   -0.39        1.63087
              H 7  -- H 23                  -0.39        1.63087
              H 8  -- H 22                  -0.39        1.63087
              H 10 -- H 20                  -0.39        1.63087
              H 14 -- H 16                  -0.39        1.63087
              H 13 -- H 17                  -0.39        1.63087
              H 4  -- H 22                  -0.41        1.66378
              H 10 -- H 16                  -0.41        1.66378
              H 3  -- H 7                   -0.41        1.66378
              H 13 -- H 19                  -0.41        1.66378
              H 2  -- H 8                   -0.26        1.72185
              H 14 -- H 20                  -0.26        1.72185
              H 11 -- H 17                  -0.26        1.72185
              H 5  -- H 23                  -0.26        1.72185
              H 2  -- H 5                   -0.70        1.73978
              H 11 -- H 20                  -0.70        1.73978
              H 8  -- H 23                  -0.70        1.73978
              H 14 -- H 17                  -0.70        1.73978
              H 6  -- H 16                  -0.16        1.78342
              H 12 -- H 22                  -0.16        1.78342
              H 1  -- H 13                  -0.16        1.78342
              H 7  -- H 21                  -0.16        1.78342
              H 9  -- H 19                  -0.16        1.78342
              H 10 -- H 24                  -0.16        1.78342
              H 4  -- H 18                  -0.16        1.78342
              H 3  -- H 15                  -0.16        1.78342
              H 6  -- H 14                  -0.18        1.78819
              H 8  -- H 12                  -0.18        1.78819
              H 1  -- H 17                  -0.18        1.78819
              H 21 -- H 23                  -0.18        1.78819
              H 9  -- H 11                  -0.18        1.78819
              H 5  -- H 15                  -0.18        1.78819
              H 20 -- H 24                  -0.18        1.78819
              H 2  -- H 18                  -0.18        1.78819
              H 12 -- H 19                  -0.32        1.79507
              H 3  -- H 6                   -0.32        1.79507
              H 10 -- H 21                  -0.32        1.79507
              H 1  -- H 4                   -0.32        1.79507
              H 7  -- H 24                  -0.32        1.79507
              H 13 -- H 18                  -0.32        1.79507
              H 9  -- H 22                  -0.32        1.79507
              H 15 -- H 16                  -0.32        1.79507
              H 6  -- H 8                   -0.31        1.80638
              H 12 -- H 14                  -0.31        1.80638
              H 17 -- H 21                  -0.31        1.80638
              H 1  -- H 23                  -0.31        1.80638
              H 11 -- H 15                  -0.31        1.80638
              H 18 -- H 20                  -0.31        1.80638
              H 2  -- H 24                  -0.31        1.80638
              H 5  -- H 9                   -0.31        1.80638
              H 5  -- H 8                   -0.42        1.82114
              H 11 -- H 14                  -0.42        1.82114
              H 2  -- H 23                  -0.42        1.82114
              H 17 -- H 20                  -0.42        1.82114
              H 1  -- H 19                  -0.43        1.82584
              H 3  -- H 21                  -0.43        1.82584
              H 4  -- H 12                  -0.43        1.82584
              H 6  -- H 10                  -0.43        1.82584
              H 9  -- H 13                  -0.43        1.82584
              H 7  -- H 15                  -0.43        1.82584
              H 18 -- H 22                  -0.43        1.82584
              H 16 -- H 24                  -0.43        1.82584
              H 2  -- H 16                  -0.11        1.90299
              H 5  -- H 13                  -0.11        1.90299
              H 20 -- H 22                  -0.11        1.90299
              H 7  -- H 11                  -0.11        1.90299
              H 19 -- H 23                  -0.11        1.90299
              H 3  -- H 17                  -0.11        1.90299
              H 4  -- H 14                  -0.11        1.90299
              H 8  -- H 10                  -0.11        1.90299
              H 6  -- H 21                  -0.53        1.92190
              H 1  -- H 12                  -0.53        1.92190
              H 15 -- H 24                  -0.53        1.92190
              H 9  -- H 18                  -0.53        1.92190
              H 3  -- H 20                  -0.14        2.00618
              H 2  -- H 19                  -0.14        2.00618
              H 5  -- H 10                  -0.14        2.00618
              H 4  -- H 11                  -0.14        2.00618
              H 17 -- H 22                  -0.14        2.00618
              H 7  -- H 14                  -0.14        2.00618
              H 16 -- H 23                  -0.14        2.00618
              H 8  -- H 13                  -0.14        2.00618
              H 1  -- H 10                  -0.24        2.03178
              H 4  -- H 21                  -0.24        2.03178
              H 3  -- H 12                  -0.24        2.03178
              H 6  -- H 19                  -0.24        2.03178
              H 7  -- H 18                  -0.24        2.03178
              H 13 -- H 24                  -0.24        2.03178
              H 15 -- H 22                  -0.24        2.03178
              H 9  -- H 16                  -0.24        2.03178
              H 13 -- H 21                  -0.22        2.12096
              H 15 -- H 19                  -0.22        2.12096
              H 1  -- H 7                   -0.22        2.12096
              H 3  -- H 9                   -0.22        2.12096
              H 12 -- H 16                  -0.22        2.12096
              H 4  -- H 24                  -0.22        2.12096
              H 6  -- H 22                  -0.22        2.12096
              H 10 -- H 18                  -0.22        2.12096
              H 5  -- H 16                  -0.04        2.19280
              H 11 -- H 22                  -0.04        2.19280
              H 2  -- H 13                  -0.04        2.19280
              H 7  -- H 20                  -0.04        2.19280
              H 4  -- H 17                  -0.04        2.19280
              H 10 -- H 23                  -0.04        2.19280
              H 3  -- H 14                  -0.04        2.19280
              H 8  -- H 19                  -0.04        2.19280
              H 5  -- H 20                  -0.07        2.29483
              H 2  -- H 11                  -0.07        2.29483
              H 14 -- H 23                  -0.07        2.29483
              H 8  -- H 17                  -0.07        2.29483
              H 1  -- H 14                   0.08        2.36969
              H 8  -- H 21                   0.08        2.36969
              H 12 -- H 23                   0.08        2.36969
              H 6  -- H 17                   0.08        2.36969
              H 11 -- H 24                   0.08        2.36969
              H 5  -- H 18                   0.08        2.36969
              H 9  -- H 20                   0.08        2.36969
              H 2  -- H 15                   0.08        2.36969
              H 3  -- H 16                  -0.06        2.40854
              H 19 -- H 22                  -0.06        2.40854
              H 4  -- H 13                  -0.06        2.40854
              H 7  -- H 10                  -0.06        2.40854
              H 16 -- H 22                  -0.03        2.45302
              H 7  -- H 13                  -0.03        2.45302
              H 4  -- H 10                  -0.03        2.45302
              H 3  -- H 19                  -0.03        2.45302
              H 12 -- H 17                   0.08        2.45318
              H 6  -- H 23                   0.08        2.45318
              H 14 -- H 21                   0.08        2.45318
              H 1  -- H 8                    0.08        2.45318
              H 11 -- H 18                   0.08        2.45318
              H 15 -- H 20                   0.08        2.45318
              H 5  -- H 24                   0.08        2.45318
              H 2  -- H 9                    0.08        2.45318
              H 1  -- H 18                  -0.00        2.46836
              H 6  -- H 15                  -0.00        2.46836
              H 9  -- H 12                  -0.00        2.46836
              H 21 -- H 24                  -0.00        2.46836
              H 4  -- H 20                   0.12        2.51163
              H 2  -- H 10                   0.12        2.51163
              H 5  -- H 19                   0.12        2.51163
              H 3  -- H 11                   0.12        2.51163
              H 7  -- H 17                   0.12        2.51163
              H 13 -- H 23                   0.12        2.51163
              H 14 -- H 22                   0.12        2.51163
              H 8  -- H 16                   0.12        2.51163
======================================================================


Writing analysis data to Cmca-12.castep_bin

Writing model to Cmca-12.check
 
 A BibTeX formatted list of references used in this run has been written to 
 Cmca-12.bib
 
Initialisation time =      8.90 s
Calculation time    =   9816.18 s
Finalisation time   =     43.14 s
Total time          =   9868.22 s
Peak Memory Use     = 936056 kB
  
Overall parallel efficiency rating: Very good (86%)                             
  
Data was distributed by:-
k-point (36-way); efficiency rating: Very good (87%)                            
