 +-------------------------------------------------+
 |                                                 |
 |      CCC   AA    SSS  TTTTT  EEEEE  PPPP        |
 |     C     A  A  S       T    E      P   P       |
 |     C     AAAA   SS     T    EEE    PPPP        |
 |     C     A  A     S    T    E      P           |
 |      CCC  A  A  SSS     T    EEEEE  P           |
 |                                                 |
 +-------------------------------------------------+
 |                                                 |
 | Welcome to Academic Release CASTEP version 18.1 |          
 | Ab Initio Total Energy Program                  |
 |                                                 |
 | Authors:                                        |
 | M. Segall, M. Probert, C. Pickard, P. Hasnip,   |
 | S. Clark, K. Refson, J. R. Yates, M. Payne      |
 |                                                 |
 | Contributors:                                   |
 | P. Lindan, P. Haynes, J. White, V. Milman,      |
 | N. Govind, M. Gibson, P. Tulip, V. Cocula,      |
 | B. Montanari, D. Quigley, M. Glover,            |
 | L. Bernasconi, A. Perlov, M. Plummer,           |
 | E. McNellis, J. Meyer, J. Gale, D. Jochym       |
 | J. Aarons, B. Walker, R. Gillen, D. Jones       |
 | T. Green, I. J. Bush, C. J. Armstrong,          |
 | E. J. Higgins, E. L. Brown, M. S. McFly,        |
 | J. Wilkins, B-C. Shih, P. J. P. Byrne           |
 |                                                 |
 | Copyright (c) 2000 - 2017                       |
 |                                                 |
 |     Distributed under the terms of an           |
 |     Agreement between the United Kingdom        |
 |     Car-Parrinello (UKCP) Consortium,           |
 |     Daresbury Laboratory and Accelrys, Inc.     |
 |                                                 |
 | Please cite                                     |
 |                                                 |
 |     "First principles methods using CASTEP"     |
 |                                                 |
 |         Zeitschrift fuer Kristallographie       |
 |           220(5-6) pp. 567-570 (2005)           |
 |                                                 |
 | S. J. Clark, M. D. Segall, C. J. Pickard,       |
 | P. J. Hasnip, M. J. Probert, K. Refson,         |
 | M. C. Payne                                     |
 |                                                 |
 |       in all publications arising from          |
 |              your use of CASTEP                 |
 |                                                 |
 +-------------------------------------------------+


 Compiled for linux_x86_64_gfortran4.8 on Thu, 19 Jul 2018 15:42:32 +0100
 from code version 70483bd0ad64+  Sun, 10 Dec 2017 12:18:29 +0000
 Compiler: GNU Fortran 4.8.5; Optimisation: fast
 MATHLIBS: Intel MKL(2018.0.0) (LAPACK version 3.7.0)
 FFT Lib : mkl
 Fundamental constants values: CODATA 2014

 Run started: Fri, 28 Aug 2020 13:08:25 +0100

 Atomic calculation performed for H: 1s1

 Converged in 41 iterations to an ae energy of -12.488 eV

   ============================================================                
   | Pseudopotential Report - Date of generation 28-08-2020   |                
   ------------------------------------------------------------                
   | Element: H Ionic charge:  1.00 Level of theory: PBE      |                
   | Atomic Solver: Koelling-Harmon                           |                
   |                                                          |                
   |               Reference Electronic Structure             |                
   |         Orbital         Occupation         Energy        |                
   |            1s              1.000           -0.239        |                
   |                                                          |                
   |                 Pseudopotential Definition               |                
   |        Beta     l      e      Rc     scheme   norm       |                
   |          1      0   -0.239   0.599     qc      0         |                
   |          2      0    0.250   0.599     qc      0         |                
   |         loc     1    0.000   0.599     pn      0         |                
   |                                                          |                
   | Augmentation charge Rinner = 0.421                       |                
   | No partial core correction                               |                
   ------------------------------------------------------------                
   | "1|0.6|13|15|17|10(qc=8)"                                |                
   ------------------------------------------------------------                
   |      Author: Chris J. Pickard, Cambridge University      |                
   ============================================================                

 Pseudo atomic calculation performed for H 1s1

 Converged in 24 iterations to a total energy of -12.4868 eV

 Calculation parallelised over 36 processes.
 Data is distributed by k-point(36-way)

 ************************************ Title ************************************
 

 ***************************** General Parameters ******************************
  
 output verbosity                               : normal  (1)
 write checkpoint data to                       : Cmca-12.check
 type of calculation                            : geometry optimization
 stress calculation                             : on
 density difference calculation                 : off
 electron localisation func (ELF) calculation   : off
 Hirshfeld analysis                             : off
 unlimited duration calculation
 timing information                             : on
 memory usage estimate                          : on
 write extra output files                       : on
 write final potential to formatted file        : off
 write final density to formatted file          : off
 write structure in CELL formatted file         : on
 write BibTeX reference list                    : on
 write OTFG pseudopotential files               : on
 write electrostatic potential file             : on
 write bands file                               : on
 checkpoint writing                             : both castep_bin and check files
  
 output         length unit                     : A
 output           mass unit                     : amu
 output           time unit                     : ps
 output         charge unit                     : e
 output           spin unit                     : hbar/2
 output         energy unit                     : eV
 output          force unit                     : eV/A
 output       velocity unit                     : A/ps
 output       pressure unit                     : GPa
 output     inv_length unit                     : 1/A
 output      frequency unit                     : cm-1
 output force constant unit                     : eV/A**2
 output         volume unit                     : A**3
 output   IR intensity unit                     : (D/A)**2/amu
 output         dipole unit                     : D
 output         efield unit                     : eV/A/e
 output        entropy unit                     : J/mol/K
  
 wavefunctions paging                           : none
 random number generator seed                   : randomised (130826700)
 data distribution                              : optimal for this architecture
 optimization strategy                          : maximize speed(+++)

 *********************** Exchange-Correlation Parameters ***********************
  
 using functional                               : Perdew Burke Ernzerhof
 relativistic treatment                         : Koelling-Harmon
 DFT+D: Semi-empirical dispersion correction    : off

 ************************* Pseudopotential Parameters **************************
  
 pseudopotential representation                 : reciprocal space
 <beta|phi> representation                      : reciprocal space
 spin-orbit coupling                            : off

 **************************** Basis Set Parameters *****************************
  
 plane wave basis set cut-off                   :  1600.0000   eV
 size of standard grid                          :     2.0000
 size of   fine   gmax                          :    40.9853   1/A
 finite basis set correction                    : automatic
 number of sample energies                      :          3
           sample  spacing                      :     5.0000   eV

 **************************** Electronic Parameters ****************************
  
 number of  electrons                           :  24.00    
 net charge of system                           :  0.000    
 treating system as non-spin-polarized
 number of bands                                :         12

 ********************* Electronic Minimization Parameters **********************
  
 Method: Treating system as non-metallic,
         and number of  SD  steps               :          1
         and number of  CG  steps               :          4
  
 total energy / atom convergence tol.           : 0.1000E-10   eV
 eigen-energy convergence tolerance             : 0.2000E-10   eV
 max force / atom convergence tol.              : ignored
 convergence tolerance window                   :          3   cycles
 max. number of SCF cycles                      :        200
 periodic dipole correction                     : NONE

 ************************** Density Mixing Parameters **************************
  
 density-mixing scheme                          : Broyden
 max. length of mixing history                  :         20
 charge density mixing amplitude                : 0.8000    
 cut-off energy for mixing                      :  1600.       eV

 *********************** Population Analysis Parameters ************************
  
 Population analysis with cutoff                :  3.000       A
 Population analysis output                     : summary and pdos components

 ********************** Geometry Optimization Parameters ***********************
  
 optimization method                            : LBFGS
 max. no. of LBFGS updates                      : unbounded
 variable cell method                           : fixed basis quality
 max. number of steps                           :        200
 estimated bulk modulus                         :  500.0       GPa
 estimated <frequency>                          :  1668.       cm-1
 geom line minimiser                            : on
 with line minimiser tolerance                  :     0.4000
 total energy convergence tolerance             : 0.1000E-08   eV/atom
        max ionic |force| tolerance             : 0.1000E-04   eV/A
 max ionic |displacement| tolerance             : 0.1000E-04   A
   max |stress component| tolerance             : 0.1000E-04   GPa
 convergence tolerance window                   :          2   steps
 backup results every                           :      14400   seconds
 write geom trajectory file                     : on

 *******************************************************************************
  

                           -------------------------------
                                      Unit Cell
                           -------------------------------
        Real Lattice(A)                      Reciprocal Lattice(1/A)
     2.5595259    -0.0000000     0.0000000        2.454823919   0.000000000  -0.000000000
    -0.0000000     4.7559553     0.0000000        0.000000000   1.321119515  -0.000000001
     0.0000000     0.0000000     2.8667074       -0.000000000  -0.000000002   2.191777712

                       Lattice parameters(A)       Cell Angles
                    a =      2.559526          alpha =   90.000000
                    b =      4.755955          beta  =   90.000000
                    c =      2.866707          gamma =   90.000000

                       Current cell volume =            34.896401       A**3
                                   density =             0.693211   AMU/A**3
                                           =             1.151103     g/cm^3

                           -------------------------------
                                     Cell Contents
                           -------------------------------
                         Total number of ions in cell =   24
                      Total number of species in cell =    1
                        Max number of any one species =   24

            xxxxxxxxxxxxxxxxxxxxxxxxxxxxxxxxxxxxxxxxxxxxxxxxxxxxxxxxxxxx
            x  Element    Atom        Fractional coordinates of atoms  x
            x            Number           u          v          w      x
            x----------------------------------------------------------x
            x  H            1         0.000000   0.003938   0.134563   x 
            x  H            2        -0.000000   0.131894   0.455563   x 
            x  H            3         0.000000   0.266973   0.316714   x 
            x  H            4         0.500000   0.266973   0.183286   x 
            x  H            5         0.500000   0.131894   0.044437   x 
            x  H            6         0.500000   0.003938   0.365437   x 
            x  H            7         0.500000   0.233027   0.683286   x 
            x  H            8         0.500000   0.368106   0.544437   x 
            x  H            9         0.500000   0.496062   0.865437   x 
            x  H           10         0.500000   0.733027   0.816714   x 
            x  H           11         0.500000   0.868106   0.955563   x 
            x  H           12         0.500000   0.996062   0.634563   x 
            x  H           13         0.500000   0.766973   0.316714   x 
            x  H           14         0.500000   0.631894   0.455563   x 
            x  H           15         0.500000   0.503938   0.134563   x 
            x  H           16        -0.000000   0.766973   0.183286   x 
            x  H           17         0.000000   0.631894   0.044437   x 
            x  H           18        -0.000000   0.503938   0.365437   x 
            x  H           19        -0.000000   0.733027   0.683286   x 
            x  H           20        -0.000000   0.868106   0.544437   x 
            x  H           21         0.000000   0.996062   0.865437   x 
            x  H           22         0.000000   0.233027   0.816714   x 
            x  H           23         0.000000   0.368106   0.955563   x 
            x  H           24         0.000000   0.496062   0.634563   x 
            xxxxxxxxxxxxxxxxxxxxxxxxxxxxxxxxxxxxxxxxxxxxxxxxxxxxxxxxxxxx


                         No user defined ionic velocities

                           -------------------------------
                                   Details of Species
                           -------------------------------

                               Mass of species in AMU
                                    H    1.0078250

                          Electric Quadrupole Moment (Barn)
                                    H    0.0028600 Isotope  2

                          Files used for pseudopotentials:
                                    H 1|0.6|13|15|17|10(qc=8)

                           -------------------------------
                              k-Points For BZ Sampling
                           -------------------------------
                       MP grid size for SCF calculation is 18 18 18
                            with an offset of   0.000  0.000  0.000
                       Number of kpoints used =          2916

                           -------------------------------
                               Symmetry and Constraints
                           -------------------------------

                      Cell is a supercell containing 2 primitive cells
                      Maximum deviation from symmetry =  0.00000         ANG

                      Number of symmetry operations   =           1
                      Number of ionic constraints     =           3
                      Point group of crystal =     1: C1, 1, 1
                      Space group of crystal =    64: Cmce, -C 2bc 2

             Set iprint > 1 for details on symmetry rotations/translations

                         Centre of mass is constrained
             Set iprint > 1 for details of linear ionic constraints

                         Number of cell constraints= 0
                         Cell constraints are:  1 2 3 4 5 6

                         External pressure/stress (GPa)
                        270.00000   0.00000   0.00000
                                  270.00000   0.00000
                                            270.00000
  
+---------------- MEMORY AND SCRATCH DISK ESTIMATES PER PROCESS --------------+
|                                                     Memory          Disk    |
| Baseline code, static data and system overhead      492.0 MB         0.0 MB |
| BLAS internal memory storage                          0.0 MB         0.0 MB |
| Model and support data                              175.2 MB         0.0 MB |
| Electronic energy minimisation requirements         178.4 MB         0.0 MB |
| Force calculation requirements                       10.5 MB         0.0 MB |
| Stress calculation requirements                      13.4 MB         0.0 MB |
|                                               ----------------------------- |
| Approx. total storage required per process          845.6 MB         0.0 MB |
|                                                                             |
| Requirements will fluctuate during execution and may exceed these estimates |
+-----------------------------------------------------------------------------+
Calculating finite basis set correction with  3 cut-off energies.
Calculating total energy with cut-off of 1590.000 eV.
------------------------------------------------------------------------ <-- SCF
SCF loop      Energy                           Energy gain       Timer   <-- SCF
                                               per atom          (sec)   <-- SCF
------------------------------------------------------------------------ <-- SCF
Initial   5.39659339E+002                                         16.26  <-- SCF
      1  -2.90010295E+002                    3.45695681E+001      76.31  <-- SCF
      2  -3.41268980E+002                    2.13577856E+000     123.17  <-- SCF
      3  -3.41164984E+002                   -4.33316927E-003     180.84  <-- SCF
      4  -3.41155479E+002                   -3.96067624E-004     237.36  <-- SCF
      5  -3.41155722E+002                    1.01336282E-005     292.56  <-- SCF
      6  -3.41155740E+002                    7.63338706E-007     348.45  <-- SCF
      7  -3.41155740E+002                    2.64694536E-009     402.89  <-- SCF
      8  -3.41155740E+002                    1.91290171E-010     452.31  <-- SCF
      9  -3.41155740E+002                    2.79146935E-012     491.41  <-- SCF
     10  -3.41155740E+002                   -2.33629470E-013     529.99  <-- SCF
------------------------------------------------------------------------ <-- SCF
 
Final energy =  -341.1557401156     eV
(energy not corrected for finite basis set)
 
Calculating total energy with cut-off of 1595.000 eV.
------------------------------------------------------------------------ <-- SCF
SCF loop      Energy                           Energy gain       Timer   <-- SCF
                                               per atom          (sec)   <-- SCF
------------------------------------------------------------------------ <-- SCF
Initial  -3.41155740E+002                                        545.13  <-- SCF
      1  -3.41155827E+002                    3.61183344E-006     597.08  <-- SCF
      2  -3.41155827E+002                    1.47428252E-012     635.22  <-- SCF
      3  -3.41155827E+002                    9.07928429E-010     674.66  <-- SCF
      4  -3.41155827E+002                    2.53931065E-011     714.29  <-- SCF
      5  -3.41155827E+002                    1.63137819E-013     753.56  <-- SCF
      6  -3.41155827E+002                    1.02716405E-013     792.23  <-- SCF
------------------------------------------------------------------------ <-- SCF
 
Final energy =  -341.1558268220     eV
(energy not corrected for finite basis set)
 
Calculating total energy with cut-off of 1600.000 eV.
------------------------------------------------------------------------ <-- SCF
SCF loop      Energy                           Energy gain       Timer   <-- SCF
                                               per atom          (sec)   <-- SCF
------------------------------------------------------------------------ <-- SCF
Initial  -3.41155827E+002                                        807.43  <-- SCF
      1  -3.41155912E+002                    3.56607184E-006     860.55  <-- SCF
      2  -3.41155912E+002                    1.54477417E-012     900.23  <-- SCF
      3  -3.41155912E+002                    8.93111084E-010     939.68  <-- SCF
      4  -3.41155912E+002                    2.46056141E-011     978.57  <-- SCF
      5  -3.41155912E+002                   -8.45899804E-014    1017.85  <-- SCF
      6  -3.41155912E+002                   -1.87306385E-013    1057.61  <-- SCF
------------------------------------------------------------------------ <-- SCF
 
Final energy =  -341.1559124298     eV
(energy not corrected for finite basis set)
 
 For future reference: finite basis dEtot/dlog(Ecut) =      -0.027435eV
 Total energy corrected for finite basis set =    -341.155912 eV
 
+---------------- MEMORY AND SCRATCH DISK ESTIMATES PER PROCESS --------------+
|                                                     Memory          Disk    |
| Model and support data                              182.0 MB         0.0 MB |
| Electronic energy minimisation requirements         178.4 MB         0.0 MB |
| Geometry minimisation requirements                  259.2 MB         0.0 MB |
|                                               ----------------------------- |
| Approx. total storage required per process          619.6 MB         0.0 MB |
|                                                                             |
| Requirements will fluctuate during execution and may exceed these estimates |
+-----------------------------------------------------------------------------+
 

 ************************************** Forces **************************************
 *                                                                                  *
 *                           Cartesian components (eV/A)                            *
 * -------------------------------------------------------------------------------- *
 *                         x                    y                    z              *
 *                                                                                  *
 * H               1     -0.00000              0.00000              0.00000         *
 * H               2      0.00000              0.00000             -0.00000         *
 * H               3     -0.00000             -0.00000              0.00000         *
 * H               4      0.00000              0.00000             -0.00000         *
 * H               5      0.00000              0.00000              0.00000         *
 * H               6     -0.00000             -0.00000              0.00000         *
 * H               7     -0.00000             -0.00000             -0.00000         *
 * H               8     -0.00000              0.00000             -0.00000         *
 * H               9     -0.00000             -0.00000             -0.00000         *
 * H              10      0.00000             -0.00000             -0.00000         *
 * H              11     -0.00000             -0.00000             -0.00000         *
 * H              12      0.00000              0.00000             -0.00000         *
 * H              13     -0.00000              0.00000              0.00000         *
 * H              14     -0.00000             -0.00000             -0.00000         *
 * H              15     -0.00000             -0.00000              0.00000         *
 * H              16      0.00000             -0.00000             -0.00000         *
 * H              17     -0.00000              0.00000              0.00000         *
 * H              18      0.00000             -0.00000              0.00000         *
 * H              19      0.00000              0.00000             -0.00000         *
 * H              20      0.00000             -0.00000              0.00000         *
 * H              21     -0.00000             -0.00000             -0.00000         *
 * H              22     -0.00000              0.00000              0.00000         *
 * H              23      0.00000             -0.00000             -0.00000         *
 * H              24     -0.00000              0.00000             -0.00000         *
 *                                                                                  *
 ************************************************************************************

 ***************** Stress Tensor *****************
 *                                               *
 *          Cartesian components (GPa)           *
 * --------------------------------------------- *
 *             x             y             z     *
 *                                               *
 *  x   -300.000746     -0.000000     -0.000000  *
 *  y     -0.000000   -300.000750      0.000001  *
 *  z     -0.000000      0.000001   -300.000747  *
 *                                               *
 *  Pressure:  300.0007                          *
 *                                               *
 *************************************************
 LBFGS: finished iteration     0 with enthalpy= -2.82348236E+002 eV
  
 +-----------+-----------------+-----------------+------------+-----+ <-- LBFGS
 | Parameter |      value      |    tolerance    |    units   | OK? | <-- LBFGS
 +-----------+-----------------+-----------------+------------+-----+ <-- LBFGS
 |  dE/ion   |   0.000000E+000 |   1.000000E-009 |         eV | No  | <-- LBFGS
 |  |F|max   |   7.827115E-007 |   1.000000E-005 |       eV/A | Yes | <-- LBFGS
 |  |dR|max  |   0.000000E+000 |   1.000000E-005 |          A | No  | <-- LBFGS
 |   Smax    |   3.000075E+001 |   1.000000E-005 |        GPa | No  | <-- LBFGS
 +-----------+-----------------+-----------------+------------+-----+ <-- LBFGS
  

================================================================================
 Starting LBFGS iteration          1 ...
================================================================================
  
 +------------+-------------+-------------+-----------------+ <-- min LBFGS
 |    Step    |   lambda    |   F.delta'  |    enthalpy     | <-- min LBFGS
 +------------+-------------+-------------+-----------------+ <-- min LBFGS
 |  previous  |    0.000000 |    0.415922 |     -282.348236 | <-- min LBFGS
 +------------+-------------+-------------+-----------------+ <-- min LBFGS
  

--------------------------------------------------------------------------------
 LBFGS: starting iteration         1 with trial guess (lambda=  1.000000)
--------------------------------------------------------------------------------
 
+---------------- MEMORY AND SCRATCH DISK ESTIMATES PER PROCESS --------------+
|                                                     Memory          Disk    |
| Model and support data                              190.3 MB         0.0 MB |
| Electronic energy minimisation requirements         188.5 MB         0.0 MB |
| Geometry minimisation requirements                  273.9 MB         0.0 MB |
|                                               ----------------------------- |
| Approx. total storage required per process          652.7 MB         0.0 MB |
|                                                                             |
| Requirements will fluctuate during execution and may exceed these estimates |
+-----------------------------------------------------------------------------+
 

                           -------------------------------
                                      Unit Cell
                           -------------------------------
        Real Lattice(A)              Reciprocal Lattice(1/A)
     2.6107177    -0.0000000     0.0000000        2.406688944   0.000000000  -0.000000000
    -0.0000000     4.8510767     0.0000000        0.000000000   1.295214576  -0.000000000
     0.0000000     0.0000000     2.9240429       -0.000000000  -0.000000000   2.148800629

                       Lattice parameters(A)       Cell Angles
                    a =      2.610718          alpha =   90.000000
                    b =      4.851077          beta  =   90.000000
                    c =      2.924043          gamma =   90.000000

                Current cell volume =            37.032395 A**3

                           -------------------------------
                                     Cell Contents
                           -------------------------------

            xxxxxxxxxxxxxxxxxxxxxxxxxxxxxxxxxxxxxxxxxxxxxxxxxxxxxxxxxxxxxxxxx
            x  Element         Atom        Fractional coordinates of atoms  x
            x                 Number           u          v          w      x
            x---------------------------------------------------------------x
            x  H                 1        -0.000000   0.003938   0.134563   x
            x  H                 2         0.000000   0.131894   0.455563   x
            x  H                 3        -0.000000   0.266973   0.316714   x
            x  H                 4         0.500000   0.266973   0.183286   x
            x  H                 5         0.500000   0.131894   0.044437   x
            x  H                 6         0.500000   0.003938   0.365437   x
            x  H                 7         0.500000   0.233027   0.683286   x
            x  H                 8         0.500000   0.368106   0.544437   x
            x  H                 9         0.500000   0.496062   0.865437   x
            x  H                10         0.500000   0.733027   0.816714   x
            x  H                11         0.500000   0.868106   0.955563   x
            x  H                12         0.500000   0.996062   0.634563   x
            x  H                13         0.500000   0.766973   0.316714   x
            x  H                14         0.500000   0.631894   0.455563   x
            x  H                15         0.500000   0.503938   0.134563   x
            x  H                16         0.000000   0.766973   0.183286   x
            x  H                17        -0.000000   0.631894   0.044437   x
            x  H                18        -0.000000   0.503938   0.365437   x
            x  H                19         0.000000   0.733027   0.683286   x
            x  H                20        -0.000000   0.868106   0.544437   x
            x  H                21        -0.000000   0.996062   0.865437   x
            x  H                22        -0.000000   0.233027   0.816714   x
            x  H                23         0.000000   0.368106   0.955563   x
            x  H                24         0.000000   0.496062   0.634563   x
            xxxxxxxxxxxxxxxxxxxxxxxxxxxxxxxxxxxxxxxxxxxxxxxxxxxxxxxxxxxxxxxxx


------------------------------------------------------------------------ <-- SCF
SCF loop      Energy                           Energy gain       Timer   <-- SCF
                                               per atom          (sec)   <-- SCF
------------------------------------------------------------------------ <-- SCF
Initial  -3.44780643E+002                                       1163.32  <-- SCF
      1  -3.44847873E+002                    2.80123883E-003    1217.90  <-- SCF
      2  -3.44848074E+002                    8.37242823E-006    1276.48  <-- SCF
      3  -3.44848074E+002                    2.66523109E-008    1334.60  <-- SCF
      4  -3.44848099E+002                    1.03949221E-006    1391.93  <-- SCF
      5  -3.44848100E+002                    1.42616169E-008    1450.47  <-- SCF
      6  -3.44848100E+002                    1.41554484E-009    1508.97  <-- SCF
      7  -3.44848100E+002                    8.82555462E-012    1548.47  <-- SCF
      8  -3.44848100E+002                    1.03924833E-012    1589.23  <-- SCF
------------------------------------------------------------------------ <-- SCF
 
Final energy =  -344.8480996147     eV
(energy not corrected for finite basis set)
 

 ************************************** Forces **************************************
 *                                                                                  *
 *                           Cartesian components (eV/A)                            *
 * -------------------------------------------------------------------------------- *
 *                         x                    y                    z              *
 *                                                                                  *
 * H               1      0.00000             -0.01203             -0.27492         *
 * H               2     -0.00000              0.25852             -0.17332         *
 * H               3      0.00000             -0.24571              0.14698         *
 * H               4     -0.00000             -0.24571             -0.14698         *
 * H               5     -0.00000              0.25852              0.17332         *
 * H               6      0.00000             -0.01203              0.27491         *
 * H               7     -0.00000              0.24571             -0.14698         *
 * H               8      0.00000             -0.25852              0.17332         *
 * H               9     -0.00000              0.01203              0.27492         *
 * H              10     -0.00000              0.24571              0.14698         *
 * H              11     -0.00000             -0.25852             -0.17332         *
 * H              12     -0.00000              0.01203             -0.27491         *
 * H              13      0.00000             -0.24571              0.14698         *
 * H              14      0.00000              0.25852             -0.17332         *
 * H              15      0.00000             -0.01203             -0.27492         *
 * H              16     -0.00000             -0.24571             -0.14698         *
 * H              17      0.00000              0.25852              0.17331         *
 * H              18     -0.00000             -0.01203              0.27492         *
 * H              19     -0.00000              0.24571             -0.14698         *
 * H              20     -0.00000             -0.25852              0.17332         *
 * H              21      0.00000              0.01203              0.27492         *
 * H              22      0.00000              0.24571              0.14698         *
 * H              23     -0.00000             -0.25852             -0.17331         *
 * H              24     -0.00000              0.01203             -0.27492         *
 *                                                                                  *
 ************************************************************************************

 ***************** Stress Tensor *****************
 *                                               *
 *          Cartesian components (GPa)           *
 * --------------------------------------------- *
 *             x             y             z     *
 *                                               *
 *  x   -261.172767     -0.000000      0.000000  *
 *  y     -0.000000   -252.680715     -0.000003  *
 *  z      0.000000     -0.000003   -252.088308  *
 *                                               *
 *  Pressure:  255.3139                          *
 *                                               *
 *************************************************
  
 +------------+-------------+-------------+-----------------+ <-- min LBFGS
 |    Step    |   lambda    |   F.delta'  |    enthalpy     | <-- min LBFGS
 +------------+-------------+-------------+-----------------+ <-- min LBFGS
 |  previous  |    0.000000 |    0.415922 |     -282.348236 | <-- min LBFGS
 | trial step |    1.000000 |   -0.211829 |     -282.440832 | <-- min LBFGS
 +------------+-------------+-------------+-----------------+ <-- min LBFGS
  
 LBFGS: finished iteration     1 with enthalpy= -2.82440832E+002 eV
  
 +-----------+-----------------+-----------------+------------+-----+ <-- LBFGS
 | Parameter |      value      |    tolerance    |    units   | OK? | <-- LBFGS
 +-----------+-----------------+-----------------+------------+-----+ <-- LBFGS
 |  dE/ion   |   3.858145E-003 |   1.000000E-009 |         eV | No  | <-- LBFGS
 |  |F|max   |   3.112417E-001 |   1.000000E-005 |       eV/A | No  | <-- LBFGS
 |  |dR|max  |   7.744235E-008 |   1.000000E-005 |          A | Yes | <-- LBFGS
 |   Smax    |   1.791169E+001 |   1.000000E-005 |        GPa | No  | <-- LBFGS
 +-----------+-----------------+-----------------+------------+-----+ <-- LBFGS
  

================================================================================
 Starting LBFGS iteration          2 ...
================================================================================
  
 +------------+-------------+-------------+-----------------+ <-- min LBFGS
 |    Step    |   lambda    |   F.delta'  |    enthalpy     | <-- min LBFGS
 +------------+-------------+-------------+-----------------+ <-- min LBFGS
 |  previous  |    0.000000 |    0.216525 |     -282.440832 | <-- min LBFGS
 +------------+-------------+-------------+-----------------+ <-- min LBFGS
  

--------------------------------------------------------------------------------
 LBFGS: starting iteration         2 with trial guess (lambda=  1.000000)
--------------------------------------------------------------------------------

                           -------------------------------
                                      Unit Cell
                           -------------------------------
        Real Lattice(A)              Reciprocal Lattice(1/A)
     2.6125807    -0.0000000     0.0000000        2.404972763   0.000000000  -0.000000000
    -0.0000000     4.8359782     0.0000000        0.000000000   1.299258404  -0.000000002
     0.0000000     0.0000000     2.9141617       -0.000000000  -0.000000003   2.156086727

                       Lattice parameters(A)       Cell Angles
                    a =      2.612581          alpha =   90.000000
                    b =      4.835978          beta  =   90.000000
                    c =      2.914162          gamma =   90.000000

                Current cell volume =            36.818635 A**3

                           -------------------------------
                                     Cell Contents
                           -------------------------------

            xxxxxxxxxxxxxxxxxxxxxxxxxxxxxxxxxxxxxxxxxxxxxxxxxxxxxxxxxxxxxxxxx
            x  Element         Atom        Fractional coordinates of atoms  x
            x                 Number           u          v          w      x
            x---------------------------------------------------------------x
            x  H                 1        -0.000000   0.003772   0.128277   x
            x  H                 2        -0.000000   0.135458   0.451600   x
            x  H                 3         0.000000   0.263587   0.320075   x
            x  H                 4         0.500000   0.263587   0.179925   x
            x  H                 5         0.500000   0.135458   0.048401   x
            x  H                 6         0.500000   0.003772   0.371723   x
            x  H                 7         0.500000   0.236413   0.679925   x
            x  H                 8         0.500000   0.364542   0.548401   x
            x  H                 9         0.500000   0.496228   0.871723   x
            x  H                10         0.500000   0.736413   0.820075   x
            x  H                11         0.500000   0.864542   0.951599   x
            x  H                12         0.500000   0.996228   0.628277   x
            x  H                13         0.500000   0.763587   0.320075   x
            x  H                14         0.500000   0.635458   0.451599   x
            x  H                15         0.500000   0.503772   0.128277   x
            x  H                16         0.000000   0.763587   0.179925   x
            x  H                17        -0.000000   0.635458   0.048400   x
            x  H                18        -0.000000   0.503772   0.371723   x
            x  H                19         0.000000   0.736413   0.679925   x
            x  H                20        -0.000000   0.864542   0.548400   x
            x  H                21        -0.000000   0.996228   0.871723   x
            x  H                22        -0.000000   0.236413   0.820075   x
            x  H                23         0.000000   0.364542   0.951600   x
            x  H                24         0.000000   0.496228   0.628277   x
            xxxxxxxxxxxxxxxxxxxxxxxxxxxxxxxxxxxxxxxxxxxxxxxxxxxxxxxxxxxxxxxxx


------------------------------------------------------------------------ <-- SCF
SCF loop      Energy                           Energy gain       Timer   <-- SCF
                                               per atom          (sec)   <-- SCF
------------------------------------------------------------------------ <-- SCF
Initial  -3.43627865E+002                                       1698.54  <-- SCF
      1  -3.44549850E+002                    3.84160488E-002    1751.88  <-- SCF
      2  -3.44553488E+002                    1.51593367E-004    1811.07  <-- SCF
      3  -3.44430318E+002                   -5.13209925E-003    1868.39  <-- SCF
      4  -3.44427139E+002                   -1.32448654E-004    1926.98  <-- SCF
      5  -3.44427132E+002                   -3.04613978E-007    1985.01  <-- SCF
      6  -3.44427132E+002                    4.61824235E-009    2041.07  <-- SCF
      7  -3.44427132E+002                    2.45079328E-010    2092.10  <-- SCF
      8  -3.44427132E+002                    8.31801474E-012    2132.32  <-- SCF
      9  -3.44427132E+002                    2.94050884E-013    2172.67  <-- SCF
------------------------------------------------------------------------ <-- SCF
 
Final energy =  -344.4271316656     eV
(energy not corrected for finite basis set)
 

 ************************************** Forces **************************************
 *                                                                                  *
 *                           Cartesian components (eV/A)                            *
 * -------------------------------------------------------------------------------- *
 *                         x                    y                    z              *
 *                                                                                  *
 * H               1     -0.00000             -0.01922              0.46218         *
 * H               2      0.00000             -0.71124              0.40959         *
 * H               3     -0.00000              0.53448             -0.32870         *
 * H               4      0.00000              0.53448              0.32870         *
 * H               5     -0.00000             -0.71124             -0.40959         *
 * H               6     -0.00000             -0.01922             -0.46217         *
 * H               7      0.00000             -0.53448              0.32870         *
 * H               8      0.00000              0.71124             -0.40959         *
 * H               9     -0.00000              0.01922             -0.46218         *
 * H              10     -0.00000             -0.53448             -0.32870         *
 * H              11      0.00000              0.71124              0.40959         *
 * H              12     -0.00000              0.01922              0.46217         *
 * H              13      0.00000              0.53448             -0.32870         *
 * H              14     -0.00000             -0.71124              0.40959         *
 * H              15      0.00000             -0.01922              0.46218         *
 * H              16     -0.00000              0.53447              0.32870         *
 * H              17      0.00000             -0.71123             -0.40959         *
 * H              18     -0.00000             -0.01922             -0.46218         *
 * H              19     -0.00000             -0.53448              0.32870         *
 * H              20     -0.00000              0.71124             -0.40959         *
 * H              21      0.00000              0.01922             -0.46218         *
 * H              22     -0.00000             -0.53448             -0.32870         *
 * H              23     -0.00000              0.71123              0.40959         *
 * H              24     -0.00000              0.01922              0.46218         *
 *                                                                                  *
 ************************************************************************************

 ***************** Stress Tensor *****************
 *                                               *
 *          Cartesian components (GPa)           *
 * --------------------------------------------- *
 *             x             y             z     *
 *                                               *
 *  x   -260.197297      0.000000      0.000000  *
 *  y      0.000000   -277.846556      0.000014  *
 *  z      0.000000      0.000014   -274.963470  *
 *                                               *
 *  Pressure:  271.0024                          *
 *                                               *
 *************************************************
  
 +------------+-------------+-------------+-----------------+ <-- min LBFGS
 |    Step    |   lambda    |   F.delta'  |    enthalpy     | <-- min LBFGS
 +------------+-------------+-------------+-----------------+ <-- min LBFGS
 |  previous  |    0.000000 |    0.216525 |     -282.440832 | <-- min LBFGS
 | trial step |    1.000000 |   -0.417009 |     -282.380093 | <-- min LBFGS
 +------------+-------------+-------------+-----------------+ <-- min LBFGS
  

--------------------------------------------------------------------------------
 LBFGS: improving iteration         2 with line minimization (lambda=  0.341773)
--------------------------------------------------------------------------------

                           -------------------------------
                                      Unit Cell
                           -------------------------------
        Real Lattice(A)              Reciprocal Lattice(1/A)
     2.6113544    -0.0000000     0.0000000        2.406102124   0.000000000  -0.000000000
    -0.0000000     4.8459165     0.0000000        0.000000000   1.296593813  -0.000000001
     0.0000000     0.0000000     2.9206658       -0.000000000  -0.000000001   2.151285276

                       Lattice parameters(A)       Cell Angles
                    a =      2.611354          alpha =   90.000000
                    b =      4.845916          beta  =   90.000000
                    c =      2.920666          gamma =   90.000000

                Current cell volume =            36.959288 A**3

                           -------------------------------
                                     Cell Contents
                           -------------------------------

            xxxxxxxxxxxxxxxxxxxxxxxxxxxxxxxxxxxxxxxxxxxxxxxxxxxxxxxxxxxxxxxxx
            x  Element         Atom        Fractional coordinates of atoms  x
            x                 Number           u          v          w      x
            x---------------------------------------------------------------x
            x  H                 1        -0.000000   0.003881   0.132415   x
            x  H                 2         0.000000   0.133112   0.454208   x
            x  H                 3         0.000000   0.265816   0.317863   x
            x  H                 4         0.500000   0.265816   0.182137   x
            x  H                 5         0.500000   0.133112   0.045792   x
            x  H                 6         0.500000   0.003881   0.367585   x
            x  H                 7         0.500000   0.234184   0.682137   x
            x  H                 8         0.500000   0.366888   0.545792   x
            x  H                 9         0.500000   0.496119   0.867585   x
            x  H                10         0.500000   0.734184   0.817863   x
            x  H                11         0.500000   0.866888   0.954208   x
            x  H                12         0.500000   0.996119   0.632415   x
            x  H                13         0.500000   0.765816   0.317863   x
            x  H                14         0.500000   0.633112   0.454208   x
            x  H                15         0.500000   0.503881   0.132415   x
            x  H                16         0.000000   0.765816   0.182137   x
            x  H                17        -0.000000   0.633112   0.045792   x
            x  H                18        -0.000000   0.503881   0.367585   x
            x  H                19         0.000000   0.734184   0.682137   x
            x  H                20        -0.000000   0.866888   0.545792   x
            x  H                21        -0.000000   0.996119   0.867585   x
            x  H                22        -0.000000   0.234184   0.817863   x
            x  H                23         0.000000   0.366888   0.954208   x
            x  H                24         0.000000   0.496119   0.632415   x
            xxxxxxxxxxxxxxxxxxxxxxxxxxxxxxxxxxxxxxxxxxxxxxxxxxxxxxxxxxxxxxxxx


------------------------------------------------------------------------ <-- SCF
SCF loop      Energy                           Energy gain       Timer   <-- SCF
                                               per atom          (sec)   <-- SCF
------------------------------------------------------------------------ <-- SCF
Initial  -3.44407655E+002                                       2281.35  <-- SCF
      1  -3.44809408E+002                    1.67396982E-002    2334.32  <-- SCF
      2  -3.44811043E+002                    6.81351442E-005    2392.94  <-- SCF
      3  -3.44757430E+002                   -2.23389657E-003    2448.05  <-- SCF
      4  -3.44756110E+002                   -5.49705886E-005    2505.74  <-- SCF
      5  -3.44756107E+002                   -1.42648539E-007    2561.38  <-- SCF
      6  -3.44756107E+002                    1.71248186E-009    2617.45  <-- SCF
      7  -3.44756107E+002                    1.04341741E-010    2660.08  <-- SCF
      8  -3.44756107E+002                    2.91835432E-012    2699.57  <-- SCF
      9  -3.44756107E+002                    3.02107073E-013    2739.63  <-- SCF
------------------------------------------------------------------------ <-- SCF
 
Final energy =  -344.7561068302     eV
(energy not corrected for finite basis set)
 

 ************************************** Forces **************************************
 *                                                                                  *
 *                           Cartesian components (eV/A)                            *
 * -------------------------------------------------------------------------------- *
 *                         x                    y                    z              *
 *                                                                                  *
 * H               1      0.00000             -0.01626             -0.05492         *
 * H               2      0.00000             -0.03842              0.00312         *
 * H               3     -0.00000             -0.01501              0.00630         *
 * H               4     -0.00000             -0.01501             -0.00630         *
 * H               5     -0.00000             -0.03842             -0.00312         *
 * H               6     -0.00000             -0.01626              0.05492         *
 * H               7     -0.00000              0.01501             -0.00630         *
 * H               8      0.00000              0.03842             -0.00312         *
 * H               9     -0.00000              0.01626              0.05492         *
 * H              10     -0.00000              0.01501              0.00630         *
 * H              11     -0.00000              0.03842              0.00312         *
 * H              12     -0.00000              0.01626             -0.05492         *
 * H              13      0.00000             -0.01501              0.00630         *
 * H              14      0.00000             -0.03842              0.00312         *
 * H              15      0.00000             -0.01626             -0.05492         *
 * H              16     -0.00000             -0.01501             -0.00630         *
 * H              17      0.00000             -0.03842             -0.00312         *
 * H              18     -0.00000             -0.01626              0.05492         *
 * H              19     -0.00000              0.01501             -0.00630         *
 * H              20     -0.00000              0.03842             -0.00312         *
 * H              21      0.00000              0.01626              0.05492         *
 * H              22      0.00000              0.01501              0.00630         *
 * H              23     -0.00000              0.03842              0.00312         *
 * H              24     -0.00000              0.01626             -0.05492         *
 *                                                                                  *
 ************************************************************************************

 ***************** Stress Tensor *****************
 *                                               *
 *          Cartesian components (GPa)           *
 * --------------------------------------------- *
 *             x             y             z     *
 *                                               *
 *  x   -260.904997      0.000000      0.000000  *
 *  y      0.000000   -260.709509      0.000002  *
 *  z      0.000000      0.000002   -259.436695  *
 *                                               *
 *  Pressure:  260.3504                          *
 *                                               *
 *************************************************
  
 +------------+-------------+-------------+-----------------+ <-- min LBFGS
 |    Step    |   lambda    |   F.delta'  |    enthalpy     | <-- min LBFGS
 +------------+-------------+-------------+-----------------+ <-- min LBFGS
 |  previous  |    0.000000 |    0.216525 |     -282.440832 | <-- min LBFGS
 | trial step |    1.000000 |   -0.417009 |     -282.380093 | <-- min LBFGS
 |  line step |    0.341773 |    0.024809 |     -282.472039 | <-- min LBFGS
 +------------+-------------+-------------+-----------------+ <-- min LBFGS
  
 LBFGS: finished iteration     2 with enthalpy= -2.82472039E+002 eV
  
 +-----------+-----------------+-----------------+------------+-----+ <-- LBFGS
 | Parameter |      value      |    tolerance    |    units   | OK? | <-- LBFGS
 +-----------+-----------------+-----------------+------------+-----+ <-- LBFGS
 |  dE/ion   |   1.300304E-003 |   1.000000E-009 |         eV | No  | <-- LBFGS
 |  |F|max   |   5.727926E-002 |   1.000000E-005 |       eV/A | No  | <-- LBFGS
 |  |dR|max  |   7.104975E-003 |   1.000000E-005 |          A | No  | <-- LBFGS
 |   Smax    |   1.056331E+001 |   1.000000E-005 |        GPa | No  | <-- LBFGS
 +-----------+-----------------+-----------------+------------+-----+ <-- LBFGS
  

================================================================================
 Starting LBFGS iteration          3 ...
================================================================================
  
 +------------+-------------+-------------+-----------------+ <-- min LBFGS
 |    Step    |   lambda    |   F.delta'  |    enthalpy     | <-- min LBFGS
 +------------+-------------+-------------+-----------------+ <-- min LBFGS
 |  previous  |    0.000000 |    0.135434 |     -282.472039 | <-- min LBFGS
 +------------+-------------+-------------+-----------------+ <-- min LBFGS
  

--------------------------------------------------------------------------------
 LBFGS: starting iteration         3 with trial guess (lambda=  1.000000)
--------------------------------------------------------------------------------

                           -------------------------------
                                      Unit Cell
                           -------------------------------
        Real Lattice(A)              Reciprocal Lattice(1/A)
     2.5936811    -0.0000000     0.0000000        2.422497250   0.000000000  -0.000000000
    -0.0000000     4.8153261    -0.0000000        0.000000000   1.304830699   0.000000001
     0.0000000    -0.0000000     2.8994962       -0.000000000   0.000000002   2.166992045

                       Lattice parameters(A)       Cell Angles
                    a =      2.593681          alpha =   90.000000
                    b =      4.815326          beta  =   90.000000
                    c =      2.899496          gamma =   90.000000

                Current cell volume =            36.213027 A**3

                           -------------------------------
                                     Cell Contents
                           -------------------------------

            xxxxxxxxxxxxxxxxxxxxxxxxxxxxxxxxxxxxxxxxxxxxxxxxxxxxxxxxxxxxxxxxx
            x  Element         Atom        Fractional coordinates of atoms  x
            x                 Number           u          v          w      x
            x---------------------------------------------------------------x
            x  H                 1         0.000000   0.003527   0.131299   x
            x  H                 2         0.000000   0.131630   0.454975   x
            x  H                 3        -0.000000   0.266015   0.317561   x
            x  H                 4         0.500000   0.266015   0.182439   x
            x  H                 5         0.500000   0.131630   0.045025   x
            x  H                 6         0.500000   0.003527   0.368701   x
            x  H                 7         0.500000   0.233985   0.682439   x
            x  H                 8         0.500000   0.368370   0.545025   x
            x  H                 9         0.500000   0.496473   0.868701   x
            x  H                10         0.500000   0.733985   0.817561   x
            x  H                11         0.500000   0.868370   0.954975   x
            x  H                12         0.500000   0.996473   0.631299   x
            x  H                13         0.500000   0.766015   0.317561   x
            x  H                14         0.500000   0.631630   0.454975   x
            x  H                15         0.500000   0.503527   0.131299   x
            x  H                16         0.000000   0.766015   0.182439   x
            x  H                17        -0.000000   0.631630   0.045025   x
            x  H                18        -0.000000   0.503527   0.368701   x
            x  H                19         0.000000   0.733985   0.682439   x
            x  H                20        -0.000000   0.868370   0.545025   x
            x  H                21         0.000000   0.996473   0.868701   x
            x  H                22        -0.000000   0.233985   0.817561   x
            x  H                23         0.000000   0.368370   0.954975   x
            x  H                24         0.000000   0.496473   0.631299   x
            xxxxxxxxxxxxxxxxxxxxxxxxxxxxxxxxxxxxxxxxxxxxxxxxxxxxxxxxxxxxxxxxx


------------------------------------------------------------------------ <-- SCF
SCF loop      Energy                           Energy gain       Timer   <-- SCF
                                               per atom          (sec)   <-- SCF
------------------------------------------------------------------------ <-- SCF
Initial  -3.43453217E+002                                       2849.88  <-- SCF
      1  -3.43515153E+002                    2.58065093E-003    2901.10  <-- SCF
      2  -3.43515401E+002                    1.03423117E-005    2955.79  <-- SCF
      3  -3.43505222E+002                   -4.24123193E-004    3012.49  <-- SCF
      4  -3.43505174E+002                   -1.99930369E-006    3070.49  <-- SCF
      5  -3.43505174E+002                   -1.75579938E-008    3125.57  <-- SCF
      6  -3.43505174E+002                   -3.04282244E-010    3182.06  <-- SCF
      7  -3.43505174E+002                    3.70927064E-011    3222.10  <-- SCF
      8  -3.43505174E+002                    1.29100423E-012    3261.31  <-- SCF
      9  -3.43505174E+002                   -1.28899018E-013    3301.53  <-- SCF
------------------------------------------------------------------------ <-- SCF
 
Final energy =  -343.5051738540     eV
(energy not corrected for finite basis set)
 

 ************************************** Forces **************************************
 *                                                                                  *
 *                           Cartesian components (eV/A)                            *
 * -------------------------------------------------------------------------------- *
 *                         x                    y                    z              *
 *                                                                                  *
 * H               1      0.00000              0.01773              0.26454         *
 * H               2     -0.00000              0.12143             -0.05375         *
 * H               3      0.00000             -0.12957              0.04738         *
 * H               4      0.00000             -0.12957             -0.04738         *
 * H               5      0.00000              0.12143              0.05375         *
 * H               6      0.00000              0.01773             -0.26454         *
 * H               7     -0.00000              0.12957             -0.04738         *
 * H               8      0.00000             -0.12143              0.05375         *
 * H               9     -0.00000             -0.01773             -0.26454         *
 * H              10      0.00000              0.12957              0.04738         *
 * H              11     -0.00000             -0.12143             -0.05375         *
 * H              12     -0.00000             -0.01773              0.26454         *
 * H              13     -0.00000             -0.12957              0.04738         *
 * H              14     -0.00000              0.12143             -0.05375         *
 * H              15     -0.00000              0.01773              0.26454         *
 * H              16     -0.00000             -0.12957             -0.04738         *
 * H              17      0.00000              0.12143              0.05375         *
 * H              18      0.00000              0.01773             -0.26454         *
 * H              19      0.00000              0.12957             -0.04738         *
 * H              20      0.00000             -0.12143              0.05375         *
 * H              21     -0.00000             -0.01773             -0.26454         *
 * H              22      0.00000              0.12957              0.04738         *
 * H              23     -0.00000             -0.12143             -0.05375         *
 * H              24     -0.00000             -0.01773              0.26454         *
 *                                                                                  *
 ************************************************************************************

 ***************** Stress Tensor *****************
 *                                               *
 *          Cartesian components (GPa)           *
 * --------------------------------------------- *
 *             x             y             z     *
 *                                               *
 *  x   -274.332573     -0.000000      0.000000  *
 *  y     -0.000000   -271.130310     -0.000009  *
 *  z      0.000000     -0.000009   -277.020843  *
 *                                               *
 *  Pressure:  274.1612                          *
 *                                               *
 *************************************************
  
 +------------+-------------+-------------+-----------------+ <-- min LBFGS
 |    Step    |   lambda    |   F.delta'  |    enthalpy     | <-- min LBFGS
 +------------+-------------+-------------+-----------------+ <-- min LBFGS
 |  previous  |    0.000000 |    0.135434 |     -282.472039 | <-- min LBFGS
 | trial step |    1.000000 |   -0.099696 |     -282.478711 | <-- min LBFGS
 +------------+-------------+-------------+-----------------+ <-- min LBFGS
  

--------------------------------------------------------------------------------
 LBFGS: improving iteration         3 with line minimization (lambda=  0.575996)
--------------------------------------------------------------------------------

                           -------------------------------
                                      Unit Cell
                           -------------------------------
        Real Lattice(A)              Reciprocal Lattice(1/A)
     2.6011746    -0.0000000     0.0000000        2.415518448   0.000000000  -0.000000000
    -0.0000000     4.8282965    -0.0000000        0.000000000   1.301325482   0.000000000
     0.0000000    -0.0000000     2.9084722       -0.000000000   0.000000001   2.160304394

                       Lattice parameters(A)       Cell Angles
                    a =      2.601175          alpha =   90.000000
                    b =      4.828297          beta  =   90.000000
                    c =      2.908472          gamma =   90.000000

                Current cell volume =            36.528208 A**3

                           -------------------------------
                                     Cell Contents
                           -------------------------------

            xxxxxxxxxxxxxxxxxxxxxxxxxxxxxxxxxxxxxxxxxxxxxxxxxxxxxxxxxxxxxxxxx
            x  Element         Atom        Fractional coordinates of atoms  x
            x                 Number           u          v          w      x
            x---------------------------------------------------------------x
            x  H                 1        -0.000000   0.003677   0.131772   x
            x  H                 2         0.000000   0.132259   0.454650   x
            x  H                 3        -0.000000   0.265930   0.317689   x
            x  H                 4         0.500000   0.265930   0.182311   x
            x  H                 5         0.500000   0.132259   0.045350   x
            x  H                 6         0.500000   0.003677   0.368228   x
            x  H                 7         0.500000   0.234070   0.682311   x
            x  H                 8         0.500000   0.367741   0.545350   x
            x  H                 9         0.500000   0.496323   0.868228   x
            x  H                10         0.500000   0.734070   0.817689   x
            x  H                11         0.500000   0.867741   0.954650   x
            x  H                12         0.500000   0.996323   0.631772   x
            x  H                13         0.500000   0.765930   0.317689   x
            x  H                14         0.500000   0.632259   0.454650   x
            x  H                15         0.500000   0.503677   0.131772   x
            x  H                16         0.000000   0.765930   0.182311   x
            x  H                17        -0.000000   0.632259   0.045350   x
            x  H                18        -0.000000   0.503677   0.368228   x
            x  H                19         0.000000   0.734070   0.682311   x
            x  H                20        -0.000000   0.867741   0.545350   x
            x  H                21        -0.000000   0.996323   0.868228   x
            x  H                22        -0.000000   0.234070   0.817689   x
            x  H                23         0.000000   0.367741   0.954650   x
            x  H                24         0.000000   0.496323   0.631772   x
            xxxxxxxxxxxxxxxxxxxxxxxxxxxxxxxxxxxxxxxxxxxxxxxxxxxxxxxxxxxxxxxxx


------------------------------------------------------------------------ <-- SCF
SCF loop      Energy                           Energy gain       Timer   <-- SCF
                                               per atom          (sec)   <-- SCF
------------------------------------------------------------------------ <-- SCF
Initial  -3.44034530E+002                                       3406.50  <-- SCF
      1  -3.44045691E+002                    4.65050946E-004    3460.33  <-- SCF
      2  -3.44045736E+002                    1.85284670E-006    3518.38  <-- SCF
      3  -3.44043925E+002                   -7.54562483E-005    3575.19  <-- SCF
      4  -3.44043916E+002                   -3.70095454E-007    3632.98  <-- SCF
      5  -3.44043916E+002                   -3.18186621E-009    3690.45  <-- SCF
      6  -3.44043916E+002                   -4.03574769E-011    3747.01  <-- SCF
      7  -3.44043916E+002                    7.27876641E-012    3787.86  <-- SCF
      8  -3.44043916E+002                    2.35643517E-013    3828.10  <-- SCF
------------------------------------------------------------------------ <-- SCF
 
Final energy =  -344.0439160435     eV
(energy not corrected for finite basis set)
 

 ************************************** Forces **************************************
 *                                                                                  *
 *                           Cartesian components (eV/A)                            *
 * -------------------------------------------------------------------------------- *
 *                         x                    y                    z              *
 *                                                                                  *
 * H               1      0.00000              0.00343              0.12642         *
 * H               2     -0.00000              0.05378             -0.03001         *
 * H               3      0.00000             -0.08141              0.03051         *
 * H               4      0.00000             -0.08141             -0.03051         *
 * H               5     -0.00000              0.05378              0.03001         *
 * H               6      0.00000              0.00343             -0.12642         *
 * H               7     -0.00000              0.08141             -0.03051         *
 * H               8      0.00000             -0.05378              0.03001         *
 * H               9     -0.00000             -0.00343             -0.12642         *
 * H              10      0.00000              0.08141              0.03051         *
 * H              11     -0.00000             -0.05378             -0.03001         *
 * H              12     -0.00000             -0.00343              0.12642         *
 * H              13     -0.00000             -0.08141              0.03051         *
 * H              14     -0.00000              0.05378             -0.03001         *
 * H              15      0.00000              0.00343              0.12642         *
 * H              16     -0.00000             -0.08141             -0.03051         *
 * H              17      0.00000              0.05378              0.03001         *
 * H              18      0.00000              0.00343             -0.12642         *
 * H              19     -0.00000              0.08141             -0.03051         *
 * H              20      0.00000             -0.05378              0.03001         *
 * H              21     -0.00000             -0.00343             -0.12642         *
 * H              22      0.00000              0.08141              0.03051         *
 * H              23     -0.00000             -0.05378             -0.03001         *
 * H              24     -0.00000             -0.00343              0.12642         *
 *                                                                                  *
 ************************************************************************************

 ***************** Stress Tensor *****************
 *                                               *
 *          Cartesian components (GPa)           *
 * --------------------------------------------- *
 *             x             y             z     *
 *                                               *
 *  x   -268.556526     -0.000000      0.000000  *
 *  y     -0.000000   -266.627879     -0.000005  *
 *  z      0.000000     -0.000005   -269.430162  *
 *                                               *
 *  Pressure:  268.2049                          *
 *                                               *
 *************************************************
  
 +------------+-------------+-------------+-----------------+ <-- min LBFGS
 |    Step    |   lambda    |   F.delta'  |    enthalpy     | <-- min LBFGS
 +------------+-------------+-------------+-----------------+ <-- min LBFGS
 |  previous  |    0.000000 |    0.135434 |     -282.472039 | <-- min LBFGS
 | trial step |    1.000000 |   -0.099696 |     -282.478711 | <-- min LBFGS
 |  line step |    0.575996 |    0.000750 |     -282.486308 | <-- min LBFGS
 +------------+-------------+-------------+-----------------+ <-- min LBFGS
  
 LBFGS: finished iteration     3 with enthalpy= -2.82486308E+002 eV
  
 +-----------+-----------------+-----------------+------------+-----+ <-- LBFGS
 | Parameter |      value      |    tolerance    |    units   | OK? | <-- LBFGS
 +-----------+-----------------+-----------------+------------+-----+ <-- LBFGS
 |  dE/ion   |   5.945452E-004 |   1.000000E-009 |         eV | No  | <-- LBFGS
 |  |F|max   |   1.264679E-001 |   1.000000E-005 |       eV/A | No  | <-- LBFGS
 |  |dR|max  |   4.316089E-003 |   1.000000E-005 |          A | No  | <-- LBFGS
 |   Smax    |   3.372121E+000 |   1.000000E-005 |        GPa | No  | <-- LBFGS
 +-----------+-----------------+-----------------+------------+-----+ <-- LBFGS
  

================================================================================
 Starting LBFGS iteration          4 ...
================================================================================
  
 +------------+-------------+-------------+-----------------+ <-- min LBFGS
 |    Step    |   lambda    |   F.delta'  |    enthalpy     | <-- min LBFGS
 +------------+-------------+-------------+-----------------+ <-- min LBFGS
 |  previous  |    0.000000 |    0.055992 |     -282.486308 | <-- min LBFGS
 +------------+-------------+-------------+-----------------+ <-- min LBFGS
  

--------------------------------------------------------------------------------
 LBFGS: starting iteration         4 with trial guess (lambda=  1.000000)
--------------------------------------------------------------------------------

                           -------------------------------
                                      Unit Cell
                           -------------------------------
        Real Lattice(A)              Reciprocal Lattice(1/A)
     2.5899766    -0.0000000    -0.0000000        2.425962195   0.000000000   0.000000000
    -0.0000000     4.8042685     0.0000000        0.000000000   1.307833915  -0.000000003
    -0.0000000     0.0000000     2.8982183        0.000000000  -0.000000004   2.167947569

                       Lattice parameters(A)       Cell Angles
                    a =      2.589977          alpha =   90.000000
                    b =      4.804269          beta  =   90.000000
                    c =      2.898218          gamma =   90.000000

                Current cell volume =            36.062365 A**3

                           -------------------------------
                                     Cell Contents
                           -------------------------------

            xxxxxxxxxxxxxxxxxxxxxxxxxxxxxxxxxxxxxxxxxxxxxxxxxxxxxxxxxxxxxxxxx
            x  Element         Atom        Fractional coordinates of atoms  x
            x                 Number           u          v          w      x
            x---------------------------------------------------------------x
            x  H                 1         0.000000   0.003584   0.136229   x
            x  H                 2        -0.000000   0.132238   0.454429   x
            x  H                 3         0.000000   0.264697   0.318231   x
            x  H                 4         0.500000   0.264697   0.181769   x
            x  H                 5         0.500000   0.132238   0.045571   x
            x  H                 6         0.500000   0.003584   0.363771   x
            x  H                 7         0.500000   0.235303   0.681769   x
            x  H                 8         0.500000   0.367762   0.545571   x
            x  H                 9         0.500000   0.496416   0.863771   x
            x  H                10         0.500000   0.735303   0.818231   x
            x  H                11         0.500000   0.867762   0.954429   x
            x  H                12         0.500000   0.996416   0.636229   x
            x  H                13         0.500000   0.764697   0.318231   x
            x  H                14         0.500000   0.632238   0.454429   x
            x  H                15         0.500000   0.503584   0.136229   x
            x  H                16         0.000000   0.764697   0.181769   x
            x  H                17        -0.000000   0.632238   0.045571   x
            x  H                18        -0.000000   0.503584   0.363771   x
            x  H                19         0.000000   0.735303   0.681769   x
            x  H                20        -0.000000   0.867762   0.545571   x
            x  H                21        -0.000000   0.996416   0.863771   x
            x  H                22         0.000000   0.235303   0.818231   x
            x  H                23         0.000000   0.367762   0.954429   x
            x  H                24         0.000000   0.496416   0.636229   x
            xxxxxxxxxxxxxxxxxxxxxxxxxxxxxxxxxxxxxxxxxxxxxxxxxxxxxxxxxxxxxxxxx


------------------------------------------------------------------------ <-- SCF
SCF loop      Energy                           Energy gain       Timer   <-- SCF
                                               per atom          (sec)   <-- SCF
------------------------------------------------------------------------ <-- SCF
Initial  -3.43106882E+002                                       3938.12  <-- SCF
      1  -3.43241287E+002                    5.60018285E-003    3989.58  <-- SCF
      2  -3.43241822E+002                    2.22806791E-005    4046.51  <-- SCF
      3  -3.43228493E+002                   -5.55335292E-004    4104.30  <-- SCF
      4  -3.43228273E+002                   -9.17417346E-006    4162.16  <-- SCF
      5  -3.43228272E+002                   -4.57622852E-008    4218.49  <-- SCF
      6  -3.43228272E+002                    1.65997766E-010    4274.87  <-- SCF
      7  -3.43228272E+002                    2.91694449E-011    4314.19  <-- SCF
      8  -3.43228272E+002                    2.46116562E-012    4353.19  <-- SCF
[...]
      H     1      S                    0.999
      H     2      S                    1.026
      H     3      S                    0.975
      H     4      S                    0.975
      H     5      S                    1.026
      H     6      S                    0.999
      H     7      S                    0.975
      H     8      S                    1.026
      H     9      S                    0.999
      H    10      S                    0.975
      H    11      S                    1.026
      H    12      S                    0.999
      H    13      S                    0.975
      H    14      S                    1.026
      H    15      S                    0.999
      H    16      S                    0.975
      H    17      S                    1.026
      H    18      S                    0.999
      H    19      S                    0.975
      H    20      S                    1.026
      H    21      S                    0.999
      H    22      S                    0.975
      H    23      S                    1.026
      H    24      S                    0.999
  -------------------------------------------
                           Total:      24.000
  -------------------------------------------

     Atomic Populations (Mulliken)
     -----------------------------
Species          Ion     s      p      d      f     Total  Charge (e)
=====================================================================
  H               1     1.00   0.00   0.00   0.00   1.00     0.00
  H               2     1.03   0.00   0.00   0.00   1.03    -0.03
  H               3     0.97   0.00   0.00   0.00   0.97     0.03
  H               4     0.97   0.00   0.00   0.00   0.97     0.03
  H               5     1.03   0.00   0.00   0.00   1.03    -0.03
  H               6     1.00   0.00   0.00   0.00   1.00     0.00
  H               7     0.97   0.00   0.00   0.00   0.97     0.03
  H               8     1.03   0.00   0.00   0.00   1.03    -0.03
  H               9     1.00   0.00   0.00   0.00   1.00     0.00
  H              10     0.97   0.00   0.00   0.00   0.97     0.03
  H              11     1.03   0.00   0.00   0.00   1.03    -0.03
  H              12     1.00   0.00   0.00   0.00   1.00     0.00
  H              13     0.97   0.00   0.00   0.00   0.97     0.03
  H              14     1.03   0.00   0.00   0.00   1.03    -0.03
  H              15     1.00   0.00   0.00   0.00   1.00     0.00
  H              16     0.97   0.00   0.00   0.00   0.97     0.03
  H              17     1.03   0.00   0.00   0.00   1.03    -0.03
  H              18     1.00   0.00   0.00   0.00   1.00     0.00
  H              19     0.97   0.00   0.00   0.00   0.97     0.03
  H              20     1.03   0.00   0.00   0.00   1.03    -0.03
  H              21     1.00   0.00   0.00   0.00   1.00     0.00
  H              22     0.97   0.00   0.00   0.00   0.97     0.03
  H              23     1.03   0.00   0.00   0.00   1.03    -0.03
  H              24     1.00   0.00   0.00   0.00   1.00     0.00
=====================================================================

                 Bond                   Population      Length (A)
======================================================================
              H 22 -- H 23                   1.69        0.75548
              H 7  -- H 8                    1.69        0.75548
              H 19 -- H 20                   1.69        0.75548
              H 13 -- H 14                   1.69        0.75548
              H 10 -- H 11                   1.69        0.75548
              H 2  -- H 3                    1.69        0.75548
              H 16 -- H 17                   1.69        0.75548
              H 4  -- H 5                    1.69        0.75548
              H 1  -- H 21                   1.47        0.77124
              H 6  -- H 12                   1.47        0.77124
              H 18 -- H 24                   1.47        0.77124
              H 9  -- H 15                   1.47        0.77124
              H 14 -- H 15                   0.16        1.12579
              H 8  -- H 9                    0.16        1.12579
              H 11 -- H 12                   0.16        1.12579
              H 5  -- H 6                    0.16        1.12579
              H 17 -- H 18                   0.16        1.12579
              H 20 -- H 21                   0.16        1.12579
              H 23 -- H 24                   0.16        1.12579
              H 1  -- H 2                    0.16        1.12579
              H 7  -- H 12                   0.23        1.15717
              H 6  -- H 13                   0.23        1.15717
              H 4  -- H 15                   0.23        1.15717
              H 9  -- H 10                   0.23        1.15717
              H 3  -- H 18                   0.23        1.15717
              H 19 -- H 24                   0.23        1.15717
              H 1  -- H 16                   0.23        1.15717
              H 21 -- H 22                   0.23        1.15717
              H 10 -- H 14                  -0.08        1.16488
              H 4  -- H 8                   -0.08        1.16488
              H 5  -- H 7                   -0.08        1.16488
              H 11 -- H 13                  -0.08        1.16488
              H 16 -- H 20                  -0.08        1.16488
              H 17 -- H 19                  -0.08        1.16488
              H 2  -- H 22                  -0.08        1.16488
              H 3  -- H 23                  -0.08        1.16488
              H 2  -- H 20                  -0.04        1.30084
              H 17 -- H 23                  -0.04        1.30084
              H 5  -- H 11                  -0.04        1.30084
              H 8  -- H 14                  -0.04        1.30084
              H 10 -- H 19                   0.03        1.35792
              H 13 -- H 16                   0.03        1.35792
              H 7  -- H 22                   0.03        1.35792
              H 3  -- H 4                    0.03        1.35792
              H 18 -- H 23                  -0.27        1.36378
              H 2  -- H 21                  -0.27        1.36378
              H 17 -- H 24                  -0.27        1.36378
              H 1  -- H 20                  -0.27        1.36378
              H 5  -- H 12                  -0.27        1.36378
              H 8  -- H 15                  -0.27        1.36378
              H 9  -- H 14                  -0.27        1.36378
              H 6  -- H 11                  -0.27        1.36378
              H 1  -- H 3                   -0.09        1.37394
              H 19 -- H 21                  -0.09        1.37394
              H 7  -- H 9                   -0.09        1.37394
              H 13 -- H 15                  -0.09        1.37394
              H 22 -- H 24                  -0.09        1.37394
              H 16 -- H 18                  -0.09        1.37394
              H 4  -- H 6                   -0.09        1.37394
              H 10 -- H 12                  -0.09        1.37394
              H 1  -- H 22                  -0.23        1.44521
              H 16 -- H 21                  -0.23        1.44521
              H 4  -- H 9                   -0.23        1.44521
              H 3  -- H 24                  -0.23        1.44521
              H 10 -- H 15                  -0.23        1.44521
              H 18 -- H 19                  -0.23        1.44521
              H 6  -- H 7                   -0.23        1.44521
              H 12 -- H 13                  -0.23        1.44521
              H 16 -- H 19                  -0.31        1.46045
              H 3  -- H 22                  -0.31        1.46045
              H 4  -- H 7                   -0.31        1.46045
              H 10 -- H 13                  -0.31        1.46045
              H 1  -- H 5                   -0.14        1.46328
              H 11 -- H 21                  -0.14        1.46328
              H 9  -- H 23                  -0.14        1.46328
              H 15 -- H 17                  -0.14        1.46328
              H 8  -- H 24                  -0.14        1.46328
              H 2  -- H 6                   -0.14        1.46328
              H 14 -- H 18                  -0.14        1.46328
              H 12 -- H 20                  -0.14        1.46328
              H 15 -- H 18                  -0.20        1.46769
              H 12 -- H 21                  -0.20        1.46769
              H 9  -- H 24                  -0.20        1.46769
              H 1  -- H 6                   -0.20        1.46769
              H 10 -- H 17                  -0.21        1.53923
              H 13 -- H 20                  -0.21        1.53923
              H 2  -- H 7                   -0.21        1.53923
              H 4  -- H 23                  -0.21        1.53923
              H 14 -- H 19                  -0.21        1.53923
              H 3  -- H 8                   -0.21        1.53923
              H 11 -- H 16                  -0.21        1.53923
              H 5  -- H 22                  -0.21        1.53923
              H 2  -- H 12                  -0.15        1.54234
              H 6  -- H 20                  -0.15        1.54234
              H 9  -- H 17                  -0.15        1.54234
              H 15 -- H 23                  -0.15        1.54234
              H 5  -- H 21                  -0.15        1.54234
              H 14 -- H 24                  -0.15        1.54234
              H 8  -- H 18                  -0.15        1.54234
              H 1  -- H 11                  -0.15        1.54234
              H 11 -- H 19                  -0.36        1.65222
              H 8  -- H 22                  -0.36        1.65222
              H 3  -- H 5                   -0.36        1.65222
              H 14 -- H 16                  -0.36        1.65222
              H 7  -- H 23                  -0.36        1.65222
              H 13 -- H 17                  -0.36        1.65222
              H 10 -- H 20                  -0.36        1.65222
              H 2  -- H 4                   -0.36        1.65222
              H 4  -- H 22                  -0.39        1.68227
              H 3  -- H 7                   -0.39        1.68227
              H 10 -- H 16                  -0.39        1.68227
              H 13 -- H 19                  -0.39        1.68227
              H 14 -- H 20                  -0.25        1.74640
              H 2  -- H 8                   -0.25        1.74640
              H 11 -- H 17                  -0.25        1.74640
              H 5  -- H 23                  -0.25        1.74640
              H 11 -- H 20                  -0.65        1.76412
              H 8  -- H 23                  -0.65        1.76412
              H 14 -- H 17                  -0.65        1.76412
              H 2  -- H 5                   -0.65        1.76412
              H 8  -- H 12                  -0.17        1.80762
              H 6  -- H 14                  -0.17        1.80762
              H 9  -- H 11                  -0.17        1.80762
              H 5  -- H 15                  -0.17        1.80762
              H 20 -- H 24                  -0.17        1.80762
              H 2  -- H 18                  -0.17        1.80762
              H 21 -- H 23                  -0.17        1.80762
              H 1  -- H 17                  -0.17        1.80762
              H 4  -- H 18                  -0.14        1.81566
              H 10 -- H 24                  -0.14        1.81566
              H 7  -- H 21                  -0.14        1.81566
              H 1  -- H 13                  -0.14        1.81566
              H 6  -- H 16                  -0.14        1.81566
              H 12 -- H 22                  -0.14        1.81566
              H 3  -- H 15                  -0.14        1.81566
              H 9  -- H 19                  -0.14        1.81566
              H 9  -- H 22                  -0.31        1.81842
              H 15 -- H 16                  -0.31        1.81842
              H 3  -- H 6                   -0.31        1.81842
              H 12 -- H 19                  -0.31        1.81842
              H 1  -- H 4                   -0.31        1.81842
              H 10 -- H 21                  -0.31        1.81842
              H 7  -- H 24                  -0.31        1.81842
              H 13 -- H 18                  -0.31        1.81842
              H 1  -- H 23                  -0.29        1.83413
              H 17 -- H 21                  -0.29        1.83413
              H 11 -- H 15                  -0.29        1.83413
              H 5  -- H 9                   -0.29        1.83413
              H 6  -- H 8                   -0.29        1.83413
              H 12 -- H 14                  -0.29        1.83413
              H 18 -- H 20                  -0.29        1.83413
              H 2  -- H 24                  -0.29        1.83413
              H 6  -- H 10                  -0.41        1.84026
              H 4  -- H 12                  -0.41        1.84026
              H 9  -- H 13                  -0.41        1.84026
              H 7  -- H 15                  -0.41        1.84026
              H 1  -- H 19                  -0.41        1.84026
              H 18 -- H 22                  -0.41        1.84026
              H 3  -- H 21                  -0.41        1.84026
              H 16 -- H 24                  -0.41        1.84026
              H 11 -- H 14                  -0.39        1.84552
              H 5  -- H 8                   -0.39        1.84552
              H 17 -- H 20                  -0.39        1.84552
              H 2  -- H 23                  -0.39        1.84552
              H 5  -- H 13                  -0.10        1.94069
              H 7  -- H 11                  -0.10        1.94069
              H 8  -- H 10                  -0.10        1.94069
              H 4  -- H 14                  -0.10        1.94069
              H 2  -- H 16                  -0.10        1.94069
              H 19 -- H 23                  -0.10        1.94069
              H 3  -- H 17                  -0.10        1.94069
              H 20 -- H 22                  -0.10        1.94069
              H 15 -- H 24                  -0.48        1.94961
              H 1  -- H 12                  -0.48        1.94961
              H 9  -- H 18                  -0.48        1.94961
              H 6  -- H 21                  -0.48        1.94961
              H 2  -- H 19                  -0.13        2.02618
              H 17 -- H 22                  -0.13        2.02618
              H 3  -- H 20                  -0.13        2.02618
              H 16 -- H 23                  -0.13        2.02618
              H 5  -- H 10                  -0.13        2.02618
              H 7  -- H 14                  -0.13        2.02618
              H 8  -- H 13                  -0.13        2.02618
              H 4  -- H 11                  -0.13        2.02618
              H 3  -- H 12                  -0.24        2.04874
              H 6  -- H 19                  -0.24        2.04874
              H 15 -- H 22                  -0.24        2.04874
              H 9  -- H 16                  -0.24        2.04874
              H 7  -- H 18                  -0.24        2.04874
              H 13 -- H 24                  -0.24        2.04874
              H 4  -- H 21                  -0.24        2.04874
              H 1  -- H 10                  -0.24        2.04874
              H 1  -- H 7                   -0.19        2.15740
              H 13 -- H 21                  -0.19        2.15740
              H 4  -- H 24                  -0.19        2.15740
              H 10 -- H 18                  -0.19        2.15740
              H 3  -- H 9                   -0.19        2.15740
              H 15 -- H 19                  -0.19        2.15740
              H 12 -- H 16                  -0.19        2.15740
              H 6  -- H 22                  -0.19        2.15740
              H 10 -- H 23                  -0.04        2.23242
              H 4  -- H 17                  -0.04        2.23242
              H 2  -- H 13                  -0.04        2.23242
              H 5  -- H 16                  -0.04        2.23242
              H 7  -- H 20                  -0.04        2.23242
              H 11 -- H 22                  -0.04        2.23242
              H 8  -- H 19                  -0.04        2.23242
              H 3  -- H 14                  -0.04        2.23242
              H 2  -- H 11                  -0.07        2.32911
              H 5  -- H 20                  -0.07        2.32911
              H 8  -- H 17                  -0.07        2.32911
              H 14 -- H 23                  -0.07        2.32911
              H 11 -- H 24                   0.07        2.40212
              H 5  -- H 18                   0.07        2.40212
              H 8  -- H 21                   0.07        2.40212
              H 1  -- H 14                   0.07        2.40212
              H 12 -- H 23                   0.07        2.40212
              H 6  -- H 17                   0.07        2.40212
              H 9  -- H 20                   0.07        2.40212
              H 2  -- H 15                   0.07        2.40212
              H 7  -- H 10                  -0.06        2.44423
              H 4  -- H 13                  -0.06        2.44423
              H 3  -- H 16                  -0.06        2.44423
              H 19 -- H 22                  -0.06        2.44423
              H 15 -- H 20                   0.07        2.49432
              H 2  -- H 9                    0.07        2.49432
              H 14 -- H 21                   0.07        2.49432
              H 1  -- H 8                    0.07        2.49432
              H 12 -- H 17                   0.07        2.49432
              H 6  -- H 23                   0.07        2.49432
              H 11 -- H 18                   0.07        2.49432
              H 5  -- H 24                   0.07        2.49432
              H 4  -- H 10                  -0.03        2.50212
              H 16 -- H 22                  -0.03        2.50212
              H 7  -- H 13                  -0.03        2.50212
              H 3  -- H 19                  -0.03        2.50212
              H 9  -- H 12                   0.00        2.50688
              H 1  -- H 18                   0.00        2.50688
              H 6  -- H 15                   0.00        2.50688
              H 21 -- H 24                   0.00        2.50688
              H 2  -- H 10                   0.10        2.54355
              H 7  -- H 17                   0.10        2.54355
              H 13 -- H 23                   0.10        2.54355
              H 4  -- H 20                   0.10        2.54355
              H 5  -- H 19                   0.10        2.54355
              H 3  -- H 11                   0.10        2.54355
              H 14 -- H 22                   0.10        2.54355
              H 8  -- H 16                   0.10        2.54355
======================================================================


Writing analysis data to Cmca-12.castep_bin

Writing model to Cmca-12.check
 
 A BibTeX formatted list of references used in this run has been written to 
 Cmca-12.bib
 
Initialisation time =      9.16 s
Calculation time    =  15608.86 s
Finalisation time   =     77.49 s
Total time          =  15695.52 s
Peak Memory Use     = 955564 kB
  
Overall parallel efficiency rating: Excellent (91%)                             
  
Data was distributed by:-
k-point (36-way); efficiency rating: Excellent (91%)                            
