 +-------------------------------------------------+
 |                                                 |
 |      CCC   AA    SSS  TTTTT  EEEEE  PPPP        |
 |     C     A  A  S       T    E      P   P       |
 |     C     AAAA   SS     T    EEE    PPPP        |
 |     C     A  A     S    T    E      P           |
 |      CCC  A  A  SSS     T    EEEEE  P           |
 |                                                 |
 +-------------------------------------------------+
 |                                                 |
 | Welcome to Academic Release CASTEP version 18.1 |          
 | Ab Initio Total Energy Program                  |
 |                                                 |
 | Authors:                                        |
 | M. Segall, M. Probert, C. Pickard, P. Hasnip,   |
 | S. Clark, K. Refson, J. R. Yates, M. Payne      |
 |                                                 |
 | Contributors:                                   |
 | P. Lindan, P. Haynes, J. White, V. Milman,      |
 | N. Govind, M. Gibson, P. Tulip, V. Cocula,      |
 | B. Montanari, D. Quigley, M. Glover,            |
 | L. Bernasconi, A. Perlov, M. Plummer,           |
 | E. McNellis, J. Meyer, J. Gale, D. Jochym       |
 | J. Aarons, B. Walker, R. Gillen, D. Jones       |
 | T. Green, I. J. Bush, C. J. Armstrong,          |
 | E. J. Higgins, E. L. Brown, M. S. McFly,        |
 | J. Wilkins, B-C. Shih, P. J. P. Byrne           |
 |                                                 |
 | Copyright (c) 2000 - 2017                       |
 |                                                 |
 |     Distributed under the terms of an           |
 |     Agreement between the United Kingdom        |
 |     Car-Parrinello (UKCP) Consortium,           |
 |     Daresbury Laboratory and Accelrys, Inc.     |
 |                                                 |
 | Please cite                                     |
 |                                                 |
 |     "First principles methods using CASTEP"     |
 |                                                 |
 |         Zeitschrift fuer Kristallographie       |
 |           220(5-6) pp. 567-570 (2005)           |
 |                                                 |
 | S. J. Clark, M. D. Segall, C. J. Pickard,       |
 | P. J. Hasnip, M. J. Probert, K. Refson,         |
 | M. C. Payne                                     |
 |                                                 |
 |       in all publications arising from          |
 |              your use of CASTEP                 |
 |                                                 |
 +-------------------------------------------------+


 Compiled for linux_x86_64_gfortran4.8 on Thu, 19 Jul 2018 15:42:32 +0100
 from code version 70483bd0ad64+  Sun, 10 Dec 2017 12:18:29 +0000
 Compiler: GNU Fortran 4.8.5; Optimisation: fast
 MATHLIBS: Intel MKL(2018.0.0) (LAPACK version 3.7.0)
 FFT Lib : mkl
 Fundamental constants values: CODATA 2014

 Run started: Sat, 29 Aug 2020 02:16:23 +0100

 Atomic calculation performed for H: 1s1

 Converged in 41 iterations to an ae energy of -12.488 eV

   ============================================================                
   | Pseudopotential Report - Date of generation 29-08-2020   |                
   ------------------------------------------------------------                
   | Element: H Ionic charge:  1.00 Level of theory: PBE      |                
   | Atomic Solver: Koelling-Harmon                           |                
   |                                                          |                
   |               Reference Electronic Structure             |                
   |         Orbital         Occupation         Energy        |                
   |            1s              1.000           -0.239        |                
   |                                                          |                
   |                 Pseudopotential Definition               |                
   |        Beta     l      e      Rc     scheme   norm       |                
   |          1      0   -0.239   0.599     qc      0         |                
   |          2      0    0.250   0.599     qc      0         |                
   |         loc     1    0.000   0.599     pn      0         |                
   |                                                          |                
   | Augmentation charge Rinner = 0.421                       |                
   | No partial core correction                               |                
   ------------------------------------------------------------                
   | "1|0.6|13|15|17|10(qc=8)"                                |                
   ------------------------------------------------------------                
   |      Author: Chris J. Pickard, Cambridge University      |                
   ============================================================                

 Pseudo atomic calculation performed for H 1s1

 Converged in 24 iterations to a total energy of -12.4868 eV

 Calculation parallelised over 36 processes.
 Data is distributed by k-point(36-way)

 ************************************ Title ************************************
 

 ***************************** General Parameters ******************************
  
 output verbosity                               : normal  (1)
 write checkpoint data to                       : Cmca-12.check
 type of calculation                            : geometry optimization
 stress calculation                             : on
 density difference calculation                 : off
 electron localisation func (ELF) calculation   : off
 Hirshfeld analysis                             : off
 unlimited duration calculation
 timing information                             : on
 memory usage estimate                          : on
 write extra output files                       : on
 write final potential to formatted file        : off
 write final density to formatted file          : off
 write structure in CELL formatted file         : on
 write BibTeX reference list                    : on
 write OTFG pseudopotential files               : on
 write electrostatic potential file             : on
 write bands file                               : on
 checkpoint writing                             : both castep_bin and check files
  
 output         length unit                     : A
 output           mass unit                     : amu
 output           time unit                     : ps
 output         charge unit                     : e
 output           spin unit                     : hbar/2
 output         energy unit                     : eV
 output          force unit                     : eV/A
 output       velocity unit                     : A/ps
 output       pressure unit                     : GPa
 output     inv_length unit                     : 1/A
 output      frequency unit                     : cm-1
 output force constant unit                     : eV/A**2
 output         volume unit                     : A**3
 output   IR intensity unit                     : (D/A)**2/amu
 output         dipole unit                     : D
 output         efield unit                     : eV/A/e
 output        entropy unit                     : J/mol/K
  
 wavefunctions paging                           : none
 random number generator seed                   : randomised (21624288)
 data distribution                              : optimal for this architecture
 optimization strategy                          : maximize speed(+++)

 *********************** Exchange-Correlation Parameters ***********************
  
 using functional                               : Perdew Burke Ernzerhof
 relativistic treatment                         : Koelling-Harmon
 DFT+D: Semi-empirical dispersion correction    : off

 ************************* Pseudopotential Parameters **************************
  
 pseudopotential representation                 : reciprocal space
 <beta|phi> representation                      : reciprocal space
 spin-orbit coupling                            : off

 **************************** Basis Set Parameters *****************************
  
 plane wave basis set cut-off                   :  1600.0000   eV
 size of standard grid                          :     2.0000
 size of   fine   gmax                          :    40.9853   1/A
 finite basis set correction                    : automatic
 number of sample energies                      :          3
           sample  spacing                      :     5.0000   eV

 **************************** Electronic Parameters ****************************
  
 number of  electrons                           :  24.00    
 net charge of system                           :  0.000    
 treating system as non-spin-polarized
 number of bands                                :         12

 ********************* Electronic Minimization Parameters **********************
  
 Method: Treating system as non-metallic,
         and number of  SD  steps               :          1
         and number of  CG  steps               :          4
  
 total energy / atom convergence tol.           : 0.1000E-10   eV
 eigen-energy convergence tolerance             : 0.2000E-10   eV
 max force / atom convergence tol.              : ignored
 convergence tolerance window                   :          3   cycles
 max. number of SCF cycles                      :        200
 periodic dipole correction                     : NONE

 ************************** Density Mixing Parameters **************************
  
 density-mixing scheme                          : Broyden
 max. length of mixing history                  :         20
 charge density mixing amplitude                : 0.8000    
 cut-off energy for mixing                      :  1600.       eV

 *********************** Population Analysis Parameters ************************
  
 Population analysis with cutoff                :  3.000       A
 Population analysis output                     : summary and pdos components

 ********************** Geometry Optimization Parameters ***********************
  
 optimization method                            : LBFGS
 max. no. of LBFGS updates                      : unbounded
 variable cell method                           : fixed basis quality
 max. number of steps                           :        200
 estimated bulk modulus                         :  500.0       GPa
 estimated <frequency>                          :  1668.       cm-1
 geom line minimiser                            : on
 with line minimiser tolerance                  :     0.4000
 total energy convergence tolerance             : 0.1000E-08   eV/atom
        max ionic |force| tolerance             : 0.1000E-04   eV/A
 max ionic |displacement| tolerance             : 0.1000E-04   A
   max |stress component| tolerance             : 0.1000E-04   GPa
 convergence tolerance window                   :          2   steps
 backup results every                           :      14400   seconds
 write geom trajectory file                     : on

 *******************************************************************************
  

                           -------------------------------
                                      Unit Cell
                           -------------------------------
        Real Lattice(A)                      Reciprocal Lattice(1/A)
     2.6925404    -0.0000000     0.0000000        2.333552845   0.000000000  -0.000000000
    -0.0000000     4.9918110    -0.0000000        0.000000000   1.258698549   0.000000001
     0.0000000    -0.0000000     3.0032320       -0.000000000   0.000000002   2.092141163

                       Lattice parameters(A)       Cell Angles
                    a =      2.692540          alpha =   90.000000
                    b =      4.991811          beta  =   90.000000
                    c =      3.003232          gamma =   90.000000

                       Current cell volume =            40.365399       A**3
                                   density =             0.599290   AMU/A**3
                                           =             0.995144     g/cm^3

                           -------------------------------
                                     Cell Contents
                           -------------------------------
                         Total number of ions in cell =   24
                      Total number of species in cell =    1
                        Max number of any one species =   24

            xxxxxxxxxxxxxxxxxxxxxxxxxxxxxxxxxxxxxxxxxxxxxxxxxxxxxxxxxxxx
            x  Element    Atom        Fractional coordinates of atoms  x
            x            Number           u          v          w      x
            x----------------------------------------------------------x
            x  H            1         0.000000   0.001377   0.127786   x 
            x  H            2        -0.000000   0.132673   0.455063   x 
            x  H            3         0.000000   0.260439   0.321101   x 
            x  H            4         0.500000   0.260439   0.178899   x 
            x  H            5         0.500000   0.132673   0.044937   x 
            x  H            6         0.500000   0.001377   0.372214   x 
            x  H            7         0.500000   0.239561   0.678899   x 
            x  H            8         0.500000   0.367327   0.544937   x 
            x  H            9         0.500000   0.498623   0.872214   x 
            x  H           10         0.500000   0.739561   0.821101   x 
            x  H           11         0.500000   0.867327   0.955063   x 
            x  H           12         0.500000   0.998623   0.627786   x 
            x  H           13         0.500000   0.760439   0.321101   x 
            x  H           14         0.500000   0.632673   0.455063   x 
            x  H           15         0.500000   0.501377   0.127786   x 
            x  H           16        -0.000000   0.760439   0.178899   x 
            x  H           17         0.000000   0.632673   0.044937   x 
            x  H           18        -0.000000   0.501377   0.372214   x 
            x  H           19        -0.000000   0.739561   0.678899   x 
            x  H           20         0.000000   0.867327   0.544937   x 
            x  H           21        -0.000000   0.998623   0.872214   x 
            x  H           22        -0.000000   0.239561   0.821101   x 
            x  H           23         0.000000   0.367327   0.955063   x 
            x  H           24         0.000000   0.498623   0.627786   x 
            xxxxxxxxxxxxxxxxxxxxxxxxxxxxxxxxxxxxxxxxxxxxxxxxxxxxxxxxxxxx


                         No user defined ionic velocities

                           -------------------------------
                                   Details of Species
                           -------------------------------

                               Mass of species in AMU
                                    H    1.0078250

                          Electric Quadrupole Moment (Barn)
                                    H    0.0028600 Isotope  2

                          Files used for pseudopotentials:
                                    H 1|0.6|13|15|17|10(qc=8)

                           -------------------------------
                              k-Points For BZ Sampling
                           -------------------------------
                       MP grid size for SCF calculation is 18 18 18
                            with an offset of   0.000  0.000  0.000
                       Number of kpoints used =          2916

                           -------------------------------
                               Symmetry and Constraints
                           -------------------------------

                      Cell is a supercell containing 2 primitive cells
                      Maximum deviation from symmetry =  0.00000         ANG

                      Number of symmetry operations   =           1
                      Number of ionic constraints     =           3
                      Point group of crystal =     1: C1, 1, 1
                      Space group of crystal =    64: Cmce, -C 2bc 2

             Set iprint > 1 for details on symmetry rotations/translations

                         Centre of mass is constrained
             Set iprint > 1 for details of linear ionic constraints

                         Number of cell constraints= 0
                         Cell constraints are:  1 2 3 4 5 6

                         External pressure/stress (GPa)
                        180.00000   0.00000   0.00000
                                  180.00000   0.00000
                                            180.00000
  
+---------------- MEMORY AND SCRATCH DISK ESTIMATES PER PROCESS --------------+
|                                                     Memory          Disk    |
| Baseline code, static data and system overhead      492.0 MB         0.0 MB |
| BLAS internal memory storage                          0.0 MB         0.0 MB |
| Model and support data                              199.3 MB         0.0 MB |
| Electronic energy minimisation requirements         205.6 MB         0.0 MB |
| Force calculation requirements                       11.9 MB         0.0 MB |
| Stress calculation requirements                      15.0 MB         0.0 MB |
|                                               ----------------------------- |
| Approx. total storage required per process          896.9 MB         0.0 MB |
|                                                                             |
| Requirements will fluctuate during execution and may exceed these estimates |
+-----------------------------------------------------------------------------+
Calculating finite basis set correction with  3 cut-off energies.
Calculating total energy with cut-off of 1590.000 eV.
------------------------------------------------------------------------ <-- SCF
SCF loop      Energy                           Energy gain       Timer   <-- SCF
                                               per atom          (sec)   <-- SCF
------------------------------------------------------------------------ <-- SCF
Initial   5.64395668E+002                                         17.80  <-- SCF
      1  -2.94615911E+002                    3.57921491E+001      85.64  <-- SCF
      2  -3.50026214E+002                    2.30876263E+000     135.00  <-- SCF
      3  -3.49756279E+002                   -1.12472943E-002     197.49  <-- SCF
      4  -3.49734901E+002                   -8.90775463E-004     256.53  <-- SCF
      5  -3.49735346E+002                    1.85692791E-005     316.76  <-- SCF
      6  -3.49735382E+002                    1.49586363E-006     376.22  <-- SCF
      7  -3.49735382E+002                    2.16835942E-009     437.18  <-- SCF
      8  -3.49735382E+002                    2.44507338E-010     490.34  <-- SCF
      9  -3.49735382E+002                    5.53661562E-012     532.22  <-- SCF
     10  -3.49735382E+002                    3.28289686E-013     574.55  <-- SCF
------------------------------------------------------------------------ <-- SCF
 
Final energy =  -349.7353821416     eV
(energy not corrected for finite basis set)
 
Calculating total energy with cut-off of 1595.000 eV.
------------------------------------------------------------------------ <-- SCF
SCF loop      Energy                           Energy gain       Timer   <-- SCF
                                               per atom          (sec)   <-- SCF
------------------------------------------------------------------------ <-- SCF
Initial  -3.49735382E+002                                        591.78  <-- SCF
      1  -3.49735470E+002                    3.65198357E-006     646.72  <-- SCF
      2  -3.49735470E+002                    1.42997348E-012     690.13  <-- SCF
      3  -3.49735470E+002                    1.06193859E-009     732.87  <-- SCF
      4  -3.49735470E+002                    2.68613469E-011     776.50  <-- SCF
      5  -3.49735470E+002                    2.69882319E-013     819.24  <-- SCF
      6  -3.49735470E+002                    1.65151867E-013     861.42  <-- SCF
------------------------------------------------------------------------ <-- SCF
 
Final energy =  -349.7354698153     eV
(energy not corrected for finite basis set)
 
Calculating total energy with cut-off of 1600.000 eV.
------------------------------------------------------------------------ <-- SCF
SCF loop      Energy                           Energy gain       Timer   <-- SCF
                                               per atom          (sec)   <-- SCF
------------------------------------------------------------------------ <-- SCF
Initial  -3.49735470E+002                                        878.69  <-- SCF
      1  -3.49735556E+002                    3.57141306E-006     937.29  <-- SCF
      2  -3.49735556E+002                    1.53268988E-012     979.69  <-- SCF
      3  -3.49735556E+002                    1.02596166E-009    1022.29  <-- SCF
      4  -3.49735556E+002                    2.51937158E-011    1066.96  <-- SCF
      5  -3.49735556E+002                    2.47727800E-013    1110.66  <-- SCF
      6  -3.49735556E+002                    4.43090374E-014    1154.26  <-- SCF
------------------------------------------------------------------------ <-- SCF
 
Final energy =  -349.7355555545     eV
(energy not corrected for finite basis set)
 
 For future reference: finite basis dEtot/dlog(Ecut) =      -0.027646eV
 Total energy corrected for finite basis set =    -349.735556 eV
 
+---------------- MEMORY AND SCRATCH DISK ESTIMATES PER PROCESS --------------+
|                                                     Memory          Disk    |
| Model and support data                              205.6 MB         0.0 MB |
| Electronic energy minimisation requirements         205.6 MB         0.0 MB |
| Geometry minimisation requirements                  298.4 MB         0.0 MB |
|                                               ----------------------------- |
| Approx. total storage required per process          709.5 MB         0.0 MB |
|                                                                             |
| Requirements will fluctuate during execution and may exceed these estimates |
+-----------------------------------------------------------------------------+
 

 ************************************** Forces **************************************
 *                                                                                  *
 *                           Cartesian components (eV/A)                            *
 * -------------------------------------------------------------------------------- *
 *                         x                    y                    z              *
 *                                                                                  *
 * H               1     -0.00000              0.00000             -0.00000         *
 * H               2      0.00000             -0.00000             -0.00000         *
 * H               3     -0.00000              0.00000             -0.00000         *
 * H               4      0.00000              0.00000             -0.00000         *
 * H               5      0.00000             -0.00000             -0.00000         *
 * H               6     -0.00000             -0.00000             -0.00000         *
 * H               7      0.00000              0.00000             -0.00000         *
 * H               8     -0.00000             -0.00000              0.00000         *
 * H               9      0.00000             -0.00000             -0.00000         *
 * H              10      0.00000              0.00000              0.00000         *
 * H              11      0.00000              0.00000             -0.00000         *
 * H              12      0.00000             -0.00000              0.00000         *
 * H              13      0.00000             -0.00000              0.00000         *
 * H              14     -0.00000              0.00000             -0.00000         *
 * H              15     -0.00000              0.00000              0.00000         *
 * H              16      0.00000              0.00000             -0.00000         *
 * H              17     -0.00000             -0.00000             -0.00000         *
 * H              18      0.00000              0.00000              0.00000         *
 * H              19      0.00000             -0.00000              0.00000         *
 * H              20      0.00000              0.00000              0.00000         *
 * H              21     -0.00000             -0.00000              0.00000         *
 * H              22      0.00000             -0.00000              0.00000         *
 * H              23     -0.00000              0.00000             -0.00000         *
 * H              24     -0.00000             -0.00000             -0.00000         *
 *                                                                                  *
 ************************************************************************************

 ***************** Stress Tensor *****************
 *                                               *
 *          Cartesian components (GPa)           *
 * --------------------------------------------- *
 *             x             y             z     *
 *                                               *
 *  x   -210.000162     -0.000000      0.000000  *
 *  y     -0.000000   -210.000154     -0.000004  *
 *  z      0.000000     -0.000004   -210.000158  *
 *                                               *
 *  Pressure:  210.0002                          *
 *                                               *
 *************************************************
 LBFGS: finished iteration     0 with enthalpy= -3.04386175E+002 eV
  
 +-----------+-----------------+-----------------+------------+-----+ <-- LBFGS
 | Parameter |      value      |    tolerance    |    units   | OK? | <-- LBFGS
 +-----------+-----------------+-----------------+------------+-----+ <-- LBFGS
 |  dE/ion   |   0.000000E+000 |   1.000000E-009 |         eV | No  | <-- LBFGS
 |  |F|max   |   1.139787E-006 |   1.000000E-005 |       eV/A | Yes | <-- LBFGS
 |  |dR|max  |   0.000000E+000 |   1.000000E-005 |          A | No  | <-- LBFGS
 |   Smax    |   3.000016E+001 |   1.000000E-005 |        GPa | No  | <-- LBFGS
 +-----------+-----------------+-----------------+------------+-----+ <-- LBFGS
  

================================================================================
 Starting LBFGS iteration          1 ...
================================================================================
  
 +------------+-------------+-------------+-----------------+ <-- min LBFGS
 |    Step    |   lambda    |   F.delta'  |    enthalpy     | <-- min LBFGS
 +------------+-------------+-------------+-----------------+ <-- min LBFGS
 |  previous  |    0.000000 |    0.481097 |     -304.386175 | <-- min LBFGS
 +------------+-------------+-------------+-----------------+ <-- min LBFGS
  

--------------------------------------------------------------------------------
 LBFGS: starting iteration         1 with trial guess (lambda=  1.000000)
--------------------------------------------------------------------------------
 
+---------------- MEMORY AND SCRATCH DISK ESTIMATES PER PROCESS --------------+
|                                                     Memory          Disk    |
| Model and support data                              215.4 MB         0.0 MB |
| Electronic energy minimisation requirements         217.6 MB         0.0 MB |
| Geometry minimisation requirements                  315.8 MB         0.0 MB |
|                                               ----------------------------- |
| Approx. total storage required per process          748.7 MB         0.0 MB |
|                                                                             |
| Requirements will fluctuate during execution and may exceed these estimates |
+-----------------------------------------------------------------------------+
 

                           -------------------------------
                                      Unit Cell
                           -------------------------------
        Real Lattice(A)              Reciprocal Lattice(1/A)
     2.7463915    -0.0000000     0.0000000        2.287796665   0.000000000  -0.000000000
    -0.0000000     5.0916478     0.0000000        0.000000000   1.234018061  -0.000000003
     0.0000000     0.0000000     3.0632970       -0.000000000  -0.000000004   2.051118576

                       Lattice parameters(A)       Cell Angles
                    a =      2.746391          alpha =   90.000000
                    b =      5.091648          beta  =   90.000000
                    c =      3.063297          gamma =   90.000000

                Current cell volume =            42.836098 A**3

                           -------------------------------
                                     Cell Contents
                           -------------------------------

            xxxxxxxxxxxxxxxxxxxxxxxxxxxxxxxxxxxxxxxxxxxxxxxxxxxxxxxxxxxxxxxxx
            x  Element         Atom        Fractional coordinates of atoms  x
            x                 Number           u          v          w      x
            x---------------------------------------------------------------x
            x  H                 1         0.000000   0.001377   0.127786   x
            x  H                 2        -0.000000   0.132673   0.455063   x
            x  H                 3         0.000000   0.260439   0.321101   x
            x  H                 4         0.500000   0.260439   0.178899   x
            x  H                 5         0.500000   0.132673   0.044937   x
            x  H                 6         0.500000   0.001377   0.372214   x
            x  H                 7         0.500000   0.239561   0.678899   x
            x  H                 8         0.500000   0.367327   0.544937   x
            x  H                 9         0.500000   0.498623   0.872214   x
            x  H                10         0.500000   0.739561   0.821101   x
            x  H                11         0.500000   0.867327   0.955063   x
            x  H                12         0.500000   0.998623   0.627786   x
            x  H                13         0.500000   0.760439   0.321101   x
            x  H                14         0.500000   0.632673   0.455063   x
            x  H                15         0.500000   0.501377   0.127786   x
            x  H                16        -0.000000   0.760439   0.178899   x
            x  H                17         0.000000   0.632673   0.044937   x
            x  H                18        -0.000000   0.501377   0.372214   x
            x  H                19        -0.000000   0.739561   0.678899   x
            x  H                20         0.000000   0.867327   0.544937   x
            x  H                21        -0.000000   0.998623   0.872214   x
            x  H                22        -0.000000   0.239561   0.821101   x
            x  H                23        -0.000000   0.367327   0.955063   x
            x  H                24         0.000000   0.498623   0.627786   x
            xxxxxxxxxxxxxxxxxxxxxxxxxxxxxxxxxxxxxxxxxxxxxxxxxxxxxxxxxxxxxxxxx


------------------------------------------------------------------------ <-- SCF
SCF loop      Energy                           Energy gain       Timer   <-- SCF
                                               per atom          (sec)   <-- SCF
------------------------------------------------------------------------ <-- SCF
Initial  -3.52639813E+002                                       1276.83  <-- SCF
      1  -3.52712052E+002                    3.00996913E-003    1339.70  <-- SCF
      2  -3.52712244E+002                    8.01303385E-006    1407.59  <-- SCF
      3  -3.52711471E+002                   -3.22400986E-005    1472.62  <-- SCF
      4  -3.52711463E+002                   -3.15789404E-007    1538.12  <-- SCF
      5  -3.52711464E+002                    2.96894739E-008    1603.68  <-- SCF
      6  -3.52711464E+002                    2.85463994E-009    1668.82  <-- SCF
      7  -3.52711464E+002                    1.63238522E-011    1714.40  <-- SCF
      8  -3.52711464E+002                    1.13390855E-012    1760.91  <-- SCF
      9  -3.52711464E+002                   -1.16814735E-013    1806.53  <-- SCF
------------------------------------------------------------------------ <-- SCF
 
Final energy =  -352.7114637927     eV
(energy not corrected for finite basis set)
 

 ************************************** Forces **************************************
 *                                                                                  *
 *                           Cartesian components (eV/A)                            *
 * -------------------------------------------------------------------------------- *
 *                         x                    y                    z              *
 *                                                                                  *
 * H               1     -0.00000             -0.00057             -0.32058         *
 * H               2      0.00000              0.28808             -0.19158         *
 * H               3     -0.00000             -0.28039              0.17240         *
 * H               4      0.00000             -0.28039             -0.17240         *
 * H               5     -0.00000              0.28808              0.19158         *
 * H               6      0.00000             -0.00057              0.32059         *
 * H               7      0.00000              0.28039             -0.17240         *
 * H               8      0.00000             -0.28808              0.19158         *
 * H               9     -0.00000              0.00057              0.32059         *
 * H              10      0.00000              0.28039              0.17240         *
 * H              11     -0.00000             -0.28808             -0.19158         *
 * H              12      0.00000              0.00057             -0.32059         *
 * H              13     -0.00000             -0.28039              0.17240         *
 * H              14      0.00000              0.28808             -0.19158         *
 * H              15      0.00000             -0.00057             -0.32059         *
 * H              16      0.00000             -0.28039             -0.17240         *
 * H              17     -0.00000              0.28809              0.19158         *
 * H              18      0.00000             -0.00057              0.32058         *
 * H              19      0.00000              0.28039             -0.17240         *
 * H              20      0.00000             -0.28808              0.19158         *
 * H              21      0.00000              0.00057              0.32058         *
 * H              22      0.00000              0.28039              0.17240         *
 * H              23     -0.00000             -0.28808             -0.19158         *
 * H              24     -0.00000              0.00057             -0.32058         *
 *                                                                                  *
 ************************************************************************************

 ***************** Stress Tensor *****************
 *                                               *
 *          Cartesian components (GPa)           *
 * --------------------------------------------- *
 *             x             y             z     *
 *                                               *
 *  x   -182.185776      0.000000      0.000000  *
 *  y      0.000000   -174.785828      0.000014  *
 *  z      0.000000      0.000014   -174.107040  *
 *                                               *
 *  Pressure:  177.0262                          *
 *                                               *
 *************************************************
  
 +------------+-------------+-------------+-----------------+ <-- min LBFGS
 |    Step    |   lambda    |   F.delta'  |    enthalpy     | <-- min LBFGS
 +------------+-------------+-------------+-----------------+ <-- min LBFGS
 |  previous  |    0.000000 |    0.481097 |     -304.386175 | <-- min LBFGS
 | trial step |    1.000000 |   -0.049616 |     -304.586323 | <-- min LBFGS
 +------------+-------------+-------------+-----------------+ <-- min LBFGS
  
 LBFGS: finished iteration     1 with enthalpy= -3.04586323E+002 eV
  
 +-----------+-----------------+-----------------+------------+-----+ <-- LBFGS
 | Parameter |      value      |    tolerance    |    units   | OK? | <-- LBFGS
 +-----------+-----------------+-----------------+------------+-----+ <-- LBFGS
 |  dE/ion   |   8.339517E-003 |   1.000000E-009 |         eV | No  | <-- LBFGS
 |  |F|max   |   3.459734E-001 |   1.000000E-005 |       eV/A | No  | <-- LBFGS
 |  |dR|max  |   1.127718E-007 |   1.000000E-005 |          A | Yes | <-- LBFGS
 |   Smax    |   5.892960E+000 |   1.000000E-005 |        GPa | No  | <-- LBFGS
 +-----------+-----------------+-----------------+------------+-----+ <-- LBFGS
  

================================================================================
 Starting LBFGS iteration          2 ...
================================================================================
  
 +------------+-------------+-------------+-----------------+ <-- min LBFGS
 |    Step    |   lambda    |   F.delta'  |    enthalpy     | <-- min LBFGS
 +------------+-------------+-------------+-----------------+ <-- min LBFGS
 |  previous  |    0.000000 |    0.197127 |     -304.586323 | <-- min LBFGS
 +------------+-------------+-------------+-----------------+ <-- min LBFGS
  

--------------------------------------------------------------------------------
 LBFGS: starting iteration         2 with trial guess (lambda=  1.000000)
--------------------------------------------------------------------------------
 
+---------------- MEMORY AND SCRATCH DISK ESTIMATES PER PROCESS --------------+
|                                                     Memory          Disk    |
| Model and support data                              224.0 MB         0.0 MB |
| Electronic energy minimisation requirements         225.0 MB         0.0 MB |
| Geometry minimisation requirements                  325.9 MB         0.0 MB |
|                                               ----------------------------- |
| Approx. total storage required per process          774.9 MB         0.0 MB |
|                                                                             |
| Requirements will fluctuate during execution and may exceed these estimates |
+-----------------------------------------------------------------------------+
 

                           -------------------------------
                                      Unit Cell
                           -------------------------------
        Real Lattice(A)              Reciprocal Lattice(1/A)
     2.7768669    -0.0000000    -0.0000000        2.262688687   0.000000000   0.000000000
    -0.0000000     5.1249216    -0.0000000        0.000000000   1.226006125   0.000000006
    -0.0000000    -0.0000000     3.0820338        0.000000000   0.000000010   2.038649045

                       Lattice parameters(A)       Cell Angles
                    a =      2.776867          alpha =   90.000001
                    b =      5.124922          beta  =   90.000000
                    c =      3.082034          gamma =   90.000000

                Current cell volume =            43.861117 A**3

                           -------------------------------
                                     Cell Contents
                           -------------------------------

            xxxxxxxxxxxxxxxxxxxxxxxxxxxxxxxxxxxxxxxxxxxxxxxxxxxxxxxxxxxxxxxxx
            x  Element         Atom        Fractional coordinates of atoms  x
            x                 Number           u          v          w      x
            x---------------------------------------------------------------x
            x  H                 1         0.000000   0.001367   0.118212   x
            x  H                 2         0.000000   0.137849   0.449342   x
            x  H                 3        -0.000000   0.255401   0.326249   x
            x  H                 4         0.500000   0.255401   0.173751   x
            x  H                 5         0.500000   0.137849   0.050658   x
            x  H                 6         0.500000   0.001367   0.381788   x
            x  H                 7         0.500000   0.244599   0.673751   x
            x  H                 8         0.500000   0.362151   0.550658   x
            x  H                 9         0.500000   0.498633   0.881788   x
            x  H                10         0.500000   0.744599   0.826249   x
            x  H                11         0.500000   0.862151   0.949342   x
            x  H                12         0.500000   0.998633   0.618212   x
            x  H                13         0.500000   0.755401   0.326249   x
            x  H                14         0.500000   0.637849   0.449342   x
            x  H                15         0.500000   0.501367   0.118212   x
            x  H                16        -0.000000   0.755401   0.173751   x
            x  H                17         0.000000   0.637849   0.050658   x
            x  H                18        -0.000000   0.501367   0.381788   x
            x  H                19        -0.000000   0.744599   0.673751   x
            x  H                20         0.000000   0.862151   0.550658   x
            x  H                21        -0.000000   0.998633   0.881788   x
            x  H                22         0.000000   0.244599   0.826249   x
            x  H                23        -0.000000   0.362151   0.949342   x
            x  H                24         0.000000   0.498633   0.618212   x
            xxxxxxxxxxxxxxxxxxxxxxxxxxxxxxxxxxxxxxxxxxxxxxxxxxxxxxxxxxxxxxxxx


------------------------------------------------------------------------ <-- SCF
SCF loop      Energy                           Energy gain       Timer   <-- SCF
                                               per atom          (sec)   <-- SCF
------------------------------------------------------------------------ <-- SCF
Initial  -3.51597228E+002                                       1934.85  <-- SCF
      1  -3.53907140E+002                    9.62463368E-002    2006.28  <-- SCF
      2  -3.53916873E+002                    4.05524557E-004    2085.57  <-- SCF
      3  -3.53623336E+002                   -1.22307140E-002    2162.18  <-- SCF
      4  -3.53613903E+002                   -3.93017351E-004    2240.06  <-- SCF
      5  -3.53613898E+002                   -2.11424360E-007    2320.06  <-- SCF
      6  -3.53613899E+002                    3.74352354E-008    2397.12  <-- SCF
      7  -3.53613899E+002                    1.21550364E-009    2475.25  <-- SCF
      8  -3.53613899E+002                    1.11010251E-010    2529.22  <-- SCF
      9  -3.53613899E+002                    8.90208842E-013    2582.92  <-- SCF
     10  -3.53613899E+002                    2.31615423E-013    2637.81  <-- SCF
------------------------------------------------------------------------ <-- SCF
 
Final energy =  -353.6138993156     eV
(energy not corrected for finite basis set)
 

 ************************************** Forces **************************************
 *                                                                                  *
 *                           Cartesian components (eV/A)                            *
 * -------------------------------------------------------------------------------- *
 *                         x                    y                    z              *
 *                                                                                  *
 * H               1     -0.00000             -0.01173              0.89064         *
 * H               2      0.00000             -1.13842              0.70853         *
 * H               3     -0.00000              0.93463             -0.57842         *
 * H               4      0.00000              0.93463              0.57847         *
 * H               5     -0.00000             -1.13841             -0.70858         *
 * H               6     -0.00000             -0.01172             -0.89072         *
 * H               7      0.00000             -0.93460              0.57840         *
 * H               8     -0.00000              1.13839             -0.70851         *
 * H               9      0.00000              0.01173             -0.89066         *
 * H              10      0.00000             -0.93462             -0.57847         *
 * H              11     -0.00000              1.13841              0.70858         *
 * H              12      0.00000              0.01172              0.89072         *
 * H              13     -0.00000              0.93462             -0.57841         *
 * H              14      0.00000             -1.13840              0.70852         *
 * H              15     -0.00000             -0.01173              0.89066         *
 * H              16     -0.00000              0.93464              0.57848         *
 * H              17      0.00000             -1.13842             -0.70859         *
 * H              18     -0.00000             -0.01173             -0.89069         *
 * H              19      0.00000             -0.93463              0.57842         *
 * H              20     -0.00000              1.13841             -0.70853         *
 * H              21     -0.00000              0.01173             -0.89064         *
 * H              22      0.00000             -0.93463             -0.57847         *
 * H              23      0.00000              1.13841              0.70858         *
 * H              24      0.00000              0.01173              0.89069         *
 *                                                                                  *
 ************************************************************************************

 ***************** Stress Tensor *****************
 *                                               *
 *          Cartesian components (GPa)           *
 * --------------------------------------------- *
 *             x             y             z     *
 *                                               *
 *  x   -167.773610      0.000000     -0.000000  *
 *  y      0.000000   -191.667493     -0.000047  *
 *  z     -0.000000     -0.000047   -188.766045  *
 *                                               *
 *  Pressure:  182.7357                          *
 *                                               *
 *************************************************
  
 +------------+-------------+-------------+-----------------+ <-- min LBFGS
 |    Step    |   lambda    |   F.delta'  |    enthalpy     | <-- min LBFGS
 +------------+-------------+-------------+-----------------+ <-- min LBFGS
 |  previous  |    0.000000 |    0.197127 |     -304.586323 | <-- min LBFGS
 | trial step |    1.000000 |   -0.702985 |     -304.337178 | <-- min LBFGS
 +------------+-------------+-------------+-----------------+ <-- min LBFGS
  

--------------------------------------------------------------------------------
 LBFGS: improving iteration         2 with line minimization (lambda=  0.219003)
--------------------------------------------------------------------------------

                           -------------------------------
                                      Unit Cell
                           -------------------------------
        Real Lattice(A)              Reciprocal Lattice(1/A)
     2.7530657    -0.0000000     0.0000000        2.282250416   0.000000000  -0.000000000
    -0.0000000     5.0989348     0.0000000        0.000000000   1.232254484  -0.000000001
     0.0000000     0.0000000     3.0674004       -0.000000000  -0.000000001   2.048374690

                       Lattice parameters(A)       Cell Angles
                    a =      2.753066          alpha =   90.000000
                    b =      5.098935          beta  =   90.000000
                    c =      3.067400          gamma =   90.000000

                Current cell volume =            43.059254 A**3

                           -------------------------------
                                     Cell Contents
                           -------------------------------

            xxxxxxxxxxxxxxxxxxxxxxxxxxxxxxxxxxxxxxxxxxxxxxxxxxxxxxxxxxxxxxxxx
            x  Element         Atom        Fractional coordinates of atoms  x
            x                 Number           u          v          w      x
            x---------------------------------------------------------------x
            x  H                 1         0.000000   0.001375   0.125690   x
            x  H                 2        -0.000000   0.133807   0.453810   x
            x  H                 3        -0.000000   0.259335   0.322228   x
            x  H                 4         0.500000   0.259336   0.177772   x
            x  H                 5         0.500000   0.133807   0.046190   x
            x  H                 6         0.500000   0.001375   0.374310   x
            x  H                 7         0.500000   0.240664   0.677772   x
            x  H                 8         0.500000   0.366193   0.546190   x
            x  H                 9         0.500000   0.498625   0.874310   x
            x  H                10         0.500000   0.740664   0.822228   x
            x  H                11         0.500000   0.866193   0.953810   x
            x  H                12         0.500000   0.998625   0.625690   x
            x  H                13         0.500000   0.759336   0.322228   x
            x  H                14         0.500000   0.633807   0.453810   x
            x  H                15         0.500000   0.501375   0.125690   x
            x  H                16        -0.000000   0.759336   0.177772   x
            x  H                17         0.000000   0.633807   0.046190   x
            x  H                18        -0.000000   0.501375   0.374310   x
            x  H                19        -0.000000   0.740665   0.677772   x
            x  H                20         0.000000   0.866193   0.546190   x
            x  H                21        -0.000000   0.998625   0.874310   x
            x  H                22        -0.000000   0.240665   0.822228   x
            x  H                23        -0.000000   0.366193   0.953810   x
            x  H                24         0.000000   0.498625   0.625690   x
            xxxxxxxxxxxxxxxxxxxxxxxxxxxxxxxxxxxxxxxxxxxxxxxxxxxxxxxxxxxxxxxxx


------------------------------------------------------------------------ <-- SCF
SCF loop      Energy                           Energy gain       Timer   <-- SCF
                                               per atom          (sec)   <-- SCF
------------------------------------------------------------------------ <-- SCF
Initial  -3.51723295E+002                                       2773.48  <-- SCF
      1  -3.53175038E+002                    6.04892836E-002    2839.45  <-- SCF
      2  -3.53181228E+002                    2.57928316E-004    2911.66  <-- SCF
      3  -3.52998104E+002                   -7.63018893E-003    2983.56  <-- SCF
      4  -3.52992727E+002                   -2.24020196E-004    3057.86  <-- SCF
      5  -3.52992719E+002                   -3.42283946E-007    3126.69  <-- SCF
      6  -3.52992719E+002                    1.40416608E-008    3197.18  <-- SCF
      7  -3.52992719E+002                    6.82471962E-010    3269.20  <-- SCF
      8  -3.52992719E+002                    3.77835246E-011    3318.07  <-- SCF
      9  -3.52992719E+002                   -1.28899018E-013    3367.44  <-- SCF
     10  -3.52992719E+002                    1.34941159E-013    3419.32  <-- SCF
------------------------------------------------------------------------ <-- SCF
 
Final energy =  -352.9927193441     eV
(energy not corrected for finite basis set)
 

 ************************************** Forces **************************************
 *                                                                                  *
 *                           Cartesian components (eV/A)                            *
 * -------------------------------------------------------------------------------- *
 *                         x                    y                    z              *
 *                                                                                  *
 * H               1     -0.00000             -0.00485             -0.11079         *
 * H               2     -0.00000              0.03036             -0.03109         *
 * H               3      0.00000             -0.07244              0.04364         *
 * H               4      0.00000             -0.07244             -0.04363         *
 * H               5     -0.00000              0.03036              0.03106         *
 * H               6     -0.00000             -0.00485              0.11080         *
 * H               7      0.00000              0.07244             -0.04364         *
 * H               8      0.00000             -0.03036              0.03109         *
 * H               9     -0.00000              0.00485              0.11079         *
 * H              10     -0.00000              0.07244              0.04363         *
 * H              11      0.00000             -0.03036             -0.03106         *
 * H              12      0.00000              0.00485             -0.11080         *
 * H              13     -0.00000             -0.07244              0.04364         *
 * H              14      0.00000              0.03036             -0.03109         *
 * H              15      0.00000             -0.00485             -0.11079         *
 * H              16      0.00000             -0.07244             -0.04363         *
 * H              17     -0.00000              0.03036              0.03106         *
 * H              18      0.00000             -0.00485              0.11080         *
 * H              19      0.00000              0.07244             -0.04364         *
 * H              20     -0.00000             -0.03036              0.03109         *
 * H              21      0.00000              0.00485              0.11079         *
 * H              22     -0.00000              0.07244              0.04363         *
 * H              23      0.00000             -0.03036             -0.03106         *
 * H              24     -0.00000              0.00485             -0.11080         *
 *                                                                                  *
 ************************************************************************************

 ***************** Stress Tensor *****************
 *                                               *
 *          Cartesian components (GPa)           *
 * --------------------------------------------- *
 *             x             y             z     *
 *                                               *
 *  x   -178.997111     -0.000000     -0.000000  *
 *  y     -0.000000   -177.821227      0.000004  *
 *  z     -0.000000      0.000004   -176.697673  *
 *                                               *
 *  Pressure:  177.8387                          *
 *                                               *
 *************************************************
  
 +------------+-------------+-------------+-----------------+ <-- min LBFGS
 |    Step    |   lambda    |   F.delta'  |    enthalpy     | <-- min LBFGS
 +------------+-------------+-------------+-----------------+ <-- min LBFGS
 |  previous  |    0.000000 |    0.197127 |     -304.586323 | <-- min LBFGS
 | trial step |    1.000000 |   -0.702985 |     -304.337178 | <-- min LBFGS
 |  line step |    0.219003 |    0.038577 |     -304.616869 | <-- min LBFGS
 +------------+-------------+-------------+-----------------+ <-- min LBFGS
  
 LBFGS: finished iteration     2 with enthalpy= -3.04616869E+002 eV
  
 +-----------+-----------------+-----------------+------------+-----+ <-- LBFGS
 | Parameter |      value      |    tolerance    |    units   | OK? | <-- LBFGS
 +-----------+-----------------+-----------------+------------+-----+ <-- LBFGS
 |  dE/ion   |   1.272734E-003 |   1.000000E-009 |         eV | No  | <-- LBFGS
 |  |F|max   |   1.109101E-001 |   1.000000E-005 |       eV/A | No  | <-- LBFGS
 |  |dR|max  |   6.941453E-003 |   1.000000E-005 |          A | No  | <-- LBFGS
 |   Smax    |   3.302327E+000 |   1.000000E-005 |        GPa | No  | <-- LBFGS
 +-----------+-----------------+-----------------+------------+-----+ <-- LBFGS
  

================================================================================
 Starting LBFGS iteration          3 ...
================================================================================
  
 +------------+-------------+-------------+-----------------+ <-- min LBFGS
 |    Step    |   lambda    |   F.delta'  |    enthalpy     | <-- min LBFGS
 +------------+-------------+-------------+-----------------+ <-- min LBFGS
 |  previous  |    0.000000 |    0.045620 |     -304.616869 | <-- min LBFGS
 +------------+-------------+-------------+-----------------+ <-- min LBFGS
  

--------------------------------------------------------------------------------
 LBFGS: starting iteration         3 with trial guess (lambda=  1.000000)
--------------------------------------------------------------------------------

                           -------------------------------
                                      Unit Cell
                           -------------------------------
        Real Lattice(A)              Reciprocal Lattice(1/A)
     2.7515259     0.0000000     0.0000000        2.283527618  -0.000000000  -0.000000000
     0.0000000     5.0969996    -0.0000000       -0.000000000   1.232722337   0.000000001
     0.0000000    -0.0000000     3.0636459       -0.000000000   0.000000001   2.050884979

                       Lattice parameters(A)       Cell Angles
                    a =      2.751526          alpha =   90.000000
                    b =      5.097000          beta  =   90.000000
                    c =      3.063646          gamma =   90.000000

                Current cell volume =            42.966182 A**3

                           -------------------------------
                                     Cell Contents
                           -------------------------------

            xxxxxxxxxxxxxxxxxxxxxxxxxxxxxxxxxxxxxxxxxxxxxxxxxxxxxxxxxxxxxxxxx
            x  Element         Atom        Fractional coordinates of atoms  x
            x                 Number           u          v          w      x
            x---------------------------------------------------------------x
            x  H                 1         0.000000   0.001258   0.123621   x
            x  H                 2        -0.000000   0.133218   0.454014   x
            x  H                 3         0.000000   0.258850   0.322687   x
            x  H                 4         0.500000   0.258850   0.177314   x
            x  H                 5         0.500000   0.133218   0.045984   x
            x  H                 6         0.500000   0.001258   0.376380   x
            x  H                 7         0.500000   0.241150   0.677313   x
            x  H                 8         0.500000   0.366782   0.545986   x
            x  H                 9         0.500000   0.498742   0.876379   x
            x  H                10         0.500000   0.741150   0.822686   x
            x  H                11         0.500000   0.866782   0.954016   x
            x  H                12         0.500000   0.998742   0.623620   x
            x  H                13         0.500000   0.758850   0.322687   x
            x  H                14         0.500000   0.633218   0.454014   x
            x  H                15         0.500000   0.501258   0.123621   x
            x  H                16        -0.000000   0.758850   0.177314   x
            x  H                17         0.000000   0.633218   0.045984   x
            x  H                18        -0.000000   0.501258   0.376380   x
            x  H                19        -0.000000   0.741150   0.677313   x
            x  H                20         0.000000   0.866782   0.545986   x
            x  H                21        -0.000000   0.998742   0.876379   x
            x  H                22        -0.000000   0.241150   0.822686   x
            x  H                23         0.000000   0.366782   0.954016   x
            x  H                24         0.000000   0.498742   0.623620   x
            xxxxxxxxxxxxxxxxxxxxxxxxxxxxxxxxxxxxxxxxxxxxxxxxxxxxxxxxxxxxxxxxx


------------------------------------------------------------------------ <-- SCF
SCF loop      Energy                           Energy gain       Timer   <-- SCF
                                               per atom          (sec)   <-- SCF
------------------------------------------------------------------------ <-- SCF
Initial  -3.52859199E+002                                       3547.66  <-- SCF
      1  -3.52889296E+002                    1.25402599E-003    3608.71  <-- SCF
      2  -3.52889399E+002                    4.27962803E-006    3672.64  <-- SCF
      3  -3.52886384E+002                   -1.25598260E-004    3734.87  <-- SCF
      4  -3.52886360E+002                   -1.02279741E-006    3799.80  <-- SCF
      5  -3.52886360E+002                   -2.14176795E-009    3862.39  <-- SCF
      6  -3.52886360E+002                    2.85833572E-010    3926.77  <-- SCF
      7  -3.52886360E+002                    2.61785849E-011    3970.81  <-- SCF
      8  -3.52886360E+002                    5.84073674E-013    4016.11  <-- SCF
      9  -3.52886360E+002                    4.43090374E-014    4061.16  <-- SCF
------------------------------------------------------------------------ <-- SCF
 
Final energy =  -352.8863597825     eV
(energy not corrected for finite basis set)
 

 ************************************** Forces **************************************
 *                                                                                  *
 *                           Cartesian components (eV/A)                            *
 * -------------------------------------------------------------------------------- *
 *                         x                    y                    z              *
 *                                                                                  *
 * H               1     -0.00000              0.00613              0.23932         *
 * H               2      0.00000              0.07284             -0.03565         *
 * H               3      0.00000             -0.10610              0.04764         *
 * H               4      0.00000             -0.10616             -0.04769         *
 * H               5     -0.00000              0.07290              0.03570         *
 * H               6      0.00000              0.00614             -0.23939         *
 * H               7      0.00000              0.10609             -0.04763         *
 * H               8     -0.00000             -0.07283              0.03565         *
 * H               9      0.00000             -0.00613             -0.23932         *
 * H              10      0.00000              0.10616              0.04769         *
 * H              11     -0.00000             -0.07290             -0.03570         *
 * H              12     -0.00000             -0.00614              0.23939         *
 * H              13      0.00000             -0.10609              0.04764         *
 * H              14     -0.00000              0.07283             -0.03565         *
 * H              15     -0.00000              0.00613              0.23932         *
 * H              16     -0.00000             -0.10616             -0.04769         *
 * H              17     -0.00000              0.07290              0.03570         *
 * H              18      0.00000              0.00614             -0.23939         *
 * H              19      0.00000              0.10610             -0.04764         *
 * H              20     -0.00000             -0.07284              0.03565         *
 * H              21      0.00000             -0.00613             -0.23932         *
 * H              22      0.00000              0.10616              0.04769         *
 * H              23     -0.00000             -0.07290             -0.03570         *
 * H              24     -0.00000             -0.00614              0.23939         *
 *                                                                                  *
 ************************************************************************************

 ***************** Stress Tensor *****************
 *                                               *
 *          Cartesian components (GPa)           *
 * --------------------------------------------- *
 *             x             y             z     *
 *                                               *
 *  x   -180.031377      0.000000      0.000000  *
 *  y      0.000000   -178.174745      0.000517  *
 *  z      0.000000      0.000517   -182.031386  *
 *                                               *
 *  Pressure:  180.0792                          *
 *                                               *
 *************************************************
  
 +------------+-------------+-------------+-----------------+ <-- min LBFGS
 |    Step    |   lambda    |   F.delta'  |    enthalpy     | <-- min LBFGS
 +------------+-------------+-------------+-----------------+ <-- min LBFGS
 |  previous  |    0.000000 |    0.045620 |     -304.616869 | <-- min LBFGS
 | trial step |    1.000000 |   -0.066899 |     -304.615073 | <-- min LBFGS
 +------------+-------------+-------------+-----------------+ <-- min LBFGS
  

--------------------------------------------------------------------------------
 LBFGS: improving iteration         3 with line minimization (lambda=  0.405443)
--------------------------------------------------------------------------------

                           -------------------------------
                                      Unit Cell
                           -------------------------------
        Real Lattice(A)              Reciprocal Lattice(1/A)
     2.7524414    -0.0000000     0.0000000        2.282768077   0.000000000  -0.000000000
    -0.0000000     5.0981502     0.0000000        0.000000000   1.232444129  -0.000000000
     0.0000000     0.0000000     3.0658781       -0.000000000  -0.000000000   2.049391728

                       Lattice parameters(A)       Cell Angles
                    a =      2.752441          alpha =   90.000000
                    b =      5.098150          beta  =   90.000000
                    c =      3.065878          gamma =   90.000000

                Current cell volume =            43.021505 A**3

                           -------------------------------
                                     Cell Contents
                           -------------------------------

            xxxxxxxxxxxxxxxxxxxxxxxxxxxxxxxxxxxxxxxxxxxxxxxxxxxxxxxxxxxxxxxxx
            x  Element         Atom        Fractional coordinates of atoms  x
            x                 Number           u          v          w      x
            x---------------------------------------------------------------x
            x  H                 1         0.000000   0.001327   0.124851   x
            x  H                 2        -0.000000   0.133568   0.453893   x
            x  H                 3        -0.000000   0.259139   0.322414   x
            x  H                 4         0.500000   0.259139   0.177586   x
            x  H                 5         0.500000   0.133568   0.046106   x
            x  H                 6         0.500000   0.001328   0.375149   x
            x  H                 7         0.500000   0.240861   0.677586   x
            x  H                 8         0.500000   0.366432   0.546107   x
            x  H                 9         0.500000   0.498673   0.875149   x
            x  H                10         0.500000   0.740861   0.822414   x
            x  H                11         0.500000   0.866432   0.953894   x
            x  H                12         0.500000   0.998672   0.624851   x
            x  H                13         0.500000   0.759139   0.322414   x
            x  H                14         0.500000   0.633568   0.453893   x
            x  H                15         0.500000   0.501327   0.124851   x
            x  H                16        -0.000000   0.759139   0.177586   x
            x  H                17         0.000000   0.633568   0.046106   x
            x  H                18        -0.000000   0.501328   0.375149   x
            x  H                19        -0.000000   0.740861   0.677586   x
            x  H                20         0.000000   0.866432   0.546107   x
            x  H                21        -0.000000   0.998673   0.875149   x
            x  H                22        -0.000000   0.240861   0.822414   x
            x  H                23        -0.000000   0.366432   0.953894   x
            x  H                24         0.000000   0.498672   0.624851   x
            xxxxxxxxxxxxxxxxxxxxxxxxxxxxxxxxxxxxxxxxxxxxxxxxxxxxxxxxxxxxxxxxx


------------------------------------------------------------------------ <-- SCF
SCF loop      Energy                           Energy gain       Timer   <-- SCF
                                               per atom          (sec)   <-- SCF
------------------------------------------------------------------------ <-- SCF
Initial  -3.52942312E+002                                       4188.07  <-- SCF
      1  -3.52953009E+002                    4.45715848E-004    4248.37  <-- SCF
      2  -3.52953046E+002                    1.55271571E-006    4310.41  <-- SCF
      3  -3.52951973E+002                   -4.47301923E-005    4376.01  <-- SCF
      4  -3.52951964E+002                   -3.57668449E-007    4439.04  <-- SCF
      5  -3.52951964E+002                   -1.00823805E-009    4502.80  <-- SCF
      6  -3.52951964E+002                    9.38082742E-011    4553.92  <-- SCF
      7  -3.52951964E+002                    9.85473272E-012    4599.62  <-- SCF
      8  -3.52951964E+002                    5.84073674E-014    4643.97  <-- SCF
------------------------------------------------------------------------ <-- SCF
 
Final energy =  -352.9519639684     eV
(energy not corrected for finite basis set)
 

 ************************************** Forces **************************************
 *                                                                                  *
 *                           Cartesian components (eV/A)                            *
 * -------------------------------------------------------------------------------- *
 *                         x                    y                    z              *
 *                                                                                  *
 * H               1     -0.00000             -0.00035              0.02682         *
 * H               2      0.00000              0.04760             -0.03294         *
 * H               3     -0.00000             -0.08614              0.04524         *
 * H               4      0.00000             -0.08617             -0.04526         *
 * H               5     -0.00000              0.04762              0.03296         *
 * H               6      0.00000             -0.00035             -0.02685         *
 * H               7      0.00000              0.08614             -0.04524         *
 * H               8     -0.00000             -0.04759              0.03294         *
 * H               9      0.00000              0.00035             -0.02682         *
 * H              10      0.00000              0.08617              0.04526         *
 * H              11     -0.00000             -0.04762             -0.03296         *
 * H              12     -0.00000              0.00035              0.02685         *
 * H              13      0.00000             -0.08614              0.04524         *
 * H              14     -0.00000              0.04759             -0.03294         *
 * H              15     -0.00000             -0.00035              0.02682         *
 * H              16     -0.00000             -0.08617             -0.04526         *
 * H              17     -0.00000              0.04762              0.03296         *
 * H              18      0.00000             -0.00035             -0.02685         *
 * H              19      0.00000              0.08614             -0.04524         *
 * H              20      0.00000             -0.04760              0.03294         *
 * H              21      0.00000              0.00035             -0.02682         *
 * H              22      0.00000              0.08617              0.04526         *
 * H              23     -0.00000             -0.04762             -0.03296         *
 * H              24     -0.00000              0.00035              0.02685         *
 *                                                                                  *
 ************************************************************************************

 ***************** Stress Tensor *****************
 *                                               *
 *          Cartesian components (GPa)           *
 * --------------------------------------------- *
 *             x             y             z     *
 *                                               *
 *  x   -179.416186      0.000000      0.000000  *
 *  y      0.000000   -177.965858      0.000209  *
 *  z      0.000000      0.000209   -178.827695  *
 *                                               *
 *  Pressure:  178.7366                          *
 *                                               *
 *************************************************
  
 +------------+-------------+-------------+-----------------+ <-- min LBFGS
 |    Step    |   lambda    |   F.delta'  |    enthalpy     | <-- min LBFGS
 +------------+-------------+-------------+-----------------+ <-- min LBFGS
 |  previous  |    0.000000 |    0.045620 |     -304.616869 | <-- min LBFGS
 | trial step |    1.000000 |   -0.066899 |     -304.615073 | <-- min LBFGS
 |  line step |    0.405443 |    0.001261 |     -304.618524 | <-- min LBFGS
 +------------+-------------+-------------+-----------------+ <-- min LBFGS
  
 LBFGS: finished iteration     3 with enthalpy= -3.04618524E+002 eV
  
 +-----------+-----------------+-----------------+------------+-----+ <-- LBFGS
 | Parameter |      value      |    tolerance    |    units   | OK? | <-- LBFGS
 +-----------+-----------------+-----------------+------------+-----+ <-- LBFGS
 |  dE/ion   |   6.895732E-005 |   1.000000E-009 |         eV | No  | <-- LBFGS
 |  |F|max   |   9.733257E-002 |   1.000000E-005 |       eV/A | No  | <-- LBFGS
 |  |dR|max  |   2.583575E-003 |   1.000000E-005 |          A | No  | <-- LBFGS
 |   Smax    |   2.034142E+000 |   1.000000E-005 |        GPa | No  | <-- LBFGS
 +-----------+-----------------+-----------------+------------+-----+ <-- LBFGS
  

================================================================================
 Starting LBFGS iteration          4 ...
================================================================================
  
 +------------+-------------+-------------+-----------------+ <-- min LBFGS
 |    Step    |   lambda    |   F.delta'  |    enthalpy     | <-- min LBFGS
 +------------+-------------+-------------+-----------------+ <-- min LBFGS
 |  previous  |    0.000000 |    0.045101 |     -304.618524 | <-- min LBFGS
 +------------+-------------+-------------+-----------------+ <-- min LBFGS
  

--------------------------------------------------------------------------------
 LBFGS: starting iteration         4 with trial guess (lambda=  1.000000)
--------------------------------------------------------------------------------

                           -------------------------------
                                      Unit Cell
                           -------------------------------
        Real Lattice(A)              Reciprocal Lattice(1/A)
     2.7494723    -0.0000000     0.0000000        2.285233197   0.000000000  -0.000000000
    -0.0000000     5.0916411    -0.0000007        0.000000000   1.234019683   0.000000181
     0.0000000    -0.0000004     3.0612941       -0.000000000   0.000000301   2.052460550

                       Lattice parameters(A)       Cell Angles
                    a =      2.749472          alpha =   90.000017
                    b =      5.091641          beta  =   90.000000
                    c =      3.061294          gamma =   90.000000

                Current cell volume =            42.856054 A**3

                           -------------------------------
                                     Cell Contents
                           -------------------------------

            xxxxxxxxxxxxxxxxxxxxxxxxxxxxxxxxxxxxxxxxxxxxxxxxxxxxxxxxxxxxxxxxx
            x  Element         Atom        Fractional coordinates of atoms  x
            x                 Number           u          v          w      x
            x---------------------------------------------------------------x
            x  H                 1         0.000000   0.001200   0.124934   x
            x  H                 2        -0.000000   0.133209   0.453782   x
            x  H                 3        -0.000000   0.257574   0.323712   x
            x  H                 4         0.500000   0.257573   0.176288   x
            x  H                 5         0.500000   0.133209   0.046217   x
            x  H                 6         0.500000   0.001200   0.375066   x
            x  H                 7         0.500000   0.242426   0.676288   x
            x  H                 8         0.500000   0.366791   0.546218   x
            x  H                 9         0.500000   0.498800   0.875066   x
            x  H                10         0.500000   0.742427   0.823712   x
            x  H                11         0.500000   0.866791   0.953783   x
            x  H                12         0.500000   0.998800   0.624934   x
            x  H                13         0.500000   0.757574   0.323712   x
            x  H                14         0.500000   0.633209   0.453782   x
            x  H                15         0.500000   0.501200   0.124934   x
            x  H                16        -0.000000   0.757573   0.176288   x
            x  H                17         0.000000   0.633209   0.046217   x
            x  H                18         0.000000   0.501200   0.375066   x
            x  H                19         0.000000   0.742426   0.676288   x
            x  H                20         0.000000   0.866791   0.546218   x
            x  H                21         0.000000   0.998800   0.875066   x
            x  H                22         0.000000   0.242427   0.823712   x
            x  H                23        -0.000000   0.366791   0.953783   x
            x  H                24         0.000000   0.498800   0.624934   x
            xxxxxxxxxxxxxxxxxxxxxxxxxxxxxxxxxxxxxxxxxxxxxxxxxxxxxxxxxxxxxxxxx


[...]
      H     1      S                    1.000
      H     2      S                    1.026
      H     3      S                    0.975
      H     4      S                    0.975
      H     5      S                    1.026
      H     6      S                    1.000
      H     7      S                    0.975
      H     8      S                    1.026
      H     9      S                    1.000
      H    10      S                    0.974
      H    11      S                    1.026
      H    12      S                    1.000
      H    13      S                    0.975
      H    14      S                    1.026
      H    15      S                    1.000
      H    16      S                    0.975
      H    17      S                    1.026
      H    18      S                    1.000
      H    19      S                    0.975
      H    20      S                    1.026
      H    21      S                    1.000
      H    22      S                    0.974
      H    23      S                    1.026
      H    24      S                    1.000
  -------------------------------------------
                           Total:      24.000
  -------------------------------------------

     Atomic Populations (Mulliken)
     -----------------------------
Species          Ion     s      p      d      f     Total  Charge (e)
=====================================================================
  H               1     1.00   0.00   0.00   0.00   1.00     0.00
  H               2     1.03   0.00   0.00   0.00   1.03    -0.03
  H               3     0.97   0.00   0.00   0.00   0.97     0.03
  H               4     0.97   0.00   0.00   0.00   0.97     0.03
  H               5     1.03   0.00   0.00   0.00   1.03    -0.03
  H               6     1.00   0.00   0.00   0.00   1.00     0.00
  H               7     0.97   0.00   0.00   0.00   0.97     0.03
  H               8     1.03   0.00   0.00   0.00   1.03    -0.03
  H               9     1.00   0.00   0.00   0.00   1.00     0.00
  H              10     0.97   0.00   0.00   0.00   0.97     0.03
  H              11     1.03   0.00   0.00   0.00   1.03    -0.03
  H              12     1.00   0.00   0.00   0.00   1.00     0.00
  H              13     0.97   0.00   0.00   0.00   0.97     0.03
  H              14     1.03   0.00   0.00   0.00   1.03    -0.03
  H              15     1.00   0.00   0.00   0.00   1.00     0.00
  H              16     0.97   0.00   0.00   0.00   0.97     0.03
  H              17     1.03   0.00   0.00   0.00   1.03    -0.03
  H              18     1.00   0.00   0.00   0.00   1.00     0.00
  H              19     0.97   0.00   0.00   0.00   0.97     0.03
  H              20     1.03   0.00   0.00   0.00   1.03    -0.03
  H              21     1.00   0.00   0.00   0.00   1.00     0.00
  H              22     0.97   0.00   0.00   0.00   0.97     0.03
  H              23     1.03   0.00   0.00   0.00   1.03    -0.03
  H              24     1.00   0.00   0.00   0.00   1.00     0.00
=====================================================================

                 Bond                   Population      Length (A)
======================================================================
              H 16 -- H 17                   1.62        0.75282
              H 10 -- H 11                   1.62        0.75282
              H 2  -- H 3                    1.62        0.75282
              H 13 -- H 14                   1.62        0.75282
              H 7  -- H 8                    1.62        0.75282
              H 22 -- H 23                   1.62        0.75282
              H 19 -- H 20                   1.62        0.75282
              H 4  -- H 5                    1.62        0.75282
              H 18 -- H 24                   1.47        0.76513
              H 6  -- H 12                   1.47        0.76513
              H 1  -- H 21                   1.47        0.76513
              H 9  -- H 15                   1.47        0.76513
              H 8  -- H 9                    0.08        1.21652
              H 14 -- H 15                   0.08        1.21652
              H 1  -- H 2                    0.08        1.21652
              H 20 -- H 21                   0.08        1.21652
              H 11 -- H 12                   0.08        1.21652
              H 5  -- H 6                    0.08        1.21652
              H 17 -- H 18                   0.08        1.21652
              H 23 -- H 24                   0.08        1.21652
              H 4  -- H 15                   0.15        1.24934
              H 9  -- H 10                   0.15        1.24934
              H 21 -- H 22                   0.15        1.24934
              H 1  -- H 16                   0.15        1.24934
              H 6  -- H 13                   0.15        1.24934
              H 7  -- H 12                   0.15        1.24934
              H 19 -- H 24                   0.15        1.24934
              H 3  -- H 18                   0.15        1.24934
              H 17 -- H 19                  -0.10        1.25784
              H 11 -- H 13                  -0.10        1.25784
              H 5  -- H 7                   -0.10        1.25784
              H 3  -- H 23                  -0.10        1.25784
              H 4  -- H 8                   -0.10        1.25784
              H 2  -- H 22                  -0.10        1.25784
              H 10 -- H 14                  -0.10        1.25784
              H 16 -- H 20                  -0.10        1.25784
              H 2  -- H 20                  -0.04        1.38418
              H 17 -- H 23                  -0.04        1.38418
              H 8  -- H 14                  -0.03        1.38418
              H 5  -- H 11                  -0.04        1.38418
              H 16 -- H 18                  -0.09        1.44408
              H 10 -- H 12                  -0.09        1.44408
              H 22 -- H 24                  -0.09        1.44408
              H 4  -- H 6                   -0.09        1.44408
              H 1  -- H 3                   -0.09        1.44408
              H 7  -- H 9                   -0.09        1.44408
              H 13 -- H 15                  -0.09        1.44408
              H 19 -- H 21                  -0.09        1.44408
              H 7  -- H 22                   0.01        1.44688
              H 10 -- H 19                   0.01        1.44688
              H 3  -- H 4                    0.01        1.44688
              H 13 -- H 16                   0.01        1.44688
              H 18 -- H 23                  -0.23        1.45609
              H 1  -- H 20                  -0.23        1.45609
              H 17 -- H 24                  -0.23        1.45609
              H 2  -- H 21                  -0.23        1.45609
              H 9  -- H 14                  -0.23        1.45609
              H 6  -- H 11                  -0.23        1.45609
              H 5  -- H 12                  -0.23        1.45609
              H 8  -- H 15                  -0.23        1.45609
              H 3  -- H 22                  -0.27        1.53390
              H 10 -- H 13                  -0.27        1.53390
              H 16 -- H 19                  -0.27        1.53390
              H 4  -- H 7                   -0.27        1.53390
              H 3  -- H 24                  -0.19        1.53970
              H 18 -- H 19                  -0.19        1.53970
              H 12 -- H 13                  -0.19        1.53970
              H 6  -- H 7                   -0.19        1.53970
              H 16 -- H 21                  -0.19        1.53970
              H 1  -- H 22                  -0.19        1.53970
              H 4  -- H 9                   -0.19        1.53970
              H 10 -- H 15                  -0.19        1.53970
              H 8  -- H 24                  -0.13        1.55142
              H 14 -- H 18                  -0.13        1.55142
              H 2  -- H 6                   -0.13        1.55142
              H 12 -- H 20                  -0.13        1.55142
              H 11 -- H 21                  -0.13        1.55142
              H 15 -- H 17                  -0.13        1.55142
              H 1  -- H 5                   -0.13        1.55142
              H 9  -- H 23                  -0.13        1.55142
              H 9  -- H 24                  -0.17        1.57465
              H 1  -- H 6                   -0.17        1.57465
              H 15 -- H 18                  -0.17        1.57465
              H 12 -- H 21                  -0.17        1.57465
              H 15 -- H 23                  -0.13        1.62072
              H 9  -- H 17                  -0.13        1.62072
              H 1  -- H 11                  -0.13        1.62072
              H 5  -- H 21                  -0.13        1.62072
              H 2  -- H 12                  -0.13        1.62072
              H 6  -- H 20                  -0.13        1.62072
              H 8  -- H 18                  -0.13        1.62072
              H 14 -- H 24                  -0.13        1.62072
              H 4  -- H 23                  -0.19        1.63156
              H 5  -- H 22                  -0.19        1.63156
              H 10 -- H 17                  -0.19        1.63156
              H 11 -- H 16                  -0.19        1.63156
              H 13 -- H 20                  -0.19        1.63156
              H 14 -- H 19                  -0.19        1.63156
              H 3  -- H 8                   -0.19        1.63156
              H 2  -- H 7                   -0.19        1.63156
              H 14 -- H 16                  -0.28        1.73882
              H 10 -- H 20                  -0.28        1.73882
              H 8  -- H 22                  -0.28        1.73882
              H 2  -- H 4                   -0.28        1.73882
              H 3  -- H 5                   -0.28        1.73882
              H 7  -- H 23                  -0.28        1.73882
              H 11 -- H 19                  -0.28        1.73882
              H 13 -- H 17                  -0.28        1.73882
              H 13 -- H 19                  -0.31        1.75196
              H 3  -- H 7                   -0.31        1.75196
              H 10 -- H 16                  -0.31        1.75196
              H 4  -- H 22                  -0.31        1.75196
              H 5  -- H 23                  -0.22        1.84067
              H 11 -- H 17                  -0.22        1.84067
              H 14 -- H 20                  -0.22        1.84067
              H 2  -- H 8                   -0.22        1.84067
              H 14 -- H 17                  -0.48        1.86373
              H 2  -- H 5                   -0.48        1.86373
              H 11 -- H 20                  -0.48        1.86373
              H 8  -- H 23                  -0.48        1.86373
              H 5  -- H 15                  -0.14        1.89034
              H 9  -- H 11                  -0.14        1.89034
              H 1  -- H 17                  -0.14        1.89034
              H 21 -- H 23                  -0.14        1.89034
              H 6  -- H 14                  -0.14        1.89034
              H 8  -- H 12                  -0.14        1.89034
              H 2  -- H 18                  -0.14        1.89034
              H 20 -- H 24                  -0.14        1.89034
              H 7  -- H 15                  -0.34        1.90284
              H 6  -- H 10                  -0.34        1.90284
              H 3  -- H 21                  -0.34        1.90284
              H 9  -- H 13                  -0.34        1.90284
              H 16 -- H 24                  -0.34        1.90284
              H 1  -- H 19                  -0.34        1.90284
              H 4  -- H 12                  -0.34        1.90284
              H 18 -- H 22                  -0.34        1.90284
              H 3  -- H 6                   -0.26        1.90584
              H 7  -- H 24                  -0.26        1.90584
              H 12 -- H 19                  -0.26        1.90584
              H 13 -- H 18                  -0.26        1.90584
              H 15 -- H 16                  -0.26        1.90584
              H 10 -- H 21                  -0.26        1.90584
              H 9  -- H 22                  -0.26        1.90584
              H 1  -- H 4                   -0.26        1.90584
              H 2  -- H 24                  -0.24        1.93786
              H 6  -- H 8                   -0.24        1.93786
              H 18 -- H 20                  -0.24        1.93786
              H 12 -- H 14                  -0.24        1.93786
              H 17 -- H 21                  -0.24        1.93786
              H 11 -- H 15                  -0.24        1.93786
              H 1  -- H 23                  -0.24        1.93786
              H 5  -- H 9                   -0.24        1.93786
              H 11 -- H 14                  -0.30        1.94118
              H 17 -- H 20                  -0.30        1.94118
              H 5  -- H 8                   -0.30        1.94118
              H 2  -- H 23                  -0.30        1.94118
              H 1  -- H 13                  -0.08        1.94858
              H 9  -- H 19                  -0.08        1.94858
              H 7  -- H 21                  -0.08        1.94858
              H 3  -- H 15                  -0.08        1.94858
              H 4  -- H 18                  -0.08        1.94858
              H 12 -- H 22                  -0.08        1.94858
              H 10 -- H 24                  -0.08        1.94858
              H 6  -- H 16                  -0.08        1.94858
              H 9  -- H 18                  -0.34        2.05871
              H 15 -- H 24                  -0.34        2.05871
              H 1  -- H 12                  -0.34        2.05872
              H 6  -- H 21                  -0.34        2.05872
              H 4  -- H 14                  -0.06        2.09561
              H 8  -- H 10                  -0.06        2.09561
              H 20 -- H 22                  -0.06        2.09561
              H 5  -- H 13                  -0.06        2.09561
              H 7  -- H 11                  -0.06        2.09561
              H 2  -- H 16                  -0.06        2.09561
              H 19 -- H 23                  -0.06        2.09561
              H 3  -- H 17                  -0.06        2.09561
              H 16 -- H 23                  -0.10        2.10421
              H 3  -- H 20                  -0.10        2.10421
              H 17 -- H 22                  -0.10        2.10421
              H 2  -- H 19                  -0.10        2.10421
              H 5  -- H 10                  -0.10        2.10421
              H 4  -- H 11                  -0.10        2.10421
              H 8  -- H 13                  -0.10        2.10421
              H 7  -- H 14                  -0.10        2.10421
              H 9  -- H 16                  -0.22        2.11659
              H 15 -- H 22                  -0.22        2.11659
              H 1  -- H 10                  -0.22        2.11659
              H 4  -- H 21                  -0.22        2.11659
              H 3  -- H 12                  -0.22        2.11659
              H 6  -- H 19                  -0.22        2.11659
              H 13 -- H 24                  -0.22        2.11659
              H 7  -- H 18                  -0.22        2.11659
              H 4  -- H 24                  -0.12        2.30097
              H 10 -- H 18                  -0.12        2.30097
              H 6  -- H 22                  -0.12        2.30097
              H 13 -- H 21                  -0.12        2.30097
              H 12 -- H 16                  -0.12        2.30097
              H 1  -- H 7                   -0.12        2.30097
              H 15 -- H 19                  -0.12        2.30097
              H 3  -- H 9                   -0.12        2.30097
              H 2  -- H 13                  -0.02        2.39119
              H 8  -- H 19                  -0.02        2.39119
              H 7  -- H 20                  -0.02        2.39119
              H 3  -- H 14                  -0.02        2.39119
              H 4  -- H 17                  -0.02        2.39119
              H 11 -- H 22                  -0.02        2.39119
              H 10 -- H 23                  -0.02        2.39119
              H 5  -- H 16                  -0.02        2.39119
              H 14 -- H 23                  -0.04        2.46557
              H 8  -- H 17                  -0.04        2.46557
              H 2  -- H 11                  -0.04        2.46557
              H 5  -- H 20                  -0.04        2.46557
              H 1  -- H 14                   0.06        2.53562
              H 9  -- H 20                   0.06        2.53562
              H 8  -- H 21                   0.06        2.53562
              H 2  -- H 15                   0.06        2.53562
              H 5  -- H 18                   0.06        2.53562
              H 12 -- H 23                   0.06        2.53562
              H 6  -- H 17                   0.06        2.53562
              H 11 -- H 24                   0.06        2.53562
              H 7  -- H 10                  -0.04        2.58832
              H 3  -- H 16                  -0.04        2.58832
              H 19 -- H 22                  -0.04        2.58832
              H 4  -- H 13                  -0.04        2.58832
              H 12 -- H 17                   0.05        2.65174
              H 11 -- H 18                   0.05        2.65174
              H 6  -- H 23                   0.05        2.65174
              H 5  -- H 24                   0.05        2.65174
              H 2  -- H 9                    0.05        2.65174
              H 15 -- H 20                   0.05        2.65174
              H 1  -- H 8                    0.05        2.65174
              H 14 -- H 21                   0.05        2.65174
              H 9  -- H 12                   0.01        2.66185
              H 1  -- H 18                   0.01        2.66185
              H 21 -- H 24                   0.01        2.66185
              H 6  -- H 15                   0.01        2.66185
              H 2  -- H 10                   0.06        2.67037
              H 8  -- H 16                   0.06        2.67037
              H 7  -- H 17                   0.06        2.67037
              H 4  -- H 20                   0.06        2.67037
              H 13 -- H 23                   0.06        2.67037
              H 3  -- H 11                   0.06        2.67037
              H 14 -- H 22                   0.06        2.67037
              H 5  -- H 19                   0.06        2.67037
              H 3  -- H 19                  -0.02        2.69770
              H 7  -- H 13                  -0.02        2.69770
              H 4  -- H 10                  -0.02        2.69770
              H 16 -- H 22                  -0.02        2.69770
======================================================================


Writing analysis data to Cmca-12.castep_bin

Writing model to Cmca-12.check
 
 A BibTeX formatted list of references used in this run has been written to 
 Cmca-12.bib
 
Initialisation time =      9.75 s
Calculation time    =  17921.30 s
Finalisation time   =     60.98 s
Total time          =  17992.03 s
Peak Memory Use     = 1041292 kB
  
Overall parallel efficiency rating: Very good (86%)                             
  
Data was distributed by:-
k-point (36-way); efficiency rating: Very good (86%)                            
