 +-------------------------------------------------+
 |                                                 |
 |      CCC   AA    SSS  TTTTT  EEEEE  PPPP        |
 |     C     A  A  S       T    E      P   P       |
 |     C     AAAA   SS     T    EEE    PPPP        |
 |     C     A  A     S    T    E      P           |
 |      CCC  A  A  SSS     T    EEEEE  P           |
 |                                                 |
 +-------------------------------------------------+
 |                                                 |
 | Welcome to Academic Release CASTEP version 18.1 |          
 | Ab Initio Total Energy Program                  |
 |                                                 |
 | Authors:                                        |
 | M. Segall, M. Probert, C. Pickard, P. Hasnip,   |
 | S. Clark, K. Refson, J. R. Yates, M. Payne      |
 |                                                 |
 | Contributors:                                   |
 | P. Lindan, P. Haynes, J. White, V. Milman,      |
 | N. Govind, M. Gibson, P. Tulip, V. Cocula,      |
 | B. Montanari, D. Quigley, M. Glover,            |
 | L. Bernasconi, A. Perlov, M. Plummer,           |
 | E. McNellis, J. Meyer, J. Gale, D. Jochym       |
 | J. Aarons, B. Walker, R. Gillen, D. Jones       |
 | T. Green, I. J. Bush, C. J. Armstrong,          |
 | E. J. Higgins, E. L. Brown, M. S. McFly,        |
 | J. Wilkins, B-C. Shih, P. J. P. Byrne           |
 |                                                 |
 | Copyright (c) 2000 - 2017                       |
 |                                                 |
 |     Distributed under the terms of an           |
 |     Agreement between the United Kingdom        |
 |     Car-Parrinello (UKCP) Consortium,           |
 |     Daresbury Laboratory and Accelrys, Inc.     |
 |                                                 |
 | Please cite                                     |
 |                                                 |
 |     "First principles methods using CASTEP"     |
 |                                                 |
 |         Zeitschrift fuer Kristallographie       |
 |           220(5-6) pp. 567-570 (2005)           |
 |                                                 |
 | S. J. Clark, M. D. Segall, C. J. Pickard,       |
 | P. J. Hasnip, M. J. Probert, K. Refson,         |
 | M. C. Payne                                     |
 |                                                 |
 |       in all publications arising from          |
 |              your use of CASTEP                 |
 |                                                 |
 +-------------------------------------------------+


 Compiled for linux_x86_64_gfortran4.8 on Thu, 19 Jul 2018 15:42:32 +0100
 from code version 70483bd0ad64+  Sun, 10 Dec 2017 12:18:29 +0000
 Compiler: GNU Fortran 4.8.5; Optimisation: fast
 MATHLIBS: Intel MKL(2018.0.0) (LAPACK version 3.7.0)
 FFT Lib : mkl
 Fundamental constants values: CODATA 2014

 Run started: Sat, 29 Aug 2020 08:06:26 +0100

 Atomic calculation performed for H: 1s1

 Converged in 41 iterations to an ae energy of -12.488 eV

   ============================================================                
   | Pseudopotential Report - Date of generation 29-08-2020   |                
   ------------------------------------------------------------                
   | Element: H Ionic charge:  1.00 Level of theory: PBE      |                
   | Atomic Solver: Koelling-Harmon                           |                
   |                                                          |                
   |               Reference Electronic Structure             |                
   |         Orbital         Occupation         Energy        |                
   |            1s              1.000           -0.239        |                
   |                                                          |                
   |                 Pseudopotential Definition               |                
   |        Beta     l      e      Rc     scheme   norm       |                
   |          1      0   -0.239   0.599     qc      0         |                
   |          2      0    0.250   0.599     qc      0         |                
   |         loc     1    0.000   0.599     pn      0         |                
   |                                                          |                
   | Augmentation charge Rinner = 0.421                       |                
   | No partial core correction                               |                
   ------------------------------------------------------------                
   | "1|0.6|13|15|17|10(qc=8)"                                |                
   ------------------------------------------------------------                
   |      Author: Chris J. Pickard, Cambridge University      |                
   ============================================================                

 Pseudo atomic calculation performed for H 1s1

 Converged in 24 iterations to a total energy of -12.4868 eV

 Calculation parallelised over 36 processes.
 Data is distributed by k-point(36-way)

 ************************************ Title ************************************
 

 ***************************** General Parameters ******************************
  
 output verbosity                               : normal  (1)
 write checkpoint data to                       : Cmca-12.check
 type of calculation                            : geometry optimization
 stress calculation                             : on
 density difference calculation                 : off
 electron localisation func (ELF) calculation   : off
 Hirshfeld analysis                             : off
 unlimited duration calculation
 timing information                             : on
 memory usage estimate                          : on
 write extra output files                       : on
 write final potential to formatted file        : off
 write final density to formatted file          : off
 write structure in CELL formatted file         : on
 write BibTeX reference list                    : on
 write OTFG pseudopotential files               : on
 write electrostatic potential file             : on
 write bands file                               : on
 checkpoint writing                             : both castep_bin and check files
  
 output         length unit                     : A
 output           mass unit                     : amu
 output           time unit                     : ps
 output         charge unit                     : e
 output           spin unit                     : hbar/2
 output         energy unit                     : eV
 output          force unit                     : eV/A
 output       velocity unit                     : A/ps
 output       pressure unit                     : GPa
 output     inv_length unit                     : 1/A
 output      frequency unit                     : cm-1
 output force constant unit                     : eV/A**2
 output         volume unit                     : A**3
 output   IR intensity unit                     : (D/A)**2/amu
 output         dipole unit                     : D
 output         efield unit                     : eV/A/e
 output        entropy unit                     : J/mol/K
  
 wavefunctions paging                           : none
 random number generator seed                   : randomised (80627803)
 data distribution                              : optimal for this architecture
 optimization strategy                          : maximize speed(+++)

 *********************** Exchange-Correlation Parameters ***********************
  
 using functional                               : Perdew Burke Ernzerhof
 relativistic treatment                         : Koelling-Harmon
 DFT+D: Semi-empirical dispersion correction    : off

 ************************* Pseudopotential Parameters **************************
  
 pseudopotential representation                 : reciprocal space
 <beta|phi> representation                      : reciprocal space
 spin-orbit coupling                            : off

 **************************** Basis Set Parameters *****************************
  
 plane wave basis set cut-off                   :  1600.0000   eV
 size of standard grid                          :     2.0000
 size of   fine   gmax                          :    40.9853   1/A
 finite basis set correction                    : automatic
 number of sample energies                      :          3
           sample  spacing                      :     5.0000   eV

 **************************** Electronic Parameters ****************************
  
 number of  electrons                           :  24.00    
 net charge of system                           :  0.000    
 treating system as non-spin-polarized
 number of bands                                :         12

 ********************* Electronic Minimization Parameters **********************
  
 Method: Treating system as non-metallic,
         and number of  SD  steps               :          1
         and number of  CG  steps               :          4
  
 total energy / atom convergence tol.           : 0.1000E-10   eV
 eigen-energy convergence tolerance             : 0.2000E-10   eV
 max force / atom convergence tol.              : ignored
 convergence tolerance window                   :          3   cycles
 max. number of SCF cycles                      :        200
 periodic dipole correction                     : NONE

 ************************** Density Mixing Parameters **************************
  
 density-mixing scheme                          : Broyden
 max. length of mixing history                  :         20
 charge density mixing amplitude                : 0.8000    
 cut-off energy for mixing                      :  1600.       eV

 *********************** Population Analysis Parameters ************************
  
 Population analysis with cutoff                :  3.000       A
 Population analysis output                     : summary and pdos components

 ********************** Geometry Optimization Parameters ***********************
  
 optimization method                            : LBFGS
 max. no. of LBFGS updates                      : unbounded
 variable cell method                           : fixed basis quality
 max. number of steps                           :        200
 estimated bulk modulus                         :  500.0       GPa
 estimated <frequency>                          :  1668.       cm-1
 geom line minimiser                            : on
 with line minimiser tolerance                  :     0.4000
 total energy convergence tolerance             : 0.1000E-08   eV/atom
        max ionic |force| tolerance             : 0.1000E-04   eV/A
 max ionic |displacement| tolerance             : 0.1000E-04   A
   max |stress component| tolerance             : 0.1000E-04   GPa
 convergence tolerance window                   :          2   steps
 backup results every                           :      14400   seconds
 write geom trajectory file                     : on

 *******************************************************************************
  

                           -------------------------------
                                      Unit Cell
                           -------------------------------
        Real Lattice(A)                      Reciprocal Lattice(1/A)
     2.7506268    -0.0000000     0.0000000        2.284274008   0.000000000  -0.000000000
    -0.0000000     5.0980010    -0.0000000        0.000000000   1.232480213   0.000000003
     0.0000000    -0.0000000     3.0638311       -0.000000000   0.000000007   2.050760992

                       Lattice parameters(A)       Cell Angles
                    a =      2.750627          alpha =   90.000000
                    b =      5.098001          beta  =   90.000000
                    c =      3.063831          gamma =   90.000000

                       Current cell volume =            42.963178       A**3
                                   density =             0.563053   AMU/A**3
                                           =             0.934972     g/cm^3

                           -------------------------------
                                     Cell Contents
                           -------------------------------
                         Total number of ions in cell =   24
                      Total number of species in cell =    1
                        Max number of any one species =   24

            xxxxxxxxxxxxxxxxxxxxxxxxxxxxxxxxxxxxxxxxxxxxxxxxxxxxxxxxxxxx
            x  Element    Atom        Fractional coordinates of atoms  x
            x            Number           u          v          w      x
            x----------------------------------------------------------x
            x  H            1         0.000000   0.000729   0.124858   x 
            x  H            2         0.000000   0.133068   0.455262   x 
            x  H            3        -0.000000   0.257651   0.323344   x 
            x  H            4         0.500000   0.257651   0.176657   x 
            x  H            5         0.500000   0.133068   0.044738   x 
            x  H            6         0.500000   0.000729   0.375142   x 
            x  H            7         0.500000   0.242349   0.676657   x 
            x  H            8         0.500000   0.366932   0.544738   x 
            x  H            9         0.500000   0.499271   0.875142   x 
            x  H           10         0.500000   0.742349   0.823343   x 
            x  H           11         0.500000   0.866932   0.955262   x 
            x  H           12         0.500000   0.999271   0.624858   x 
            x  H           13         0.500000   0.757651   0.323343   x 
            x  H           14         0.500000   0.633068   0.455262   x 
            x  H           15         0.500000   0.500729   0.124858   x 
            x  H           16         0.000000   0.757651   0.176656   x 
            x  H           17        -0.000000   0.633068   0.044738   x 
            x  H           18         0.000000   0.500729   0.375142   x 
            x  H           19         0.000000   0.742349   0.676656   x 
            x  H           20        -0.000000   0.866932   0.544738   x 
            x  H           21        -0.000000   0.999271   0.875142   x 
            x  H           22        -0.000000   0.242349   0.823344   x 
            x  H           23         0.000000   0.366932   0.955262   x 
            x  H           24         0.000000   0.499271   0.624858   x 
            xxxxxxxxxxxxxxxxxxxxxxxxxxxxxxxxxxxxxxxxxxxxxxxxxxxxxxxxxxxx


                         No user defined ionic velocities

                           -------------------------------
                                   Details of Species
                           -------------------------------

                               Mass of species in AMU
                                    H    1.0078250

                          Electric Quadrupole Moment (Barn)
                                    H    0.0028600 Isotope  2

                          Files used for pseudopotentials:
                                    H 1|0.6|13|15|17|10(qc=8)

                           -------------------------------
                              k-Points For BZ Sampling
                           -------------------------------
                       MP grid size for SCF calculation is 18 18 18
                            with an offset of   0.000  0.000  0.000
                       Number of kpoints used =          2916

                           -------------------------------
                               Symmetry and Constraints
                           -------------------------------

                      Cell is a supercell containing 2 primitive cells
                      Maximum deviation from symmetry =  0.00000         ANG

                      Number of symmetry operations   =           1
                      Number of ionic constraints     =           3
                      Point group of crystal =     1: C1, 1, 1
                      Space group of crystal =    64: Cmce, -C 2bc 2

             Set iprint > 1 for details on symmetry rotations/translations

                         Centre of mass is constrained
             Set iprint > 1 for details of linear ionic constraints

                         Number of cell constraints= 0
                         Cell constraints are:  1 2 3 4 5 6

                         External pressure/stress (GPa)
                        150.00000   0.00000   0.00000
                                  150.00000   0.00000
                                            150.00000
  
+---------------- MEMORY AND SCRATCH DISK ESTIMATES PER PROCESS --------------+
|                                                     Memory          Disk    |
| Baseline code, static data and system overhead      492.0 MB         0.0 MB |
| BLAS internal memory storage                          0.0 MB         0.0 MB |
| Model and support data                              209.6 MB         0.0 MB |
| Electronic energy minimisation requirements         218.2 MB         0.0 MB |
| Force calculation requirements                       11.9 MB         0.0 MB |
| Stress calculation requirements                      15.0 MB         0.0 MB |
|                                               ----------------------------- |
| Approx. total storage required per process          919.7 MB         0.0 MB |
|                                                                             |
| Requirements will fluctuate during execution and may exceed these estimates |
+-----------------------------------------------------------------------------+
Calculating finite basis set correction with  3 cut-off energies.
Calculating total energy with cut-off of 1590.000 eV.
------------------------------------------------------------------------ <-- SCF
SCF loop      Energy                           Energy gain       Timer   <-- SCF
                                               per atom          (sec)   <-- SCF
------------------------------------------------------------------------ <-- SCF
Initial   5.74539952E+002                                         18.19  <-- SCF
      1  -2.95824295E+002                    3.62651769E+001      86.95  <-- SCF
      2  -3.53279890E+002                    2.39398315E+000     138.22  <-- SCF
      3  -3.52915229E+002                   -1.51942226E-002     201.79  <-- SCF
      4  -3.52887916E+002                   -1.13804152E-003     265.14  <-- SCF
      5  -3.52888486E+002                    2.37554440E-005     326.84  <-- SCF
      6  -3.52888533E+002                    1.96713386E-006     390.20  <-- SCF
      7  -3.52888533E+002                    2.10856840E-009     453.17  <-- SCF
      8  -3.52888533E+002                    2.66053615E-010     507.85  <-- SCF
      9  -3.52888533E+002                    6.43286661E-012     551.68  <-- SCF
     10  -3.52888533E+002                   -3.86697053E-013     595.46  <-- SCF
------------------------------------------------------------------------ <-- SCF
 
Final energy =  -352.8885331200     eV
(energy not corrected for finite basis set)
 
Calculating total energy with cut-off of 1595.000 eV.
------------------------------------------------------------------------ <-- SCF
SCF loop      Energy                           Energy gain       Timer   <-- SCF
                                               per atom          (sec)   <-- SCF
------------------------------------------------------------------------ <-- SCF
Initial  -3.52888533E+002                                        612.94  <-- SCF
      1  -3.52888621E+002                    3.67522299E-006     669.82  <-- SCF
      2  -3.52888621E+002                    1.47025442E-012     714.24  <-- SCF
      3  -3.52888621E+002                    1.12469025E-009     760.29  <-- SCF
      4  -3.52888621E+002                    3.10163262E-011     804.76  <-- SCF
      5  -3.52888621E+002                    3.40373969E-013     849.27  <-- SCF
      6  -3.52888621E+002                    5.23652260E-014     895.16  <-- SCF
------------------------------------------------------------------------ <-- SCF
 
Final energy =  -352.8886213531     eV
(energy not corrected for finite basis set)
 
Calculating total energy with cut-off of 1600.000 eV.
------------------------------------------------------------------------ <-- SCF
SCF loop      Energy                           Energy gain       Timer   <-- SCF
                                               per atom          (sec)   <-- SCF
------------------------------------------------------------------------ <-- SCF
Initial  -3.52888621E+002                                        912.06  <-- SCF
      1  -3.52888707E+002                    3.58046678E-006     969.67  <-- SCF
      2  -3.52888707E+002                    1.49039489E-012    1017.89  <-- SCF
      3  -3.52888707E+002                    1.08349292E-009    1063.88  <-- SCF
      4  -3.52888707E+002                    2.90324897E-011    1114.51  <-- SCF
      5  -3.52888707E+002                   -1.14800688E-013    1159.82  <-- SCF
      6  -3.52888707E+002                    1.08758546E-013    1205.23  <-- SCF
------------------------------------------------------------------------ <-- SCF
 
Final energy =  -352.8887073111     eV
(energy not corrected for finite basis set)
 
 For future reference: finite basis dEtot/dlog(Ecut) =      -0.027743eV
 Total energy corrected for finite basis set =    -352.888707 eV
 
+---------------- MEMORY AND SCRATCH DISK ESTIMATES PER PROCESS --------------+
|                                                     Memory          Disk    |
| Model and support data                              215.8 MB         0.0 MB |
| Electronic energy minimisation requirements         218.2 MB         0.0 MB |
| Geometry minimisation requirements                  316.6 MB         0.0 MB |
|                                               ----------------------------- |
| Approx. total storage required per process          750.6 MB         0.0 MB |
|                                                                             |
| Requirements will fluctuate during execution and may exceed these estimates |
+-----------------------------------------------------------------------------+
 

 ************************************** Forces **************************************
 *                                                                                  *
 *                           Cartesian components (eV/A)                            *
 * -------------------------------------------------------------------------------- *
 *                         x                    y                    z              *
 *                                                                                  *
 * H               1      0.00000             -0.00000              0.00000         *
 * H               2     -0.00000              0.00000             -0.00000         *
 * H               3      0.00000              0.00000              0.00000         *
 * H               4      0.00000             -0.00000             -0.00000         *
 * H               5      0.00000              0.00000              0.00000         *
 * H               6     -0.00000             -0.00000             -0.00000         *
 * H               7      0.00000              0.00000             -0.00000         *
 * H               8     -0.00000             -0.00000              0.00000         *
 * H               9      0.00000              0.00000              0.00000         *
 * H              10     -0.00000             -0.00000              0.00000         *
 * H              11      0.00000              0.00000              0.00000         *
 * H              12     -0.00000              0.00000              0.00000         *
 * H              13      0.00000              0.00000              0.00000         *
 * H              14     -0.00000             -0.00000              0.00000         *
 * H              15     -0.00000             -0.00000             -0.00000         *
 * H              16     -0.00000              0.00000              0.00000         *
 * H              17      0.00000             -0.00000             -0.00000         *
 * H              18      0.00000             -0.00000             -0.00000         *
 * H              19     -0.00000              0.00000             -0.00000         *
 * H              20      0.00000             -0.00000              0.00000         *
 * H              21      0.00000              0.00000             -0.00000         *
 * H              22      0.00000              0.00000              0.00000         *
 * H              23     -0.00000             -0.00000             -0.00000         *
 * H              24      0.00000              0.00000              0.00000         *
 *                                                                                  *
 ************************************************************************************

 ***************** Stress Tensor *****************
 *                                               *
 *          Cartesian components (GPa)           *
 * --------------------------------------------- *
 *             x             y             z     *
 *                                               *
 *  x   -180.000245      0.000000      0.000000  *
 *  y      0.000000   -180.000239     -0.000002  *
 *  z      0.000000     -0.000002   -180.000248  *
 *                                               *
 *  Pressure:  180.0002                          *
 *                                               *
 *************************************************
 LBFGS: finished iteration     0 with enthalpy= -3.12665447E+002 eV
  
 +-----------+-----------------+-----------------+------------+-----+ <-- LBFGS
 | Parameter |      value      |    tolerance    |    units   | OK? | <-- LBFGS
 +-----------+-----------------+-----------------+------------+-----+ <-- LBFGS
 |  dE/ion   |   0.000000E+000 |   1.000000E-009 |         eV | No  | <-- LBFGS
 |  |F|max   |   1.088416E-006 |   1.000000E-005 |       eV/A | Yes | <-- LBFGS
 |  |dR|max  |   0.000000E+000 |   1.000000E-005 |          A | No  | <-- LBFGS
 |   Smax    |   3.000025E+001 |   1.000000E-005 |        GPa | No  | <-- LBFGS
 +-----------+-----------------+-----------------+------------+-----+ <-- LBFGS
  

================================================================================
 Starting LBFGS iteration          1 ...
================================================================================
  
 +------------+-------------+-------------+-----------------+ <-- min LBFGS
 |    Step    |   lambda    |   F.delta'  |    enthalpy     | <-- min LBFGS
 +------------+-------------+-------------+-----------------+ <-- min LBFGS
 |  previous  |    0.000000 |    0.512060 |     -312.665447 | <-- min LBFGS
 +------------+-------------+-------------+-----------------+ <-- min LBFGS
  

--------------------------------------------------------------------------------
 LBFGS: starting iteration         1 with trial guess (lambda=  1.000000)
--------------------------------------------------------------------------------
 
+---------------- MEMORY AND SCRATCH DISK ESTIMATES PER PROCESS --------------+
|                                                     Memory          Disk    |
| Model and support data                              230.5 MB         0.0 MB |
| Electronic energy minimisation requirements         233.0 MB         0.0 MB |
| Geometry minimisation requirements                  337.5 MB         0.0 MB |
|                                               ----------------------------- |
| Approx. total storage required per process          801.0 MB         0.0 MB |
|                                                                             |
| Requirements will fluctuate during execution and may exceed these estimates |
+-----------------------------------------------------------------------------+
 

                           -------------------------------
                                      Unit Cell
                           -------------------------------
        Real Lattice(A)              Reciprocal Lattice(1/A)
     2.8056398    -0.0000000     0.0000000        2.239483964   0.000000000  -0.000000000
    -0.0000000     5.1999618    -0.0000000        0.000000000   1.208313746   0.000000001
     0.0000000    -0.0000000     3.1251082       -0.000000000   0.000000004   2.010549666

                       Lattice parameters(A)       Cell Angles
                    a =      2.805640          alpha =   90.000000
                    b =      5.199962          beta  =   90.000000
                    c =      3.125108          gamma =   90.000000

                Current cell volume =            45.592890 A**3

                           -------------------------------
                                     Cell Contents
                           -------------------------------

            xxxxxxxxxxxxxxxxxxxxxxxxxxxxxxxxxxxxxxxxxxxxxxxxxxxxxxxxxxxxxxxxx
            x  Element         Atom        Fractional coordinates of atoms  x
            x                 Number           u          v          w      x
            x---------------------------------------------------------------x
            x  H                 1         0.000000   0.000729   0.124858   x
            x  H                 2         0.000000   0.133068   0.455262   x
            x  H                 3        -0.000000   0.257651   0.323344   x
            x  H                 4         0.500000   0.257651   0.176657   x
            x  H                 5         0.500000   0.133068   0.044738   x
            x  H                 6         0.500000   0.000729   0.375142   x
            x  H                 7         0.500000   0.242349   0.676657   x
            x  H                 8         0.500000   0.366932   0.544738   x
            x  H                 9         0.500000   0.499271   0.875142   x
            x  H                10         0.500000   0.742349   0.823343   x
            x  H                11         0.500000   0.866932   0.955262   x
            x  H                12         0.500000   0.999271   0.624858   x
            x  H                13         0.500000   0.757651   0.323344   x
            x  H                14         0.500000   0.633068   0.455262   x
            x  H                15         0.500000   0.500729   0.124858   x
            x  H                16         0.000000   0.757651   0.176657   x
            x  H                17        -0.000000   0.633068   0.044738   x
            x  H                18         0.000000   0.500729   0.375142   x
            x  H                19         0.000000   0.742349   0.676656   x
            x  H                20        -0.000000   0.866932   0.544738   x
            x  H                21        -0.000000   0.999271   0.875142   x
            x  H                22        -0.000000   0.242349   0.823344   x
            x  H                23        -0.000000   0.366932   0.955262   x
            x  H                24         0.000000   0.499271   0.624858   x
            xxxxxxxxxxxxxxxxxxxxxxxxxxxxxxxxxxxxxxxxxxxxxxxxxxxxxxxxxxxxxxxxx


------------------------------------------------------------------------ <-- SCF
SCF loop      Energy                           Energy gain       Timer   <-- SCF
                                               per atom          (sec)   <-- SCF
------------------------------------------------------------------------ <-- SCF
Initial  -3.55524241E+002                                       1332.31  <-- SCF
      1  -3.55598873E+002                    3.10967331E-003    1407.47  <-- SCF
      2  -3.55599069E+002                    8.15490529E-006    1486.65  <-- SCF
      3  -3.55597882E+002                   -4.94429853E-005    1566.44  <-- SCF
      4  -3.55597858E+002                   -1.01643041E-006    1648.19  <-- SCF
      5  -3.55597859E+002                    4.03822899E-008    1728.89  <-- SCF
      6  -3.55597859E+002                    3.84367405E-009    1809.96  <-- SCF
      7  -3.55597859E+002                    2.00115725E-011    1865.06  <-- SCF
      8  -3.55597859E+002                    1.74819293E-012    1921.20  <-- SCF
      9  -3.55597859E+002                    2.33629470E-013    1976.61  <-- SCF
------------------------------------------------------------------------ <-- SCF
 
Final energy =  -355.5978586907     eV
(energy not corrected for finite basis set)
 

 ************************************** Forces **************************************
 *                                                                                  *
 *                           Cartesian components (eV/A)                            *
 * -------------------------------------------------------------------------------- *
 *                         x                    y                    z              *
 *                                                                                  *
 * H               1     -0.00000              0.00327             -0.33927         *
 * H               2     -0.00000              0.30009             -0.19952         *
 * H               3      0.00000             -0.29459              0.18331         *
 * H               4      0.00000             -0.29459             -0.18328         *
 * H               5     -0.00000              0.30009              0.19950         *
 * H               6     -0.00000              0.00327              0.33927         *
 * H               7      0.00000              0.29459             -0.18331         *
 * H               8      0.00000             -0.30009              0.19952         *
 * H               9     -0.00000             -0.00327              0.33927         *
 * H              10     -0.00000              0.29459              0.18328         *
 * H              11      0.00000             -0.30009             -0.19951         *
 * H              12      0.00000             -0.00327             -0.33927         *
 * H              13      0.00000             -0.29459              0.18331         *
 * H              14     -0.00000              0.30009             -0.19952         *
 * H              15      0.00000              0.00327             -0.33927         *
 * H              16     -0.00000             -0.29459             -0.18328         *
 * H              17      0.00000              0.30010              0.19951         *
 * H              18     -0.00000              0.00327              0.33927         *
 * H              19     -0.00000              0.29458             -0.18330         *
 * H              20      0.00000             -0.30009              0.19952         *
 * H              21      0.00000             -0.00327              0.33927         *
 * H              22     -0.00000              0.29458              0.18328         *
 * H              23      0.00000             -0.30009             -0.19950         *
 * H              24     -0.00000             -0.00327             -0.33927         *
 *                                                                                  *
 ************************************************************************************

 ***************** Stress Tensor *****************
 *                                               *
 *          Cartesian components (GPa)           *
 * --------------------------------------------- *
 *             x             y             z     *
 *                                               *
 *  x   -155.927859     -0.000000     -0.000000  *
 *  y     -0.000000   -148.973453      0.000023  *
 *  z     -0.000000      0.000023   -148.241273  *
 *                                               *
 *  Pressure:  151.0475                          *
 *                                               *
 *************************************************
  
 +------------+-------------+-------------+-----------------+ <-- min LBFGS
 |    Step    |   lambda    |   F.delta'  |    enthalpy     | <-- min LBFGS
 +------------+-------------+-------------+-----------------+ <-- min LBFGS
 |  previous  |    0.000000 |    0.512060 |     -312.665447 | <-- min LBFGS
 | trial step |    1.000000 |    0.018602 |     -312.912592 | <-- min LBFGS
 +------------+-------------+-------------+-----------------+ <-- min LBFGS
  
 LBFGS: finished iteration     1 with enthalpy= -3.12912592E+002 eV
  
 +-----------+-----------------+-----------------+------------+-----+ <-- LBFGS
 | Parameter |      value      |    tolerance    |    units   | OK? | <-- LBFGS
 +-----------+-----------------+-----------------+------------+-----+ <-- LBFGS
 |  dE/ion   |   1.029773E-002 |   1.000000E-009 |         eV | No  | <-- LBFGS
 |  |F|max   |   3.603636E-001 |   1.000000E-005 |       eV/A | No  | <-- LBFGS
 |  |dR|max  |   1.076891E-007 |   1.000000E-005 |          A | Yes | <-- LBFGS
 |   Smax    |   5.927859E+000 |   1.000000E-005 |        GPa | No  | <-- LBFGS
 +-----------+-----------------+-----------------+------------+-----+ <-- LBFGS
  

================================================================================
 Starting LBFGS iteration          2 ...
================================================================================
  
 +------------+-------------+-------------+-----------------+ <-- min LBFGS
 |    Step    |   lambda    |   F.delta'  |    enthalpy     | <-- min LBFGS
 +------------+-------------+-------------+-----------------+ <-- min LBFGS
 |  previous  |    0.000000 |    0.222591 |     -312.912592 | <-- min LBFGS
 +------------+-------------+-------------+-----------------+ <-- min LBFGS
  

--------------------------------------------------------------------------------
 LBFGS: starting iteration         2 with trial guess (lambda=  1.000000)
--------------------------------------------------------------------------------
 
+---------------- MEMORY AND SCRATCH DISK ESTIMATES PER PROCESS --------------+
|                                                     Memory          Disk    |
| Model and support data                              238.2 MB         0.0 MB |
| Electronic energy minimisation requirements         242.4 MB         0.0 MB |
| Geometry minimisation requirements                  351.1 MB         0.0 MB |
|                                               ----------------------------- |
| Approx. total storage required per process          831.8 MB         0.0 MB |
|                                                                             |
| Requirements will fluctuate during execution and may exceed these estimates |
+-----------------------------------------------------------------------------+
 

                           -------------------------------
                                      Unit Cell
                           -------------------------------
        Real Lattice(A)              Reciprocal Lattice(1/A)
     2.8544313    -0.0000000    -0.0000000        2.201203888   0.000000000   0.000000000
    -0.0000000     5.2648742    -0.0000001        0.000000000   1.193416038   0.000000019
    -0.0000000    -0.0000001     3.1625052        0.000000000   0.000000033   1.986774726

                       Lattice parameters(A)       Cell Angles
                    a =      2.854431          alpha =   90.000002
                    b =      5.264874          beta  =   90.000000
                    c =      3.162505          gamma =   90.000000

                Current cell volume =            47.526829 A**3

                           -------------------------------
                                     Cell Contents
                           -------------------------------

            xxxxxxxxxxxxxxxxxxxxxxxxxxxxxxxxxxxxxxxxxxxxxxxxxxxxxxxxxxxxxxxxx
            x  Element         Atom        Fractional coordinates of atoms  x
            x                 Number           u          v          w      x
            x---------------------------------------------------------------x
            x  H                 1         0.000000   0.000795   0.113489   x
            x  H                 2         0.000000   0.139112   0.448576   x
            x  H                 3        -0.000000   0.251718   0.329486   x
            x  H                 4         0.500000   0.251718   0.170515   x
            x  H                 5         0.500000   0.139112   0.051423   x
            x  H                 6         0.500000   0.000795   0.386511   x
            x  H                 7         0.500000   0.248282   0.670514   x
            x  H                 8         0.500000   0.360888   0.551424   x
            x  H                 9         0.500000   0.499205   0.886511   x
            x  H                10         0.500000   0.748282   0.829485   x
            x  H                11         0.500000   0.860888   0.948577   x
            x  H                12         0.500000   0.999205   0.613489   x
            x  H                13         0.500000   0.751718   0.329486   x
            x  H                14         0.500000   0.639112   0.448576   x
            x  H                15         0.500000   0.500795   0.113489   x
            x  H                16         0.000000   0.751718   0.170515   x
            x  H                17        -0.000000   0.639112   0.051423   x
            x  H                18        -0.000000   0.500795   0.386511   x
            x  H                19         0.000000   0.748282   0.670514   x
            x  H                20        -0.000000   0.860888   0.551424   x
            x  H                21        -0.000000   0.999205   0.886511   x
            x  H                22        -0.000000   0.248282   0.829485   x
            x  H                23         0.000000   0.360888   0.948577   x
            x  H                24         0.000000   0.499205   0.613489   x
            xxxxxxxxxxxxxxxxxxxxxxxxxxxxxxxxxxxxxxxxxxxxxxxxxxxxxxxxxxxxxxxxx


------------------------------------------------------------------------ <-- SCF
SCF loop      Energy                           Energy gain       Timer   <-- SCF
                                               per atom          (sec)   <-- SCF
------------------------------------------------------------------------ <-- SCF
Initial  -3.54049256E+002                                       2112.57  <-- SCF
      1  -3.57447868E+002                    1.41608819E-001    2181.44  <-- SCF
      2  -3.57462675E+002                    6.16956488E-004    2257.54  <-- SCF
      3  -3.57037892E+002                   -1.76993072E-002    2332.24  <-- SCF
      4  -3.57023148E+002                   -6.14322568E-004    2406.89  <-- SCF
      5  -3.57023158E+002                    4.08096216E-007    2482.72  <-- SCF
      6  -3.57023160E+002                    1.01198029E-007    2560.18  <-- SCF
      7  -3.57023160E+002                    2.13315186E-009    2634.86  <-- SCF
      8  -3.57023160E+002                    2.86024906E-010    2708.46  <-- SCF
      9  -3.57023160E+002                    3.05128144E-012    2762.81  <-- SCF
     10  -3.57023160E+002                   -4.35034185E-013    2815.90  <-- SCF
------------------------------------------------------------------------ <-- SCF
 
Final energy =  -357.0231601103     eV
(energy not corrected for finite basis set)
 

 ************************************** Forces **************************************
 *                                                                                  *
 *                           Cartesian components (eV/A)                            *
 * -------------------------------------------------------------------------------- *
 *                         x                    y                    z              *
 *                                                                                  *
 * H               1     -0.00000             -0.00795              1.19105         *
 * H               2      0.00000             -1.41782              0.90468         *
 * H               3     -0.00000              1.20540             -0.74917         *
 * H               4     -0.00000              1.20530              0.74914         *
 * H               5      0.00000             -1.41772             -0.90468         *
 * H               6     -0.00000             -0.00794             -1.19110         *
 * H               7      0.00000             -1.20539              0.74917         *
 * H               8     -0.00000              1.41782             -0.90468         *
 * H               9      0.00000              0.00795             -1.19103         *
 * H              10     -0.00000             -1.20532             -0.74915         *
 * H              11      0.00000              1.41774              0.90469         *
 * H              12      0.00000              0.00794              1.19110         *
 * H              13      0.00000              1.20539             -0.74917         *
 * H              14     -0.00000             -1.41782              0.90468         *
 * H              15      0.00000             -0.00795              1.19103         *
 * H              16     -0.00000              1.20533              0.74916         *
 * H              17      0.00000             -1.41775             -0.90470         *
 * H              18      0.00000             -0.00794             -1.19110         *
 * H              19     -0.00000             -1.20537              0.74915         *
 * H              20      0.00000              1.41780             -0.90466         *
 * H              21     -0.00000              0.00795             -1.19105         *
 * H              22      0.00000             -1.20530             -0.74914         *
 * H              23     -0.00000              1.41772              0.90468         *
 * H              24     -0.00000              0.00794              1.19110         *
 *                                                                                  *
 ************************************************************************************

 ***************** Stress Tensor *****************
 *                                               *
 *          Cartesian components (GPa)           *
 * --------------------------------------------- *
 *             x             y             z     *
 *                                               *
 *  x   -136.767016      0.000000     -0.000000  *
 *  y      0.000000   -163.778747      0.000343  *
 *  z     -0.000000      0.000343   -161.073197  *
 *                                               *
 *  Pressure:  153.8730                          *
 *                                               *
 *************************************************
  
 +------------+-------------+-------------+-----------------+ <-- min LBFGS
 |    Step    |   lambda    |   F.delta'  |    enthalpy     | <-- min LBFGS
 +------------+-------------+-------------+-----------------+ <-- min LBFGS
 |  previous  |    0.000000 |    0.222591 |     -312.912592 | <-- min LBFGS
 | trial step |    1.000000 |   -0.855427 |     -312.527290 | <-- min LBFGS
 +------------+-------------+-------------+-----------------+ <-- min LBFGS
  

--------------------------------------------------------------------------------
 LBFGS: improving iteration         2 with line minimization (lambda=  0.206482)
--------------------------------------------------------------------------------

                           -------------------------------
                                      Unit Cell
                           -------------------------------
        Real Lattice(A)              Reciprocal Lattice(1/A)
     2.8157144    -0.0000000    -0.0000000        2.231471135   0.000000000   0.000000000
    -0.0000000     5.2133650    -0.0000000        0.000000000   1.205207246   0.000000005
    -0.0000000    -0.0000000     3.1328300        0.000000000   0.000000010   2.005594070

                       Lattice parameters(A)       Cell Angles
                    a =      2.815714          alpha =   90.000001
                    b =      5.213365          beta  =   90.000000
                    c =      3.132830          gamma =   90.000000

                Current cell volume =            45.987898 A**3

                           -------------------------------
                                     Cell Contents
                           -------------------------------

            xxxxxxxxxxxxxxxxxxxxxxxxxxxxxxxxxxxxxxxxxxxxxxxxxxxxxxxxxxxxxxxxx
            x  Element         Atom        Fractional coordinates of atoms  x
            x                 Number           u          v          w      x
            x---------------------------------------------------------------x
            x  H                 1         0.000000   0.000743   0.122511   x
            x  H                 2         0.000000   0.134316   0.453882   x
            x  H                 3        -0.000000   0.256426   0.324612   x
            x  H                 4         0.500000   0.256426   0.175388   x
            x  H                 5         0.500000   0.134316   0.046118   x
            x  H                 6         0.500000   0.000743   0.377489   x
            x  H                 7         0.500000   0.243574   0.675388   x
            x  H                 8         0.500000   0.365684   0.546118   x
            x  H                 9         0.500000   0.499257   0.877489   x
            x  H                10         0.500000   0.743574   0.824612   x
            x  H                11         0.500000   0.865684   0.953882   x
            x  H                12         0.500000   0.999257   0.622511   x
            x  H                13         0.500000   0.756426   0.324612   x
            x  H                14         0.500000   0.634316   0.453882   x
            x  H                15         0.500000   0.500743   0.122511   x
            x  H                16         0.000000   0.756426   0.175388   x
            x  H                17        -0.000000   0.634316   0.046118   x
            x  H                18         0.000000   0.500743   0.377489   x
            x  H                19         0.000000   0.743574   0.675388   x
            x  H                20        -0.000000   0.865684   0.546118   x
            x  H                21        -0.000000   0.999257   0.877489   x
            x  H                22        -0.000000   0.243574   0.824612   x
            x  H                23        -0.000000   0.365684   0.953882   x
            x  H                24         0.000000   0.499257   0.622511   x
            xxxxxxxxxxxxxxxxxxxxxxxxxxxxxxxxxxxxxxxxxxxxxxxxxxxxxxxxxxxxxxxxx


------------------------------------------------------------------------ <-- SCF
SCF loop      Energy                           Energy gain       Timer   <-- SCF
                                               per atom          (sec)   <-- SCF
------------------------------------------------------------------------ <-- SCF
Initial  -3.54046558E+002                                       2957.23  <-- SCF
      1  -3.56284329E+002                    9.32404634E-002    3026.17  <-- SCF
      2  -3.56294025E+002                    4.03998857E-004    3102.69  <-- SCF
      3  -3.56017937E+002                   -1.15036497E-002    3177.28  <-- SCF
      4  -3.56009354E+002                   -3.57623433E-004    3253.13  <-- SCF
      5  -3.56009346E+002                   -3.56527773E-007    3327.12  <-- SCF
      6  -3.56009347E+002                    3.06165237E-008    3401.31  <-- SCF
      7  -3.56009347E+002                    1.32280603E-009    3475.97  <-- SCF
      8  -3.56009347E+002                    9.77578207E-011    3528.65  <-- SCF
      9  -3.56009347E+002                    4.75315128E-013    3580.84  <-- SCF
     10  -3.56009347E+002                    7.04916504E-014    3633.08  <-- SCF
------------------------------------------------------------------------ <-- SCF
 
Final energy =  -356.0093466364     eV
(energy not corrected for finite basis set)
 

 ************************************** Forces **************************************
 *                                                                                  *
 *                           Cartesian components (eV/A)                            *
 * -------------------------------------------------------------------------------- *
 *                         x                    y                    z              *
 *                                                                                  *
 * H               1     -0.00000             -0.00097             -0.10054         *
 * H               2     -0.00000              0.01911             -0.02101         *
 * H               3      0.00000             -0.06352              0.03945         *
 * H               4      0.00000             -0.06353             -0.03942         *
 * H               5     -0.00000              0.01913              0.02099         *
 * H               6     -0.00000             -0.00097              0.10051         *
 * H               7     -0.00000              0.06351             -0.03945         *
 * H               8      0.00000             -0.01911              0.02101         *
 * H               9     -0.00000              0.00097              0.10054         *
 * H              10      0.00000              0.06353              0.03942         *
 * H              11     -0.00000             -0.01913             -0.02099         *
 * H              12      0.00000              0.00097             -0.10051         *
 * H              13     -0.00000             -0.06352              0.03945         *
 * H              14      0.00000              0.01911             -0.02101         *
 * H              15      0.00000             -0.00097             -0.10054         *
 * H              16     -0.00000             -0.06353             -0.03942         *
 * H              17      0.00000              0.01913              0.02099         *
 * H              18     -0.00000             -0.00097              0.10051         *
 * H              19     -0.00000              0.06352             -0.03945         *
 * H              20      0.00000             -0.01911              0.02101         *
 * H              21      0.00000              0.00097              0.10054         *
 * H              22      0.00000              0.06353              0.03942         *
 * H              23     -0.00000             -0.01913             -0.02099         *
 * H              24     -0.00000              0.00097             -0.10051         *
 *                                                                                  *
 ************************************************************************************

 ***************** Stress Tensor *****************
 *                                               *
 *          Cartesian components (GPa)           *
 * --------------------------------------------- *
 *             x             y             z     *
 *                                               *
 *  x   -151.839872     -0.000000     -0.000000  *
 *  y     -0.000000   -151.222960      0.000093  *
 *  z     -0.000000      0.000093   -150.080246  *
 *                                               *
 *  Pressure:  151.0477                          *
 *                                               *
 *************************************************
  
 +------------+-------------+-------------+-----------------+ <-- min LBFGS
 |    Step    |   lambda    |   F.delta'  |    enthalpy     | <-- min LBFGS
 +------------+-------------+-------------+-----------------+ <-- min LBFGS
 |  previous  |    0.000000 |    0.222591 |     -312.912592 | <-- min LBFGS
 | trial step |    1.000000 |   -0.855427 |     -312.527290 | <-- min LBFGS
 |  line step |    0.206482 |    0.049578 |     -312.954264 | <-- min LBFGS
 +------------+-------------+-------------+-----------------+ <-- min LBFGS
  
 LBFGS: finished iteration     2 with enthalpy= -3.12954264E+002 eV
  
 +-----------+-----------------+-----------------+------------+-----+ <-- LBFGS
 | Parameter |      value      |    tolerance    |    units   | OK? | <-- LBFGS
 +-----------+-----------------+-----------------+------------+-----+ <-- LBFGS
 |  dE/ion   |   1.736317E-003 |   1.000000E-009 |         eV | No  | <-- LBFGS
 |  |F|max   |   1.005455E-001 |   1.000000E-005 |       eV/A | No  | <-- LBFGS
 |  |dR|max  |   7.812220E-003 |   1.000000E-005 |          A | No  | <-- LBFGS
 |   Smax    |   1.839872E+000 |   1.000000E-005 |        GPa | No  | <-- LBFGS
 +-----------+-----------------+-----------------+------------+-----+ <-- LBFGS
  

================================================================================
 Starting LBFGS iteration          3 ...
================================================================================
  
 +------------+-------------+-------------+-----------------+ <-- min LBFGS
 |    Step    |   lambda    |   F.delta'  |    enthalpy     | <-- min LBFGS
 +------------+-------------+-------------+-----------------+ <-- min LBFGS
 |  previous  |    0.000000 |    0.043583 |     -312.954264 | <-- min LBFGS
 +------------+-------------+-------------+-----------------+ <-- min LBFGS
  

--------------------------------------------------------------------------------
 LBFGS: starting iteration         3 with trial guess (lambda=  1.000000)
--------------------------------------------------------------------------------

                           -------------------------------
                                      Unit Cell
                           -------------------------------
        Real Lattice(A)              Reciprocal Lattice(1/A)
     2.8210035    -0.0000000    -0.0000000        2.227287300   0.000000000   0.000000000
    -0.0000000     5.2245633    -0.0000004        0.000000000   1.202624008   0.000000099
    -0.0000000    -0.0000003     3.1366833        0.000000000   0.000000167   2.003130271

                       Lattice parameters(A)       Cell Angles
                    a =      2.821004          alpha =   90.000010
                    b =      5.224563          beta  =   90.000000
                    c =      3.136683          gamma =   90.000000

                Current cell volume =            46.230043 A**3

                           -------------------------------
                                     Cell Contents
                           -------------------------------

            xxxxxxxxxxxxxxxxxxxxxxxxxxxxxxxxxxxxxxxxxxxxxxxxxxxxxxxxxxxxxxxxx
            x  Element         Atom        Fractional coordinates of atoms  x
            x                 Number           u          v          w      x
            x---------------------------------------------------------------x
            x  H                 1         0.000000   0.000708   0.120199   x
            x  H                 2         0.000000   0.133797   0.454110   x
            x  H                 3        -0.000000   0.255815   0.325241   x
            x  H                 4         0.500000   0.255814   0.174760   x
            x  H                 5         0.500000   0.133798   0.045889   x
            x  H                 6         0.500000   0.000708   0.379800   x
            x  H                 7         0.500000   0.244185   0.674759   x
            x  H                 8         0.500000   0.366203   0.545890   x
            x  H                 9         0.500000   0.499292   0.879801   x
            x  H                10         0.500000   0.744186   0.825240   x
            x  H                11         0.500000   0.866202   0.954111   x
            x  H                12         0.500000   0.999292   0.620200   x
            x  H                13         0.500000   0.755815   0.325241   x
            x  H                14         0.500000   0.633797   0.454110   x
            x  H                15         0.500000   0.500708   0.120199   x
            x  H                16         0.000000   0.755814   0.174760   x
            x  H                17         0.000000   0.633798   0.045889   x
            x  H                18        -0.000000   0.500708   0.379800   x
            x  H                19        -0.000000   0.744185   0.674759   x
            x  H                20        -0.000000   0.866203   0.545890   x
            x  H                21        -0.000000   0.999292   0.879801   x
            x  H                22         0.000000   0.244186   0.825240   x
            x  H                23        -0.000000   0.366202   0.954111   x
            x  H                24        -0.000000   0.499292   0.620200   x
            xxxxxxxxxxxxxxxxxxxxxxxxxxxxxxxxxxxxxxxxxxxxxxxxxxxxxxxxxxxxxxxxx


------------------------------------------------------------------------ <-- SCF
SCF loop      Energy                           Energy gain       Timer   <-- SCF
                                               per atom          (sec)   <-- SCF
------------------------------------------------------------------------ <-- SCF
Initial  -3.56195158E+002                                       3769.42  <-- SCF
      1  -3.56238236E+002                    1.79491422E-003    3841.23  <-- SCF
      2  -3.56238391E+002                    6.43166919E-006    3918.08  <-- SCF
      3  -3.56234224E+002                   -1.73607475E-004    3994.65  <-- SCF
      4  -3.56234153E+002                   -2.94951719E-006    4072.38  <-- SCF
      5  -3.56234153E+002                   -1.48190166E-009    4148.99  <-- SCF
      6  -3.56234153E+002                    8.95701148E-010    4226.89  <-- SCF
      7  -3.56234153E+002                    4.76261730E-011    4280.86  <-- SCF
      8  -3.56234153E+002                    1.53671798E-012    4334.65  <-- SCF
      9  -3.56234153E+002                   -3.02107073E-014    4387.33  <-- SCF
------------------------------------------------------------------------ <-- SCF
 
Final energy =  -356.2341533283     eV
(energy not corrected for finite basis set)
 

 ************************************** Forces **************************************
 *                                                                                  *
 *                           Cartesian components (eV/A)                            *
 * -------------------------------------------------------------------------------- *
 *                         x                    y                    z              *
 *                                                                                  *
 * H               1     -0.00000              0.00694              0.26072         *
 * H               2     -0.00000              0.07651             -0.03782         *
 * H               3      0.00000             -0.11442              0.05640         *
 * H               4      0.00000             -0.11441             -0.05635         *
 * H               5     -0.00000              0.07651              0.03780         *
 * H               6     -0.00000              0.00694             -0.26057         *
 * H               7     -0.00000              0.11442             -0.05640         *
 * H               8      0.00000             -0.07651              0.03782         *
 * H               9     -0.00000             -0.00694             -0.26072         *
 * H              10     -0.00000              0.11442              0.05636         *
 * H              11      0.00000             -0.07652             -0.03781         *
 * H              12      0.00000             -0.00694              0.26057         *
 * H              13      0.00000             -0.11441              0.05639         *
 * H              14      0.00000              0.07651             -0.03782         *
 * H              15      0.00000              0.00694              0.26072         *
 * H              16     -0.00000             -0.11442             -0.05636         *
 * H              17     -0.00000              0.07652              0.03781         *
 * H              18      0.00000              0.00694             -0.26057         *
 * H              19      0.00000              0.11441             -0.05639         *
 * H              20      0.00000             -0.07651              0.03781         *
 * H              21      0.00000             -0.00694             -0.26072         *
 * H              22      0.00000              0.11441              0.05635         *
 * H              23      0.00000             -0.07651             -0.03780         *
 * H              24     -0.00000             -0.00694              0.26057         *
 *                                                                                  *
 ************************************************************************************

 ***************** Stress Tensor *****************
 *                                               *
 *          Cartesian components (GPa)           *
 * --------------------------------------------- *
 *             x             y             z     *
 *                                               *
 *  x   -150.029409     -0.000000      0.000000  *
 *  y     -0.000000   -148.352068     -0.000011  *
 *  z      0.000000     -0.000011   -152.046771  *
 *                                               *
 *  Pressure:  150.1427                          *
 *                                               *
 *************************************************
  
 +------------+-------------+-------------+-----------------+ <-- min LBFGS
 |    Step    |   lambda    |   F.delta'  |    enthalpy     | <-- min LBFGS
 +------------+-------------+-------------+-----------------+ <-- min LBFGS
 |  previous  |    0.000000 |    0.043583 |     -312.954264 | <-- min LBFGS
 | trial step |    1.000000 |   -0.063071 |     -312.952368 | <-- min LBFGS
 +------------+-------------+-------------+-----------------+ <-- min LBFGS
  

--------------------------------------------------------------------------------
 LBFGS: improving iteration         3 with line minimization (lambda=  0.408641)
--------------------------------------------------------------------------------

                           -------------------------------
                                      Unit Cell
                           -------------------------------
        Real Lattice(A)              Reciprocal Lattice(1/A)
     2.8178757    -0.0000000    -0.0000000        2.229759550   0.000000000   0.000000000
    -0.0000000     5.2179411    -0.0000002        0.000000000   1.204150289   0.000000044
    -0.0000000    -0.0000001     3.1344046        0.000000000   0.000000074   2.004586528

                       Lattice parameters(A)       Cell Angles
                    a =      2.817876          alpha =   90.000004
                    b =      5.217941          beta  =   90.000000
                    c =      3.134405          gamma =   90.000000

                Current cell volume =            46.086749 A**3

                           -------------------------------
                                     Cell Contents
                           -------------------------------

            xxxxxxxxxxxxxxxxxxxxxxxxxxxxxxxxxxxxxxxxxxxxxxxxxxxxxxxxxxxxxxxxx
            x  Element         Atom        Fractional coordinates of atoms  x
            x                 Number           u          v          w      x
            x---------------------------------------------------------------x
            x  H                 1         0.000000   0.000729   0.121566   x
            x  H                 2         0.000000   0.134104   0.453975   x
            x  H                 3        -0.000000   0.256176   0.324869   x
            x  H                 4         0.500000   0.256176   0.175132   x
            x  H                 5         0.500000   0.134104   0.046025   x
            x  H                 6         0.500000   0.000729   0.378433   x
            x  H                 7         0.500000   0.243824   0.675131   x
            x  H                 8         0.500000   0.365896   0.546025   x
            x  H                 9         0.500000   0.499271   0.878434   x
            x  H                10         0.500000   0.743824   0.824868   x
            x  H                11         0.500000   0.865896   0.953975   x
            x  H                12         0.500000   0.999271   0.621567   x
            x  H                13         0.500000   0.756176   0.324869   x
            x  H                14         0.500000   0.634104   0.453975   x
            x  H                15         0.500000   0.500729   0.121566   x
            x  H                16         0.000000   0.756176   0.175132   x
            x  H                17        -0.000000   0.634104   0.046025   x
            x  H                18        -0.000000   0.500729   0.378433   x
            x  H                19         0.000000   0.743824   0.675131   x
            x  H                20        -0.000000   0.865896   0.546025   x
            x  H                21        -0.000000   0.999271   0.878434   x
            x  H                22         0.000000   0.243824   0.824868   x
            x  H                23        -0.000000   0.365896   0.953975   x
            x  H                24         0.000000   0.499271   0.621567   x
            xxxxxxxxxxxxxxxxxxxxxxxxxxxxxxxxxxxxxxxxxxxxxxxxxxxxxxxxxxxxxxxxx


------------------------------------------------------------------------ <-- SCF
SCF loop      Energy                           Energy gain       Timer   <-- SCF
                                               per atom          (sec)   <-- SCF
------------------------------------------------------------------------ <-- SCF
Initial  -3.56090142E+002                                       4523.97  <-- SCF
      1  -3.56105304E+002                    6.31729368E-004    4596.53  <-- SCF
      2  -3.56105359E+002                    2.30703502E-006    4673.77  <-- SCF
      3  -3.56103886E+002                   -6.14068833E-005    4752.08  <-- SCF
      4  -3.56103861E+002                   -1.02692574E-006    4828.40  <-- SCF
      5  -3.56103861E+002                   -1.04092603E-009    4907.99  <-- SCF
      6  -3.56103861E+002                    2.89412534E-010    4975.84  <-- SCF
      7  -3.56103861E+002                    1.65172007E-011    5032.26  <-- SCF
      8  -3.56103861E+002                    6.14284382E-013    5087.14  <-- SCF
      9  -3.56103861E+002                    1.04730452E-013    5142.06  <-- SCF
------------------------------------------------------------------------ <-- SCF
 
Final energy =  -356.1038608452     eV
(energy not corrected for finite basis set)
 

 ************************************** Forces **************************************
 *                                                                                  *
 *                           Cartesian components (eV/A)                            *
 * -------------------------------------------------------------------------------- *
 *                         x                    y                    z              *
 *                                                                                  *
 * H               1     -0.00000              0.00225              0.04231         *
 * H               2     -0.00000              0.04265             -0.02790         *
 * H               3      0.00000             -0.08441              0.04634         *
 * H               4      0.00000             -0.08442             -0.04630         *
 * H               5     -0.00000              0.04266              0.02789         *
 * H               6     -0.00000              0.00225             -0.04227         *
 * H               7     -0.00000              0.08441             -0.04634         *
 * H               8      0.00000             -0.04265              0.02790         *
 * H               9     -0.00000             -0.00225             -0.04231         *
 * H              10     -0.00000              0.08442              0.04630         *
 * H              11      0.00000             -0.04267             -0.02789         *
 * H              12      0.00000             -0.00225              0.04227         *
 * H              13      0.00000             -0.08441              0.04633         *
 * H              14     -0.00000              0.04265             -0.02790         *
 * H              15      0.00000              0.00225              0.04231         *
 * H              16     -0.00000             -0.08442             -0.04630         *
 * H              17      0.00000              0.04267              0.02789         *
 * H              18      0.00000              0.00225             -0.04227         *
 * H              19     -0.00000              0.08441             -0.04633         *
 * H              20      0.00000             -0.04265              0.02790         *
 * H              21      0.00000             -0.00225             -0.04231         *
 * H              22     -0.00000              0.08442              0.04630         *
 * H              23      0.00000             -0.04266             -0.02788         *
 * H              24     -0.00000             -0.00225              0.04227         *
 *                                                                                  *
 ************************************************************************************

 ***************** Stress Tensor *****************
 *                                               *
 *          Cartesian components (GPa)           *
 * --------------------------------------------- *
 *             x             y             z     *
 *                                               *
 *  x   -151.096779     -0.000000      0.000000  *
 *  y     -0.000000   -150.044957      0.000050  *
 *  z      0.000000      0.000050   -150.853911  *
 *                                               *
 *  Pressure:  150.6652                          *
 *                                               *
 *************************************************
  
 +------------+-------------+-------------+-----------------+ <-- min LBFGS
 |    Step    |   lambda    |   F.delta'  |    enthalpy     | <-- min LBFGS
 +------------+-------------+-------------+-----------------+ <-- min LBFGS
 |  previous  |    0.000000 |    0.043583 |     -312.954264 | <-- min LBFGS
 | trial step |    1.000000 |   -0.063071 |     -312.952368 | <-- min LBFGS
 |  line step |    0.408641 |    0.001259 |     -312.956232 | <-- min LBFGS
 +------------+-------------+-------------+-----------------+ <-- min LBFGS
  
 LBFGS: finished iteration     3 with enthalpy= -3.12956232E+002 eV
  
 +-----------+-----------------+-----------------+------------+-----+ <-- LBFGS
 | Parameter |      value      |    tolerance    |    units   | OK? | <-- LBFGS
 +-----------+-----------------+-----------------+------------+-----+ <-- LBFGS
 |  dE/ion   |   8.198480E-005 |   1.000000E-009 |         eV | No  | <-- LBFGS
 |  |F|max   |   9.629081E-002 |   1.000000E-005 |       eV/A | No  | <-- LBFGS
 |  |dR|max  |   2.961730E-003 |   1.000000E-005 |          A | No  | <-- LBFGS
 |   Smax    |   1.096779E+000 |   1.000000E-005 |        GPa | No  | <-- LBFGS
 +-----------+-----------------+-----------------+------------+-----+ <-- LBFGS
  

================================================================================
 Starting LBFGS iteration          4 ...
================================================================================
  
 +------------+-------------+-------------+-----------------+ <-- min LBFGS
 |    Step    |   lambda    |   F.delta'  |    enthalpy     | <-- min LBFGS
 +------------+-------------+-------------+-----------------+ <-- min LBFGS
 |  previous  |    0.000000 |    0.040402 |     -312.956232 | <-- min LBFGS
 +------------+-------------+-------------+-----------------+ <-- min LBFGS
  

--------------------------------------------------------------------------------
 LBFGS: starting iteration         4 with trial guess (lambda=  1.000000)
--------------------------------------------------------------------------------

                           -------------------------------
                                      Unit Cell
                           -------------------------------
        Real Lattice(A)              Reciprocal Lattice(1/A)
     2.8256287     0.0000000    -0.0000000        2.223641532  -0.000000000   0.000000000
     0.0000000     5.2321988    -0.0000008       -0.000000000   1.200869004   0.000000190
    -0.0000000    -0.0000005     3.1416465        0.000000000   0.000000318   1.999965710

                       Lattice parameters(A)       Cell Angles
                    a =      2.825629          alpha =   90.000018
                    b =      5.232199          beta  =   90.000000
                    c =      3.141647          gamma =   90.000000

                Current cell volume =            46.446890 A**3

                           -------------------------------
                                     Cell Contents
                           -------------------------------

            xxxxxxxxxxxxxxxxxxxxxxxxxxxxxxxxxxxxxxxxxxxxxxxxxxxxxxxxxxxxxxxxx
            x  Element         Atom        Fractional coordinates of atoms  x
            x                 Number           u          v          w      x
            x---------------------------------------------------------------x
            x  H                 1         0.000000   0.000728   0.121333   x
            x  H                 2         0.000000   0.133860   0.453870   x
            x  H                 3        -0.000000   0.254297   0.326603   x
            x  H                 4         0.500000   0.254297   0.173400   x
            x  H                 5         0.500000   0.133861   0.046128   x
            x  H                 6         0.500000   0.000728   0.378667   x
            x  H                 7         0.500000   0.245703   0.673397   x
            x  H                 8         0.500000   0.366140   0.546130   x
            x  H                 9         0.500000   0.499272   0.878667   x
            x  H                10         0.500000   0.745703   0.826601   x
            x  H                11         0.500000   0.866139   0.953872   x
            x  H                12         0.500000   0.999272   0.621333   x
            x  H                13         0.500000   0.754297   0.326603   x
            x  H                14         0.500000   0.633860   0.453870   x
            x  H                15         0.500000   0.500728   0.121333   x
            x  H                16        -0.000000   0.754297   0.173399   x
            x  H                17         0.000000   0.633861   0.046128   x
            x  H                18        -0.000000   0.500728   0.378667   x
            x  H                19        -0.000000   0.745703   0.673397   x
            x  H                20         0.000000   0.866140   0.546130   x
            x  H                21         0.000000   0.999272   0.878667   x
            x  H                22        -0.000000   0.245703   0.826601   x
            x  H                23         0.000000   0.366139   0.953872   x
            x  H                24        -0.000000   0.499272   0.621333   x
[...]
      H     1      S                    1.000
      H     2      S                    1.026
      H     3      S                    0.974
      H     4      S                    0.974
      H     5      S                    1.026
      H     6      S                    1.000
      H     7      S                    0.974
      H     8      S                    1.026
      H     9      S                    1.000
      H    10      S                    0.974
      H    11      S                    1.026
      H    12      S                    1.000
      H    13      S                    0.974
      H    14      S                    1.026
      H    15      S                    1.000
      H    16      S                    0.974
      H    17      S                    1.026
      H    18      S                    1.000
      H    19      S                    0.974
      H    20      S                    1.026
      H    21      S                    1.000
      H    22      S                    0.974
      H    23      S                    1.026
      H    24      S                    1.000
  -------------------------------------------
                           Total:      24.000
  -------------------------------------------

     Atomic Populations (Mulliken)
     -----------------------------
Species          Ion     s      p      d      f     Total  Charge (e)
=====================================================================
  H               1     1.00   0.00   0.00   0.00   1.00     0.00
  H               2     1.03   0.00   0.00   0.00   1.03    -0.03
  H               3     0.97   0.00   0.00   0.00   0.97     0.03
  H               4     0.97   0.00   0.00   0.00   0.97     0.03
  H               5     1.03   0.00   0.00   0.00   1.03    -0.03
  H               6     1.00   0.00   0.00   0.00   1.00     0.00
  H               7     0.97   0.00   0.00   0.00   0.97     0.03
  H               8     1.03   0.00   0.00   0.00   1.03    -0.03
  H               9     1.00   0.00   0.00   0.00   1.00     0.00
  H              10     0.97   0.00   0.00   0.00   0.97     0.03
  H              11     1.03   0.00   0.00   0.00   1.03    -0.03
  H              12     1.00   0.00   0.00   0.00   1.00     0.00
  H              13     0.97   0.00   0.00   0.00   0.97     0.03
  H              14     1.03   0.00   0.00   0.00   1.03    -0.03
  H              15     1.00   0.00   0.00   0.00   1.00     0.00
  H              16     0.97   0.00   0.00   0.00   0.97     0.03
  H              17     1.03   0.00   0.00   0.00   1.03    -0.03
  H              18     1.00   0.00   0.00   0.00   1.00     0.00
  H              19     0.97   0.00   0.00   0.00   0.97     0.03
  H              20     1.03   0.00   0.00   0.00   1.03    -0.03
  H              21     1.00   0.00   0.00   0.00   1.00     0.00
  H              22     0.97   0.00   0.00   0.00   0.97     0.03
  H              23     1.03   0.00   0.00   0.00   1.03    -0.03
  H              24     1.00   0.00   0.00   0.00   1.00     0.00
=====================================================================

                 Bond                   Population      Length (A)
======================================================================
              H 4  -- H 5                    1.60        0.75112
              H 10 -- H 11                   1.60        0.75112
              H 16 -- H 17                   1.60        0.75112
              H 22 -- H 23                   1.60        0.75112
              H 19 -- H 20                   1.60        0.75112
              H 2  -- H 3                    1.60        0.75112
              H 13 -- H 14                   1.60        0.75112
              H 7  -- H 8                    1.60        0.75112
              H 9  -- H 15                   1.46        0.76196
              H 1  -- H 21                   1.46        0.76196
              H 18 -- H 24                   1.46        0.76196
              H 6  -- H 12                   1.46        0.76196
              H 20 -- H 21                   0.06        1.25889
              H 1  -- H 2                    0.06        1.25889
              H 8  -- H 9                    0.06        1.25889
              H 14 -- H 15                   0.06        1.25889
              H 11 -- H 12                   0.06        1.25890
              H 17 -- H 18                   0.06        1.25890
              H 23 -- H 24                   0.06        1.25890
              H 5  -- H 6                    0.06        1.25890
              H 7  -- H 12                   0.11        1.29613
              H 6  -- H 13                   0.11        1.29613
              H 19 -- H 24                   0.11        1.29613
              H 3  -- H 18                   0.11        1.29613
              H 21 -- H 22                   0.11        1.29613
              H 1  -- H 16                   0.11        1.29613
              H 4  -- H 15                   0.11        1.29613
              H 9  -- H 10                   0.11        1.29613
              H 5  -- H 7                   -0.11        1.30108
              H 3  -- H 23                  -0.11        1.30108
              H 17 -- H 19                  -0.11        1.30108
              H 11 -- H 13                  -0.11        1.30108
              H 10 -- H 14                  -0.11        1.30109
              H 16 -- H 20                  -0.11        1.30109
              H 2  -- H 22                  -0.11        1.30109
              H 4  -- H 8                   -0.11        1.30109
              H 8  -- H 14                  -0.04        1.42357
              H 2  -- H 20                  -0.04        1.42357
              H 5  -- H 11                  -0.04        1.42358
              H 17 -- H 23                  -0.04        1.42358
              H 4  -- H 6                   -0.09        1.47519
              H 10 -- H 12                  -0.09        1.47519
              H 22 -- H 24                  -0.09        1.47519
              H 16 -- H 18                  -0.09        1.47519
              H 1  -- H 3                   -0.09        1.47520
              H 19 -- H 21                  -0.09        1.47520
              H 13 -- H 15                  -0.09        1.47520
              H 7  -- H 9                   -0.09        1.47520
              H 13 -- H 16                   0.01        1.48890
              H 7  -- H 22                   0.01        1.48890
              H 3  -- H 4                    0.01        1.48890
              H 10 -- H 19                   0.01        1.48890
              H 6  -- H 11                  -0.21        1.49920
              H 5  -- H 12                  -0.21        1.49920
              H 18 -- H 23                  -0.21        1.49920
              H 17 -- H 24                  -0.21        1.49920
              H 8  -- H 15                  -0.21        1.49921
              H 9  -- H 14                  -0.21        1.49921
              H 2  -- H 21                  -0.21        1.49921
              H 1  -- H 20                  -0.21        1.49921
              H 16 -- H 19                  -0.26        1.56889
              H 3  -- H 22                  -0.26        1.56889
              H 4  -- H 7                   -0.26        1.56889
              H 10 -- H 13                  -0.26        1.56889
              H 12 -- H 13                  -0.17        1.58158
              H 6  -- H 7                   -0.17        1.58158
              H 18 -- H 19                  -0.17        1.58158
              H 3  -- H 24                  -0.17        1.58158
              H 4  -- H 9                   -0.17        1.58159
              H 1  -- H 22                  -0.17        1.58159
              H 10 -- H 15                  -0.17        1.58159
              H 16 -- H 21                  -0.17        1.58159
              H 12 -- H 20                  -0.13        1.59119
              H 8  -- H 24                  -0.13        1.59119
              H 14 -- H 18                  -0.13        1.59119
              H 2  -- H 6                   -0.13        1.59119
              H 9  -- H 23                  -0.13        1.59119
              H 1  -- H 5                   -0.13        1.59119
              H 11 -- H 21                  -0.13        1.59119
              H 15 -- H 17                  -0.13        1.59119
              H 1  -- H 6                   -0.16        1.62425
              H 12 -- H 21                  -0.16        1.62425
              H 15 -- H 18                  -0.16        1.62425
              H 9  -- H 24                  -0.16        1.62425
              H 15 -- H 23                  -0.13        1.65768
              H 5  -- H 21                  -0.13        1.65768
              H 1  -- H 11                  -0.13        1.65768
              H 9  -- H 17                  -0.13        1.65768
              H 14 -- H 24                  -0.13        1.65769
              H 8  -- H 18                  -0.13        1.65769
              H 2  -- H 12                  -0.13        1.65769
              H 6  -- H 20                  -0.13        1.65769
              H 14 -- H 19                  -0.18        1.67286
              H 2  -- H 7                   -0.18        1.67286
              H 3  -- H 8                   -0.18        1.67286
              H 13 -- H 20                  -0.18        1.67286
              H 5  -- H 22                  -0.18        1.67286
              H 10 -- H 17                  -0.18        1.67286
              H 11 -- H 16                  -0.18        1.67286
              H 4  -- H 23                  -0.18        1.67286
              H 2  -- H 4                   -0.25        1.78038
              H 10 -- H 20                  -0.25        1.78038
              H 8  -- H 22                  -0.25        1.78038
              H 14 -- H 16                  -0.25        1.78038
              H 13 -- H 17                  -0.25        1.78039
              H 11 -- H 19                  -0.25        1.78039
              H 3  -- H 5                   -0.25        1.78039
              H 7  -- H 23                  -0.25        1.78039
              H 13 -- H 19                  -0.28        1.78277
              H 3  -- H 7                   -0.28        1.78277
              H 4  -- H 22                  -0.28        1.78279
              H 10 -- H 16                  -0.28        1.78279
              H 11 -- H 17                  -0.20        1.88333
              H 5  -- H 23                  -0.21        1.88333
              H 14 -- H 20                  -0.20        1.88334
              H 2  -- H 8                   -0.20        1.88334
              H 11 -- H 20                  -0.41        1.91187
              H 2  -- H 5                   -0.41        1.91187
              H 8  -- H 23                  -0.41        1.91187
              H 14 -- H 17                  -0.41        1.91187
              H 1  -- H 17                  -0.13        1.93261
              H 5  -- H 15                  -0.13        1.93261
              H 21 -- H 23                  -0.13        1.93261
              H 9  -- H 11                  -0.13        1.93261
              H 20 -- H 24                  -0.13        1.93262
              H 2  -- H 18                  -0.13        1.93262
              H 6  -- H 14                  -0.13        1.93262
              H 8  -- H 12                  -0.13        1.93262
              H 16 -- H 24                  -0.31        1.93517
              H 18 -- H 22                  -0.31        1.93517
              H 4  -- H 12                  -0.31        1.93517
              H 6  -- H 10                  -0.31        1.93517
              H 9  -- H 13                  -0.31        1.93518
              H 1  -- H 19                  -0.31        1.93518
              H 3  -- H 21                  -0.31        1.93518
              H 7  -- H 15                  -0.31        1.93518
              H 1  -- H 4                   -0.24        1.94389
              H 10 -- H 21                  -0.24        1.94389
              H 9  -- H 22                  -0.24        1.94389
              H 15 -- H 16                  -0.24        1.94389
              H 12 -- H 19                  -0.24        1.94389
              H 13 -- H 18                  -0.24        1.94389
              H 3  -- H 6                   -0.24        1.94389
              H 7  -- H 24                  -0.24        1.94389
              H 5  -- H 9                   -0.21        1.98307
              H 17 -- H 21                  -0.21        1.98307
              H 1  -- H 23                  -0.21        1.98307
              H 11 -- H 15                  -0.21        1.98307
              H 12 -- H 14                  -0.21        1.98308
              H 18 -- H 20                  -0.21        1.98308
              H 2  -- H 24                  -0.21        1.98308
              H 6  -- H 8                   -0.21        1.98308
              H 17 -- H 20                  -0.27        1.98529
              H 2  -- H 23                  -0.27        1.98529
              H 5  -- H 8                   -0.27        1.98529
              H 11 -- H 14                  -0.27        1.98529
              H 7  -- H 21                  -0.06        2.01337
              H 3  -- H 15                  -0.06        2.01337
              H 1  -- H 13                  -0.06        2.01337
              H 9  -- H 19                  -0.06        2.01337
              H 6  -- H 16                  -0.06        2.01337
              H 12 -- H 22                  -0.06        2.01337
              H 10 -- H 24                  -0.06        2.01337
              H 4  -- H 18                  -0.06        2.01337
              H 9  -- H 18                  -0.29        2.10890
              H 6  -- H 21                  -0.29        2.10890
              H 1  -- H 12                  -0.29        2.10890
              H 15 -- H 24                  -0.29        2.10890
              H 8  -- H 13                  -0.09        2.14008
              H 2  -- H 19                  -0.09        2.14008
              H 3  -- H 20                  -0.09        2.14008
              H 7  -- H 14                  -0.09        2.14008
              H 4  -- H 11                  -0.09        2.14008
              H 5  -- H 10                  -0.09        2.14008
              H 16 -- H 23                  -0.09        2.14008
              H 17 -- H 22                  -0.09        2.14008
              H 4  -- H 21                  -0.20        2.14910
              H 1  -- H 10                  -0.20        2.14910
              H 15 -- H 22                  -0.20        2.14910
              H 9  -- H 16                  -0.20        2.14910
              H 13 -- H 24                  -0.20        2.14910
              H 6  -- H 19                  -0.20        2.14910
              H 3  -- H 12                  -0.20        2.14910
              H 7  -- H 18                  -0.20        2.14910
              H 2  -- H 16                  -0.05        2.17060
              H 20 -- H 22                  -0.05        2.17060
              H 8  -- H 10                  -0.05        2.17060
              H 4  -- H 14                  -0.05        2.17060
              H 7  -- H 11                  -0.05        2.17061
              H 19 -- H 23                  -0.05        2.17061
              H 5  -- H 13                  -0.05        2.17061
              H 3  -- H 17                  -0.05        2.17061
              H 12 -- H 16                  -0.09        2.36726
              H 6  -- H 22                  -0.09        2.36726
              H 10 -- H 18                  -0.09        2.36726
              H 4  -- H 24                  -0.09        2.36726
              H 3  -- H 9                   -0.09        2.36726
              H 1  -- H 7                   -0.09        2.36726
              H 15 -- H 19                  -0.09        2.36726
              H 13 -- H 21                  -0.09        2.36726
              H 7  -- H 20                  -0.01        2.46619
              H 8  -- H 19                  -0.01        2.46619
              H 2  -- H 13                  -0.01        2.46619
              H 3  -- H 14                  -0.01        2.46619
              H 11 -- H 22                  -0.01        2.46621
              H 5  -- H 16                  -0.01        2.46621
              H 10 -- H 23                  -0.01        2.46621
              H 4  -- H 17                  -0.01        2.46621
              H 5  -- H 20                  -0.03        2.52927
              H 2  -- H 11                  -0.03        2.52927
              H 14 -- H 23                  -0.03        2.52927
              H 8  -- H 17                  -0.03        2.52927
              H 6  -- H 17                   0.05        2.60080
              H 11 -- H 24                   0.05        2.60080
              H 5  -- H 18                   0.05        2.60080
              H 12 -- H 23                   0.05        2.60080
              H 2  -- H 15                   0.05        2.60080
              H 9  -- H 20                   0.05        2.60080
              H 8  -- H 21                   0.05        2.60080
              H 1  -- H 14                   0.05        2.60080
              H 7  -- H 10                  -0.03        2.65714
              H 4  -- H 13                  -0.03        2.65714
              H 19 -- H 22                  -0.03        2.65714
              H 3  -- H 16                  -0.03        2.65714
              H 12 -- H 17                   0.04        2.72185
              H 5  -- H 24                   0.04        2.72185
              H 6  -- H 23                   0.04        2.72185
              H 11 -- H 18                   0.04        2.72185
              H 14 -- H 21                   0.04        2.72186
              H 1  -- H 8                    0.04        2.72186
              H 15 -- H 20                   0.04        2.72186
              H 2  -- H 9                    0.04        2.72186
              H 14 -- H 22                   0.05        2.72956
              H 8  -- H 16                   0.05        2.72956
              H 4  -- H 20                   0.05        2.72956
              H 2  -- H 10                   0.05        2.72956
              H 5  -- H 19                   0.05        2.72957
              H 3  -- H 11                   0.05        2.72957
              H 13 -- H 23                   0.05        2.72957
              H 7  -- H 17                   0.05        2.72957
              H 21 -- H 24                   0.01        2.73529
              H 6  -- H 15                   0.01        2.73529
              H 1  -- H 18                   0.01        2.73529
              H 9  -- H 12                   0.01        2.73529
              H 7  -- H 13                  -0.02        2.78964
              H 3  -- H 19                  -0.02        2.78964
              H 16 -- H 22                  -0.02        2.78966
              H 4  -- H 10                  -0.02        2.78966
======================================================================


Writing analysis data to Cmca-12.castep_bin

Writing model to Cmca-12.check
 
 A BibTeX formatted list of references used in this run has been written to 
 Cmca-12.bib
 
Initialisation time =     10.23 s
Calculation time    =  20595.91 s
Finalisation time   =     66.08 s
Total time          =  20672.22 s
Peak Memory Use     = 1069780 kB
  
Overall parallel efficiency rating: Very good (87%)                             
  
Data was distributed by:-
k-point (36-way); efficiency rating: Very good (88%)                            
